
121242  0.0000000e+00
  50.6118584  42.3083496  84.3975163  50.3359032  43.0781746  83.8047981
  51.1659241  42.7511406  85.1165771  49.8020077  41.7977476  84.7192764
  51.4033079  41.2895727  83.7538910  51.6730356  40.5292082  84.4868279
  50.5295897  40.4948711  82.7082443  50.1200581  41.1158562  81.9115162
  51.1376381  39.7590685  82.1819687  49.3467426  39.8090935  83.3835602
  49.2861605  39.8074722  84.6768475  48.5639477  39.1745949  82.6391888
  52.7600431  41.7037201  83.2044792  52.8504133  42.7733755  82.5717354
  53.7736368  40.8272552  83.3584881  53.6392450  39.9671006  83.8705158
  55.1953268  41.0986185  83.0529308  55.2561188  41.9536161  82.3795986
  55.9686422  41.5908194  84.1756725  55.4687881  42.4606419  84.6018791
  56.0757351  40.5961609  85.3303623  56.6593170  39.7066665  85.0930309
  56.5515518  41.1168480  86.1613750  55.1228476  40.1719761  85.6468678
  57.2537088  42.0769453  83.7966442  57.2966099  43.0270529  83.6660480
  55.8881998  39.9001789  82.3110008  56.9471931  40.1751566  81.6810703
  55.4408360  38.6146188  82.4519062  54.5783949  38.3694267  82.9168510
  56.2473297  37.4037051  82.0431423  57.1577883  37.5189447  82.6312637
  55.4775763  36.1616445  82.4678421  55.1119900  36.2141323  83.4933567
  54.6042681  36.1438036  81.8158245  56.2068224  34.9203968  82.3501778
  56.9052315  35.0397849  82.9979134  56.6629267  37.3273492  80.6040573
  57.8326416  37.4173021  80.3266239  55.6464291  37.2186971  79.7175312
  54.6907473  37.2659326  80.0408649  55.8762980  36.9302225  78.3378744
  56.3086891  35.9298182  78.3196402  54.4996119  36.7454457  77.6351166
  53.8095951  37.5554228  77.8715801  54.7344446  36.8875170  76.5802336
  53.7370777  35.4459667  77.8346205  54.4522476  34.6245909  77.7902126
  52.9106808  35.3085351  79.1148853  53.6076832  35.1586080  79.9393892
  52.3941517  36.2488747  79.3074036  52.2567654  34.4432616  79.0062618
  52.8706884  35.0761938  76.6070938  53.4862661  35.1930141  75.7151794
  52.6179600  34.0164900  76.6426706  52.0021677  35.7208943  76.4724112
  56.8673944  37.9814529  77.6454639  57.8529692  37.5078201  76.9928980
  56.7583656  39.2902613  77.7995729  55.6659985  40.0713062  78.3599663
  55.6719589  39.9218464  79.4396544  54.7549725  39.8178411  77.8178453
  56.0971498  41.5935278  78.1604624  56.6054869  42.0538378  79.0076971
  55.2055597  42.2163105  78.0875921  56.9762754  41.6007614  76.9708490
  57.7069092  42.3971701  77.1123028  56.5320301  41.6665602  75.9776640
  57.6749372  40.2378178  77.1275711  57.8227854  39.8399282  76.1236143
  58.9707088  40.3236866  77.9179573  60.0331640  40.6354094  77.3839617
  58.9934349  39.9059200  79.2107296  58.1891632  39.4636726  79.6322346
  60.2788925  39.8124695  79.9342871  60.9890461  40.6102514  79.7167492
  60.0872517  39.7521281  81.4456272  59.4966459  38.8598680  81.6533661
  61.3558531  39.6236110  82.3447227  62.0131159  40.4849291  82.2253799
  61.1322927  39.5589161  83.4095860  61.9270754  38.7179351  82.1408749
  59.3936968  40.9304619  81.9193935  58.4583616  40.7788229  81.7652702
  61.0358286  38.5532546  79.3883085  62.2566938  38.6492538  79.3425941
  60.3147840  37.5436139  79.0283346  59.3169737  37.4977636  79.1778946
  60.8339167  36.3221407  78.4430885  61.7476606  36.1311007  79.0058279
  59.8753119  35.1129627  78.8209963  58.9743948  35.2516103  78.2233095
  60.4691839  34.2331600  78.5732841  59.6223927  35.1402569  80.2438831
  59.1363907  35.9323263  80.4847813  60.9231901  36.2857032  76.9308710
  61.3405943  35.2770686  76.3874769  60.6030846  37.3588276  76.2338972
  60.1889849  38.2215166  76.5569973  60.6733847  37.3953891  74.7372484
  60.0784445  38.2513928  74.4188118  62.1323109  37.6670814  74.2284775
  62.7876377  36.8120003  74.3942690  62.1267986  37.7430987  73.1411457
  62.6973152  38.8828087  74.8069906  62.3625422  40.1583481  74.3979931
  63.0580807  41.0162878  75.2078342  62.9200077  42.0847225  75.2839041
  63.6125660  40.4321241  76.2289143  64.0689516  40.9030628  76.9970465
  63.3733845  39.0781403  75.9954262  63.5600185  38.2619286  76.6776085
  59.9535942  36.2187076  74.0469885  60.5062723  35.6934953  73.1120777
  58.7281179  35.8895516  74.4487429  58.3285236  36.3002992  75.2804422
  57.9284811  34.8051620  73.9010286  58.4986258  33.8856888  74.0337324
  56.6103745  34.8048997  74.7528601  56.0786819  35.7555199  74.7112894
  55.6679773  33.6409354  74.3654585  55.1194191  33.8638139  73.4502983
  56.1739016  32.6845264  74.2334604  54.9258804  33.4580994  75.1426125
  57.0157862  34.5136929  76.1235905  57.7473593  33.8921571  76.1140442
  57.5743198  34.9728918  72.3867369  57.2502422  34.0359116  71.6818380
  57.6412678  36.1906457  71.7700148  57.8046131  37.0089269  72.3390818
  57.5911713  36.4347458  70.2714491  56.5669823  36.1844301  69.9949026
  57.6441574  37.9514551  70.0692511  57.4196243  38.0949497  69.0123224
  56.8650579  38.4639740  70.6335497  58.9611483  38.6300206  70.3845119
  59.0530491  39.2899871  71.6411066  58.1418800  39.3219709  72.2200298
  60.1827765  39.9719834  72.0309114  60.1604605  40.4146099  73.0157948
  61.2712669  40.0804853  71.1311388  62.3935461  40.6894970  71.5038729
  62.5035715  40.5469656  72.4468374  61.1856937  39.5073533  69.8729992
  62.0024729  39.6829152  69.1885567  60.0145817  38.7422848  69.4606972
  59.9189758  38.4661102  68.4209919  58.5978079  35.6288075  69.4757366
  58.3060789  35.2385449  68.3018017  59.7463226  35.2758622  70.0286436
  59.9805450  35.7260942  70.9018707  60.7105350  34.3827581  69.3482685
  60.8903074  34.6860766  68.3168697  62.1097517  34.4307780  70.1471758
  61.9646263  34.2670846  71.2149954  62.7778339  33.6177421  69.8630333
  62.8854895  35.7470632  69.9635506  62.3504019  36.6452694  70.2717829
  64.0745878  35.9404325  70.9772539  63.7298059  36.2584496  71.9611740
  64.6066332  35.0042319  71.1462784  64.7197676  36.7616606  70.6651163
  63.3996916  35.9453082  68.5874844  63.9551306  36.8825865  68.6206675
  64.1477537  35.1898742  68.3470249  62.6053905  36.0602450  67.8499365
  60.2399635  32.9370952  69.3823433  60.8389902  32.0076466  68.7212944
  59.2093468  32.6921654  70.2075386  58.8473225  33.4929085  70.7053852
  58.8055658  31.3913369  70.6924248  57.7905703  31.1462140  70.3796911
  59.4143200  30.6440043  70.1834965  59.0872908  31.2115145  72.1437025
  59.8189831  31.9556594  72.7936697  58.3301687  30.3212190  72.7604437
  57.5384188  29.9862909  72.2302914  58.6122656  29.6660519  74.0343380
  58.4049749  30.2432132  74.9354601  57.5994492  28.4593797  74.0479612
  57.6331997  27.9288125  74.9995136  56.5935802  28.8747954  73.9866734
  57.7909517  27.8676867  73.1527901  60.0757074  29.1062474  74.2297125
  60.8929682  29.0781999  73.2938242  60.4569244  28.7367582  75.4739809
  59.8261881  28.9754987  76.2258291  61.7075777  28.1727505  75.9010410
  62.2731733  28.0989218  74.9721909  62.3155499  29.1094494  76.9044113
  61.6340590  29.0316892  77.7515411  63.3459711  28.7778354  77.0323133
  62.3871374  30.5684972  76.3730288  63.1350374  30.9127402  75.3887367
  61.5825605  31.4262247  76.8717289  61.5201616  26.7224598  76.4059448
  60.5576038  26.3448048  76.9993305  62.6012564  25.9319544  76.2053156
  63.3097696  26.1629105  75.5235720  62.7157068  24.5634007  76.7061567
  62.1605206  24.4888306  77.6411963  62.0370436  23.6189651  75.7053947
  60.9641361  23.8029051  75.6493807  62.4170065  23.9580584  74.7416830
  62.2521925  22.0842195  75.9981203  63.2747221  21.9042683  75.6662321
  62.1582127  21.8087387  77.0485401  61.0697699  20.9053564  75.2662802
  61.6831827  19.3588305  75.9517384  61.7400122  19.3132174  77.0393038
  60.9894371  18.5511541  75.7183409  62.6004028  18.9816236  75.4994965
  64.2017984  24.2483473  76.9008064  65.0109768  24.4528461  75.9629059
  64.5498705  23.5215449  77.9546309  63.7775183  23.3676934  78.5870075
  65.8818531  22.9295635  78.2184696  65.8874369  22.5119472  79.2252827
  66.1473417  21.8055534  77.1862650  66.0698462  22.1501231  76.1550713
  67.1804333  21.4838195  77.3178625  65.1916313  20.6127024  77.4831963
  64.2996740  21.0647035  77.9170227  64.7944784  20.1583815  76.5754700
  65.7768583  19.3917727  78.3435917  65.0756264  19.0470397  79.3425560
  66.9231367  18.8763165  78.1642389  67.0116901  24.0379548  78.2133341
  68.0888605  23.9496946  77.6196623  66.6837549  25.1563931  78.8274097
  65.8055925  25.2395582  79.3193579  67.5941753  26.3060570  78.9909124
  67.8836441  26.7370629  78.0325031  66.7572927  27.3873425  79.6838570
  66.7070961  27.0695400  80.7252884  67.1436787  28.4052396  79.6319485
  65.2959251  27.6403213  79.1858053  65.0448465  28.6982369  79.2624521
  65.2218151  27.3896694  78.1276083  64.1719389  26.9901943  80.0386333
  64.3455362  25.8463645  80.4868126  63.1627846  27.7026439  80.3088856
  68.8671017  25.9920621  79.7543478  68.8427877  25.1665711  80.6942654
  70.0251818  26.4903426  79.2680693  69.9876785  27.0784068  78.4477806
  71.2881947  25.7755566  79.4124460  71.1075211  24.7031260  79.3392849
  72.2574472  26.1652923  78.2620144  72.4260426  27.2256804  78.4497738
  73.2009220  25.6646395  78.4795141  71.8697834  25.8228326  76.8275595
  71.5703726  26.8643904  75.9449768  71.3297272  27.8285241  76.3679790
  71.6789055  26.6417289  74.5931911  71.5141821  27.4771357  73.9288378
  71.9208813  25.3312874  74.1342020  71.9938850  25.2436781  73.0602407
  72.0102072  24.2050672  74.9632740  72.1921539  23.1979990  74.6181488
  72.0452976  24.4545960  76.4468813  72.3412323  23.7174129  77.1785831
  71.8882513  25.8788681  80.7972908  71.7879248  26.8601561  81.5250969
  72.7055597  24.8409414  81.1486816  72.7768135  24.0404701  80.5369091
  73.1692076  24.7348809  82.5004101  72.4455547  25.1264930  83.2153034
  73.2128096  23.2082629  82.8273106  72.2435617  22.8065705  82.5318336
  73.8197660  22.6754951  82.0952797  73.4151411  22.7936220  84.2581272
  72.7349854  23.3302784  85.3625870  73.2098627  22.6983261  86.4159203
  72.8224564  22.9465938  87.3929977  74.0654898  21.8203020  86.0533047
  74.5320320  21.2071013  86.7063236  74.2489290  21.7617846  84.6953964
  74.9852228  21.1651373  84.1774273  74.5359087  25.5014086  82.6387882
  75.0919008  25.8372307  81.6118622  75.0760460  25.6020474  83.8461304
  74.4370413  25.4453969  84.6124458  76.3886404  26.2857413  84.1523647
  76.5385008  26.1827374  85.2270889  77.0896864  25.7003450  83.5574341
  76.3816071  27.8281903  83.8038254  75.3437710  28.3260846  83.3914185
  77.4913645  28.4646392  83.9503670  78.2916212  27.9787159  84.3292809
  77.8150415  29.8516440  83.6416245  77.2952175  30.2122092  82.7540016
  77.2630596  30.7563734  84.7561646  77.3187351  31.7809105  84.3883038
  76.2170839  30.5359316  84.9693394  77.8781080  30.6128573  86.1737347
  77.8022242  29.5913887  86.5464878  78.9390564  30.8397937  86.0689259
  77.2612619  31.6065979  87.1093559  77.7745533  31.5646482  88.0700207
  77.3297977  32.5467396  86.5620518  75.8484173  31.3200903  87.3375893
  75.6575298  30.3522444  87.5542545  74.8161602  32.2023797  87.2975731
  73.6161995  31.8983102  87.6381969  73.3270645  30.9407067  87.7778435
  72.9491329  32.6562595  87.6131344  75.0773430  33.4329486  86.9096184
  75.9984684  33.8300824  86.7916679  74.4072342  34.1852355  86.9812298
  79.2568398  30.0584388  83.4123325  80.0129986  29.2064977  83.8362598
  79.5451403  31.0750008  82.6729393  78.7560225  31.6515398  82.4179935
  80.8078861  31.2981176  81.9569588  81.5443897  30.5934548  82.3431206
  80.6512642  31.2485838  80.4664040  79.7256088  31.7945266  80.2841854
  82.0172977  31.6112041  79.7849226  82.7830601  31.1638856  80.4186440
  82.0015907  31.3170552  78.7354755  82.0762539  32.6987934  79.8269701
  80.4560852  29.9565601  80.1104450  80.0282669  30.0528193  79.2564487
  81.2863064  32.7054262  82.3756504  80.7034779  33.8039207  82.1846771
  82.4518871  32.7115464  83.0320549  82.9787731  31.8525410  83.0998707
  83.1833172  33.9039993  83.3973408  82.7815723  34.7492766  82.8385830
  83.1356335  34.2092633  84.9048615  83.5851955  33.4361362  85.5279732
  83.8184357  35.0418997  85.0739861  81.7315388  34.6873999  85.4352570
  81.0192966  33.9322209  85.1028156  81.6565609  34.7443485  86.9409657
  82.2201061  35.5694342  87.3765659  80.6605148  35.0132728  87.2926331
  81.9070816  33.7798214  87.3825741  81.2701416  36.0556269  84.8314095
  80.3569317  36.4164686  85.3046322  82.0095444  36.8549275  84.7813320
  80.9301758  35.8223271  83.8224030  84.6656609  33.8783455  82.9525375
  85.4210758  33.0953264  83.4985542  85.0792313  34.6546841  81.9815731
  84.5283508  35.4792094  81.7897701  86.4597988  34.7701216  81.6758060
  86.9472790  33.8439155  81.3715076  86.5763474  35.7644153  80.5645561
  86.1176109  36.7208791  80.8152580  87.6134872  36.0944319  80.5051899
  86.1167336  35.2518368  79.2346573  86.9185734  34.4723606  78.4321833
  86.0917759  34.1378641  77.4043417  86.3733101  33.5450745  76.5465879
  84.8782921  34.6843147  77.6001167  84.0833664  34.3932390  77.0492268
  84.8615074  35.3054237  78.8121414  83.9495564  35.5691934  79.3270874
  87.2966576  35.1988149  82.9179001  86.7160797  35.8526659  83.7894535
  88.6110973  34.9136281  83.0003738  89.0412807  34.2826962  82.3393440
  89.4297504  35.4189801  84.0614986  89.1189480  34.9981904  85.0177670
  90.8381748  34.8690248  83.9937496  91.2573338  35.2832556  83.0767822
  91.3672256  35.2363682  84.8731041  90.8060741  33.3400750  83.9525700
  90.0456429  32.7675462  84.8049831  91.4566326  32.6695299  83.0576706
  89.5492744  36.9468045  84.1213703  89.5861435  37.5974274  83.0376244
  89.6103954  37.4862742  85.3415298  89.6141434  36.9565129  86.2014389
  89.7979927  38.9244080  85.4147816  88.9305210  39.3753791  84.9328804
  89.7100067  39.2626858  86.9055176  90.4530525  38.6432981  87.4078560
  90.1473141  40.2548170  87.0175076  88.3537579  39.1847420  87.6181316
  87.3241138  39.1973162  86.9591141  88.4764194  39.0719891  88.8734913
  91.0649490  39.3199325  84.7886848  92.0560074  38.7185645  85.0143433
  90.9588432  40.3684998  84.0016174  90.0200653  40.7379103  83.9532566
  92.0698929  41.0613012  83.3388138  91.5905190  41.7484808  82.6416206
  92.9487419  41.8839645  84.2522526  92.3208237  42.5817585  84.8062420
  93.3840847  41.1882401  84.9695683  93.9725876  42.7578068  83.6079597
  93.7391186  43.2328749  82.4704075  94.9575424  43.0559969  84.2951488
  92.7416706  40.0658846  82.4163055  93.9362049  40.0081873  82.1904278
  91.8835068  39.3045211  81.7571640  90.9332466  39.4382620  82.0721817
  92.2181892  38.4297323  80.6007290  93.2856274  38.2356882  80.7056999
  91.3687706  37.2497034  80.7275581  91.6293526  36.8761277  81.7178249
  90.2972126  37.4488974  80.7144833  91.6783333  36.3032842  79.7110891
  92.6201630  36.1430168  79.8052692  92.0511436  39.1454339  79.1913128
  91.1209011  39.8506522  78.8926792  93.1304359  38.9699984  78.3574057
  93.7704849  38.2480001  78.6560059  93.0769062  39.3395138  76.9278002
  92.5380611  40.2770090  76.7905283  94.4882202  39.3957758  76.3644028
  94.8582840  38.4203100  76.6800308  94.5194817  39.4105744  74.7862148
  94.0505219  40.3476906  74.4862318  95.5327702  39.5175958  74.3990612
  94.1371346  38.4876418  74.3501997  95.3117180  40.5343676  76.9861507
  95.1964188  41.4846373  76.4648151  95.0623989  40.5188084  78.0471373
  96.8043041  40.1865005  76.8811560  97.3672199  40.7065296  77.6562691
  96.8804646  39.1002107  76.9288826  97.1985531  40.3990459  75.8874273
  92.3118591  38.2097626  76.2173176  92.6095867  37.0081472  76.3994360
  91.3490391  38.5933208  75.4418325  91.0876846  39.5636201  75.3402853
  90.4968834  37.5365758  74.8295784  91.0285759  36.5887332  74.9132395
  89.1626835  37.4624109  75.5724716  88.7354660  38.4303451  75.8345699
  88.4111595  36.8805575  75.0388384  89.3316746  36.6866279  76.8856907
  89.9351788  37.2568798  77.5918722  88.3499146  36.5061426  77.3234940
  89.8569107  35.2146125  76.7433310  89.3089199  34.4936442  75.8640289
  90.8064747  34.8100567  77.5210381  91.1569881  33.8679743  77.4224424
  91.2489128  35.4792213  78.1346846  90.1749516  37.8649688  73.4432268
  90.1639557  39.0188932  73.0686665  89.8815441  36.8707538  72.5538397
  89.8754215  35.9495091  72.9678106  89.3612480  37.0333838  71.2179089
  89.1275406  38.0887532  71.0776043  90.3590393  36.5495133  70.1344204
  90.3472042  35.4601216  70.1688194  89.9182701  36.9089222  68.6707401
  90.0581646  37.9866552  68.5869408  90.5461693  36.4162755  67.9283524
  88.8465405  36.7568755  68.5427094  91.8309975  36.8921161  70.4024029
  92.5261879  36.3134527  69.7941542  92.0218277  37.9094791  70.0608349
  92.1233654  36.9141579  71.4522362  88.0355835  36.3101983  71.0553503
  87.9794598  35.0829482  71.2589073  86.9638824  36.9787788  70.7179785
  87.0245075  37.9869533  70.7150936  85.6022453  36.5217996  70.8926678
  85.5452633  35.4417276  70.7573891  85.0114441  36.8301797  72.2584200
  84.8318577  37.8962946  72.1196795  83.5636520  36.3005614  72.3864746
  83.5216522  35.2130795  72.3254967  83.0348587  36.4812279  73.3223438
  82.8950024  36.7010617  71.6244984  85.8797359  36.6200662  73.4596395
  86.3107872  35.6223607  73.5425949  86.7440605  37.2835016  73.4293842
  85.2127552  36.8649292  74.8120165  84.3706703  36.2324357  75.0929976
  85.9998035  36.8186522  75.5646896  84.8037624  37.8697968  74.7067976
  84.7503853  37.0400071  69.7042084  84.8552322  38.2143092  69.3527317
  83.8972092  36.1712170  69.0986681  83.9392185  34.6841502  69.2046022
  83.5013008  34.3103671  70.1301384  84.9370670  34.2458749  69.1867018
  83.0863190  34.1139698  68.0421638  82.5959492  33.2019329  68.3825159
  83.7187195  33.9547825  67.1687698  82.1020603  35.2264190  67.8306007
  81.3718033  35.1674175  68.6376572  81.5824032  35.1279116  66.8775225
  82.9186821  36.4956880  68.0842257  83.4551048  36.8483853  67.2033453
  82.0690536  37.6980639  68.4038019  81.4708424  37.8231502  69.4949198
  81.7405415  38.5693884  67.3980331  82.1548557  38.3488464  66.5037107
  80.7223892  39.6785879  67.4426603  80.4195213  39.8109460  68.4813404
  81.2848186  40.9944248  66.9595432  81.5720749  40.8997011  65.9123516
  80.3090382  42.1682310  67.0606804  80.8028603  43.0137873  66.5818357
  79.3912792  41.9549465  66.5126657  80.0355721  42.2469521  68.1128788
  82.5537491  41.3193655  67.7269173  82.8621197  42.3451471  67.5249767
  82.2559357  41.0683203  68.7449503  83.3501911  40.6375551  67.4287319
  79.5681238  39.3308473  66.5427017  79.5997429  39.3946695  65.2840996
  78.5177422  38.8934040  67.2700310  78.5917711  38.8213468  68.2747316
  77.3232555  38.5414314  66.4998627  77.6999235  37.8688002  65.7292843
  76.3767338  37.7176881  67.4145317  76.0153055  38.5046959  68.0764151
  75.4759455  37.3541975  66.9199991  76.9949675  36.5557933  68.2999468
  77.5576639  37.0439577  69.0956688  75.7809258  35.8381009  68.9139366
  76.1290646  34.8684597  69.2698669  75.3349113  36.3360667  69.7748661
  75.0154495  35.6730795  68.1557035  77.7541971  35.5225110  67.5095510
  77.1138573  35.0429940  66.7691946  78.6615038  35.9570742  67.0899630
  78.1996822  34.7131801  68.0880213  76.7004633  39.7873664  65.7636166
  76.4769506  40.7717419  66.4920187  76.3277960  39.7434568  64.4592237
  76.6818857  38.6452246  63.5204744  76.3330746  37.6723313  63.8667631
  77.7121401  38.5951734  63.1680918  75.9617424  39.0609527  62.1835613
  74.9351788  38.7067604  62.2774839  76.5187216  38.5649443  61.3886690
  76.1180067  40.5725145  62.2095919  75.2974272  41.0294294  61.6564369
  77.1394920  40.7738161  61.8868637  75.9589958  40.9351444  63.7205505
  76.5554857  41.8331957  63.8811970  74.5202589  41.4037657  64.0265083
  74.2833233  42.5797176  63.7116528  73.6464882  40.6040478  64.6482134
  73.9436150  39.6571374  64.8357677  72.1709394  41.0024309  64.7471046
  72.0692730  41.8873692  64.1188860  71.2756157  39.8183894  64.3595886
  71.2529135  39.0620732  65.1441717  70.2479839  40.1817560  64.3662977
  71.5141821  39.3188524  62.8402424  72.3046160  38.5699105  62.8892612
  70.6557131  38.7638354  62.4619675  71.9099808  40.3819561  61.7675400
  71.1824036  41.3515711  61.5506506  72.9615927  40.1401711  61.0525179
  73.1484365  40.7997751  60.3108263  73.4114552  39.2362452  61.0272074
  71.8577814  41.5783787  66.1148739  71.1192894  40.9277439  66.8018389
  72.5868750  42.6831484  66.4677763  73.2725000  43.0908060  65.8482313
  72.7281380  43.4180784  67.7724171  71.7420435  43.7789202  68.0648422
  73.0732965  42.4794292  68.9524269  72.1320391  42.0471573  69.2919493
  74.1830492  41.4736986  68.8250732  75.1220274  41.9062424  68.4796238
  74.3533421  40.8996058  69.7358513  73.8760185  40.8032179  68.0223942
  73.5874844  43.2463217  70.1968527  72.8111124  43.9594030  70.4740906
  73.8117599  42.6583624  71.0868549  74.5513344  43.7490034  70.1167774
  73.6064672  44.6735477  67.7026796  74.8146772  44.5312405  67.5978565
  72.9594946  45.8490515  67.6286936  71.9534254  45.8073950  67.5500011
  73.4612179  47.1792316  67.8069973  74.5298672  47.0768404  67.9957342
  73.2843018  48.1212187  66.5672922  72.2342300  48.0079031  66.2978315
  73.3878040  49.1845036  66.7836666  74.2432547  47.7144051  65.4598618
  75.2759838  47.8394079  65.7853603  74.0360451  46.6687346  65.2323961
  74.0105772  48.5417509  63.8463211  72.3110771  48.1865358  63.4116220
  72.0227385  48.6705017  62.4784803  72.2100973  47.1112299  63.2646036
  71.6455698  48.4977913  64.2168045  72.8428078  47.8512478  69.1181183
  71.6394615  48.1882048  69.0874720  73.5321856  47.8103876  70.2633619
  74.4298649  47.3520088  70.3278589  73.1361294  48.4548521  71.4960575
  72.7050352  49.4050598  71.1808300  72.0417929  47.6313305  72.2916889
  71.7284536  48.0849934  73.2319593  71.1439610  47.6384926  71.6736650
  72.5841236  46.2714100  72.6011467  72.7860069  45.7299376  71.6769457
  73.5498953  46.3768101  73.0953836  71.6228390  45.2075911  73.5538483
  71.2631989  46.2403011  75.0425196  72.1540737  46.7231607  75.4441357
  70.4181147  46.8992567  74.8432398  70.9522200  45.5171156  75.7964373
  74.3409014  48.7160826  72.4003267  75.4469776  48.2236195  72.2258902
  74.1522217  49.4312239  73.5125971  73.3279467  50.0145483  73.5327482
  75.0396347  49.6457243  74.6279860  76.0393715  49.2992306  74.3661261
  75.1827049  51.1175537  75.1095247  74.2686272  51.6266918  75.4150438
  76.2452030  51.2660885  76.1858749  75.8142233  50.6984711  77.0105982
  77.1774578  50.8682585  75.7849646  76.3483858  52.3073292  76.4912748
  75.7825518  51.8586445  73.8666821  76.6292477  51.3013983  73.4658241
  75.0165939  51.8295956  73.0917215  76.1757612  53.3512020  74.0623713
  77.0117903  53.5595226  74.7300243  76.4671659  53.6911440  73.0685806
  75.2831888  53.8956738  74.3705559  74.5692348  48.6946630  75.6967497
  73.6152840  49.0051889  76.4664459  75.2151632  47.4856901  75.8084106
  76.0391235  47.3141623  75.2500439  74.8571157  46.3413382  76.7053318
  73.8293266  46.5295458  77.0157146  75.0278521  44.9362421  76.0098267
  74.5809460  44.8794699  75.0172758  76.0979557  44.9148130  75.8035946
  74.6067524  43.7300014  76.8845081  75.2331829  43.7387848  77.7764750
  73.0931902  43.6723375  77.1420240  72.7995110  44.6381569  77.5531673
  72.5462437  43.5449219  76.2078285  72.9353714  42.8799057  77.8736305
  75.0226545  42.4429274  76.2079763  76.1059856  42.3348522  76.1549330
  74.6165085  41.5715456  76.7216349  74.6972513  42.5521994  75.1734400
  75.6894588  46.3597870  78.0792809  76.9026899  46.6224718  78.0525589
  75.0131130  46.0502625  79.1521215  74.0433788  45.7701683  79.1165066
  75.5362606  46.2687540  80.5241966  76.5976906  46.5165615  80.5163574
  74.6436977  47.4161673  81.1053467  73.6537266  47.0294714  81.3472652
  75.0890493  48.0932045  82.3886108  75.8170319  48.8720751  82.1616268
  74.2429590  48.6142874  82.8366184  75.5990791  47.3937321  83.0509663
  74.3341112  48.6051941  80.1187611  75.3032446  49.0472317  79.8875046
  73.8085794  48.2850504  79.2190790  73.7842464  49.3232250  80.7271862
  75.3925800  44.9537277  81.3237286  74.3377495  44.3037224  81.0991383
  76.4114428  44.5862198  82.1758652  77.7038527  45.1997375  82.3370934
  77.6828909  46.0818958  82.9769897  78.1496048  45.4756832  81.3814545
  78.6022091  44.1902637  83.1016731  79.4434929  44.6143532  83.6498451
  79.0814304  43.5476160  82.3631287  77.6216745  43.3503103  83.8932323
  77.3831081  44.0052795  84.7312069  78.0686092  42.3893070  84.1478348
  76.3872051  43.3249092  82.9736233  76.4566898  42.5038862  82.2600460
  75.1359320  43.1407261  83.8415432  74.8218775  43.9482927  84.6988678
  74.3397999  42.1104860  83.5644531  74.7670841  41.3796806  83.0135822
  73.0415154  41.7592144  84.0628052  72.9379463  40.7068968  84.3273830
  72.8055811  42.2881222  84.9862194  71.8206358  41.8918991  83.1227970
  70.8452892  41.1289454  83.2090282  71.9639730  42.7031517  82.0433712
  72.8143311  43.2366896  81.9323158  70.8187103  42.9411650  81.1406612
  69.9492931  43.2117414  81.7398357  71.0934687  44.2774630  80.4545689
  71.1556196  44.9843502  81.2819386  71.9588566  44.1454268  79.8051310
  69.9358797  44.7606087  79.5661211  69.8120308  44.3657684  78.5577297
  69.0288019  44.4622087  80.0917339  69.8423767  46.2804794  79.4485188
  70.8430815  47.0106792  79.3058681  68.6039162  46.8224573  79.5787764
  68.4969854  47.7893591  79.8503733  67.8460550  46.1608887  79.6686268
  70.4936028  41.8201542  80.0497341  71.4843798  41.2049770  79.4765091
  69.2159605  41.5380764  79.9670839  68.5395575  42.0793867  80.4862785
  68.6590910  40.5404520  79.0738916  69.2463112  39.6235299  79.1242218
  67.2566223  40.2661896  79.4273996  66.7361879  41.2237883  79.4109774
  66.4832306  39.3104029  78.4564495  65.4727554  39.0971255  78.8050842
  66.3077974  39.8423600  77.5213814  67.0249748  38.4053636  78.1816387
  67.2426605  39.6695662  80.7031727  66.9854212  40.3628922  81.3153172
  68.7441206  40.9692764  77.5520468  68.4707975  42.1163702  77.1622992
  69.0822601  39.9839354  76.7157841  69.2102003  39.0777898  77.1431351
  69.4197178  40.1242781  75.2588367  69.0443659  41.1100864  74.9842501
  71.0019636  40.2180481  74.9887705  71.4222145  41.1003494  75.4715061
  71.5674639  39.3792939  75.3947258  71.3796425  40.1897621  73.4909391
  71.2581396  39.1429377  73.2125568  70.5590391  41.2472630  72.7314901
  70.9748125  41.4610052  71.7468357  69.4904089  41.0486364  72.6497507
  70.6794500  42.2036076  73.2404184  72.8509521  40.4808903  73.1238985
  73.4465599  39.9308109  73.8524342  73.0385542  40.1778507  72.0938110
  72.9939747  41.5475893  73.2965183  68.7975836  39.0215230  74.3246555
  69.3854427  37.9321647  74.2364645  67.6931334  39.3588948  73.6322832
  67.0275068  40.6882811  73.7235403  67.6993370  41.5110159  73.4788895
  66.7049408  40.7453012  74.7631550  65.8032036  40.6381845  72.8676939
  65.9627342  41.2402153  71.9731474  64.8769188  40.8618641  73.3969021
  65.6760836  39.1189170  72.5156832  65.1611376  38.9423060  71.5713644
  65.2028561  38.6110020  73.3560276  67.0742130  38.5491610  72.6035833
  67.1384382  37.5052333  72.9104948  67.8001261  38.7114382  71.2442446
  68.3280325  39.7742701  70.9260511  67.7366114  37.7097535  70.3882885
  67.2386694  36.8929410  70.7122850  68.4906244  37.5505853  69.1571712
  68.6733484  38.5570860  68.7807846  69.8306417  36.9520211  69.4294262
  69.6515179  36.0825801  70.0619507  70.2684641  36.6283202  68.4851646
  70.9534025  37.8590417  70.0758553  70.5737734  38.2192254  71.0320187
  72.2347450  37.0804739  70.3032446  72.5731754  36.6264510  69.3718863
  73.0356598  37.7659035  70.5804205  72.1153259  36.3659596  71.1176825
  71.3385105  39.1259789  69.2322254  71.7874861  39.8296404  69.9332047
  71.8733501  38.9806318  68.2936525  70.4596281  39.6970534  68.9329767
  67.7523232  36.6855407  68.1769323  67.1736097  35.6916761  68.4995413
  67.8796434  37.0855093  66.8712997  68.4440756  37.9106522  66.7275763
  67.6027012  36.1826396  65.6911993  67.8528357  35.2433300  66.1843824
  66.0811377  36.1519790  65.3897047  65.9193945  35.6223011  64.4508886
  65.6277895  35.5150867  66.1492729  65.3006411  37.5358987  65.1619101
  65.5827522  38.1292272  66.0316658  65.5195570  38.0772042  64.2414904
  63.7796640  37.3198557  65.3155899  63.2898951  36.2233305  65.5238819
  62.9927063  38.3786345  65.1751089  62.0010471  38.2300901  65.2961588
  63.3434916  39.3087697  64.9965096  68.4601212  36.3979483  64.4892931
  69.0272427  37.4885488  64.2338276  68.8646841  35.3061199  63.8603163
  68.4033918  34.4151735  63.9766264  69.9942112  35.2245903  62.8247547
  70.1760054  36.2269974  62.4371576  71.3581371  34.8416448  63.4916306
  71.3838911  33.8405395  63.9220095  72.0924759  34.7616911  62.6900911
  71.8997526  35.7965207  64.5573902  71.5510511  36.8086267  64.3520880
  71.5356779  35.3142166  65.9929276  71.8327427  34.2800307  66.1670303
  71.9705343  35.9584236  66.7571259  70.4556227  35.2994609  66.1390877
  73.3649445  35.8055997  64.4840717  73.8589478  36.1640835  63.5809898
  73.7087297  36.4458990  65.2964354  73.7314701  34.8325372  64.8110437
  69.7479439  34.2274952  61.6258001  69.0988302  33.2145643  61.8033361
  70.2468014  34.6561098  60.4240370  70.9934998  35.3356099  60.4528284
  69.7061539  34.2190170  59.1047716  69.1020679  33.3171129  59.2034817
  68.7988091  35.3780603  58.6400032  69.3457747  36.2529707  58.2886314
  68.2919025  35.0420308  57.7354383  67.7098179  35.8792543  59.6492577
  67.9279852  36.9634676  60.4956579  68.8961983  37.4326324  60.5897713
  66.8886566  37.4292970  61.2927198  67.0510340  38.1729698  62.0588732
  65.5974340  36.8979716  61.1361551  64.7662401  37.2427797  61.7333364
  65.4182243  35.8598566  60.2341938  64.4219971  35.4473019  60.1730108
  66.4496231  35.3106022  59.5332623  66.2708616  34.5824051  58.7559700
  70.6937790  33.8033056  58.0733824  70.4770851  32.7978396  57.4160814
  71.8887424  34.4214082  57.9891205  71.9957638  35.2720666  58.5230017
  73.0216599  33.9847565  57.1976423  72.5608063  34.0820765  56.2146664
  74.1115618  35.0944924  57.1960878  73.6073208  36.0605931  57.1739531
  74.7169018  35.0601721  58.1018925  75.0549603  35.0109243  56.0321617
  76.2791443  34.3257618  56.0527611  76.8602991  34.4981527  54.8491287
  77.9132366  34.3882394  54.6354866  76.0480976  35.1231909  54.0237951
  76.3349104  35.5564690  53.1577015  74.8795080  35.4407358  54.7434425
  73.9975119  35.9173369  54.3417788  73.5630226  32.6141548  57.5827456
  73.6826277  32.3867369  58.7801743  74.0163755  31.7563105  56.6434193
  73.8590956  31.8530703  55.2031183  74.6983957  32.4704409  54.8829174
  72.9556751  32.3501801  54.8498344  73.8982201  30.4151201  54.7272301
  74.2397785  30.4696417  53.6935663  72.8933096  30.0044489  54.8252678
  74.8651028  29.6320796  55.6048536  75.8696079  29.8877621  55.2676535
  74.7743750  28.5496593  55.5141115  74.5006943  30.3243256  56.9566584
  73.6412859  29.7787619  57.3463678  75.5303669  30.2455807  58.0592680
  75.5376101  29.3409276  58.8801384  76.4715052  31.1717916  57.8888178
  76.4372206  31.7303562  57.0480251  77.6980162  31.4028025  58.6620331
  78.3160353  30.5059624  58.6191988  78.5491753  32.4433160  57.8896856
  77.9374599  33.3439112  57.8364134  79.4019556  32.6688647  58.5299873
  79.0128565  31.9814539  56.5301132  78.2102680  31.7004895  55.8481979
  79.4984484  32.8318405  56.0514259  80.0659084  30.9124494  56.6185713
  79.7476578  29.7298408  56.4896631  81.2603664  31.2654400  56.8723059
  81.8155766  30.4393554  57.0438480  81.5886116  32.2002697  57.0683861
  77.4215221  31.9772935  60.0179005  78.1060743  31.5978241  60.9790659
  76.3216066  32.7075124  60.1889801  75.7323408  32.7043557  59.3687010
  75.7432365  33.1730056  61.4581442  76.5637732  33.6187220  62.0204258
  74.6373987  34.2287827  61.3078690  73.8245201  33.8993430  60.6607151
  74.3421412  34.2935133  62.3551178  75.0260162  35.6040072  60.7497454
  75.5915022  36.0878658  61.5461206  75.6850529  35.4671144  59.8924065
  73.8133955  36.5083551  60.3560734  72.6392508  36.0275197  60.3118181
  74.0486765  37.7204156  60.1368856  75.1898718  31.9686675  62.2769308
  75.6227636  31.6420436  63.3575249  74.2617512  31.2513518  61.6696405
  73.9817858  31.5746140  60.7546377  73.6341906  30.0156832  62.2383690
  73.0748081  30.2782536  63.1362820  72.7589512  29.2875242  61.1786842
  73.3183956  29.2427111  60.2442741  72.2599649  27.8523636  61.5258884
  71.8078995  27.8458595  62.5177002  71.3568783  27.5598741  60.9901762
  72.9630661  27.0349979  61.3656950  71.5894318  30.3085637  60.8544064
  70.9919786  30.6273484  61.7085314  71.8367147  31.1975193  60.2741432
  70.8212233  29.8344827  60.2435017  74.7473049  28.9825964  62.6793480
  74.8139572  28.3360863  63.7190104  75.6727839  28.7516022  61.7793274
  75.6758022  29.1123796  60.8359623  76.7707920  27.7938557  62.0612335
  76.3340807  26.8652153  62.4286795  77.7018166  27.4667287  60.8440208
  78.1325912  28.3166361  60.3146887  78.4889269  26.7818117  61.1593628
  76.9563532  26.8003988  59.8308325  76.5366793  27.4867797  59.3070412
  77.6577139  28.2870269  63.2216215  77.8247929  27.5384402  64.1647625
  78.0347347  29.6072674  63.2100344  77.7344084  30.2312613  62.4748278
  78.6541510  30.2538371  64.3515968  79.5645189  29.6727252  64.4987249
  79.1929293  31.6543174  63.9493227  79.7581291  31.5532351  63.0228043
  78.3231068  32.2181559  63.6122751  79.9328899  32.3864341  65.0877047
  79.8386240  33.4662580  64.9728298  79.3979502  32.2146249  66.0217381
  81.7090893  32.2672963  65.2987909  81.7801380  31.0424376  66.6763067
  81.2974453  30.0948024  66.4373541  82.8194332  30.9644008  66.9954824
  81.2885475  31.5032125  67.5331211  77.8670645  30.1642203  65.6909990
  78.4628201  29.8338127  66.7335558  76.5466452  30.4421496  65.7535315
  76.1041403  30.7387137  64.8954296  75.6892109  30.1559520  66.8732738
  76.1403704  30.8239937  67.6069498  74.2788219  30.7048249  66.5224218
  73.9858532  30.2515864  65.5753994  73.3847332  30.5073261  67.7096367
  72.4643898  31.0595989  67.5197315  72.9829788  29.5034957  67.8475618
  73.8154697  30.8551335  68.6485672  74.3811893  32.2491503  66.5001011
  74.6720791  32.7782369  67.4075985  75.0447941  32.4889827  65.6693125
  73.4035683  32.6962185  66.3198423  75.7992315  28.7355447  67.4592447
  76.1136246  28.4951782  68.6256981  75.5328035  27.7538037  66.5976572
  75.2679062  28.0247140  65.6614208  75.7665205  26.3332629  66.9936895
  75.1911068  26.1348867  67.8979301  75.3957224  25.3325462  65.8626842
  75.9877634  25.4148936  64.9512005  75.6080437  24.3014526  66.1452818
  73.8913679  25.4682231  65.5152082  73.4112597  25.2812743  66.4757538
  73.6715460  26.4632392  65.1282787  73.4336090  24.2527318  64.6120787
  73.9982796  24.3210173  63.6822510  73.7291241  23.3568931  65.1582050
  71.9770193  24.2267323  64.3971491  71.3636541  24.1654372  65.1972294
  71.3941050  24.1845536  63.2336140  72.0107079  24.4044423  62.0777702
  72.9782391  24.6937084  62.0600510  71.5187788  24.4416952  61.1964560
  70.1396799  23.9580774  63.1345129  69.5233965  23.7489486  63.9068842
  69.7781706  23.8645172  62.1960783  77.1655512  26.0327172  67.4619007
  77.2221613  25.4602432  68.5441446  78.2018423  26.4440513  66.7826939
  78.1691599  27.0064688  65.9444094  79.5208931  26.2869143  67.4302435
  79.6819830  25.2403855  67.6889610  80.6235695  26.6592288  66.4107132
  80.5239010  27.6802492  66.0423660  81.5616322  26.5377450  66.9523716
  80.6899548  25.6809545  65.1925516  80.8670902  24.5128059  65.3666735
  80.7702160  26.1618805  63.9950609  80.6267929  25.4036927  63.3433771
  80.6391907  27.1036673  63.6545229  79.7160339  26.9711113  68.8018703
  80.2104092  26.2800026  69.7249556  79.3291616  28.2683253  68.8750362
  78.7837601  28.6248779  68.1033373  79.3482828  29.0858912  70.0765896
  80.3764057  29.3002772  70.3683186  78.7255383  30.4564595  69.7464371
  79.4200230  30.9933376  69.1002512  77.7882767  30.2757025  69.2201614
  78.3100748  31.4694452  70.9091759  77.5157452  31.0422564  71.5212631
  79.5786905  31.8817282  71.7049551  80.3483486  32.3093820  71.0624266
  79.2244482  32.3960567  72.5983095  80.0102043  30.9443641  72.0560122
  77.5812101  32.6918983  70.3509378  76.7134809  32.4098563  69.7546101
  77.2706079  33.3402514  71.1702442  78.2518530  33.2359409  69.6858406
  78.5883379  28.3802462  71.2225485  79.1175222  28.4523678  72.3033237
  77.4759293  27.6330423  70.9672356  77.0708704  27.6912761  70.0438547
  76.6917181  26.9332314  71.9971514  76.7038298  27.5732613  72.8793716
  75.3449678  26.5978360  71.4642811  75.4337978  26.3366270  70.4097795
  74.5737362  25.5621576  72.2521830  74.3748379  25.8800054  73.2756662
  73.7268543  25.3693199  71.5936184  75.0709677  24.5950508  72.3267794
  74.6123648  27.9691958  71.5723896  74.3457079  28.2639575  72.5873327
  75.1206493  28.7764335  71.0450220  73.2778311  27.8329706  70.7929039
  72.8285885  28.8260651  70.7998514  73.5000420  27.5561404  69.7623253
  72.6317787  27.1034455  71.2812757  77.5625420  25.7064652  72.4651384
  77.5178099  25.3743505  73.6526442  78.2571173  25.0491714  71.5649796
  78.1051922  25.2888751  70.5956650  79.1790199  24.0116644  71.8825150
  78.7161064  23.3562255  72.6202250  79.3852186  23.1486297  70.6287003
  79.9468851  23.6699367  69.8535395  80.0325108  22.3358417  70.9580803
  78.1101131  22.4548268  70.0412369  77.6577616  21.9115400  70.8708906
  77.4149179  23.2455969  69.7593021  78.3187151  21.5541410  68.8201809
  79.4012022  21.3679099  68.2772017  77.3350143  21.0624766  68.1632376
  77.5408554  20.5881023  67.2956514  76.4098692  21.3263392  68.4707832
  80.4684448  24.3919253  72.5941849  81.1496925  23.5846400  73.2323694
  80.9127522  25.5786920  72.5705481  80.3924370  26.2209082  71.9900846
  82.0426273  26.0997224  73.3276224  82.7488422  25.3306580  73.6405182
  82.6626778  27.1058512  72.4290895  81.8461800  27.6839590  71.9963884
  83.2498550  27.7307963  73.1019640  83.5292721  26.5889001  71.2380314
  83.8341331  25.4105473  71.1836910  83.7100983  27.4192500  70.2324629
  84.2655659  27.1898794  69.4207144  83.4178925  28.3737659  70.3861427
  81.5514469  26.5752029  74.7091722  81.1064529  25.7427788  75.5044031
  81.4834309  27.8229737  75.0167370  81.9327259  28.4535575  74.3681955
  81.2884140  28.3735561  76.4197779  81.1716175  27.6008773  77.1796608
  82.6194382  29.1264939  76.9159937  82.4994946  29.4038320  77.9632711
  83.4372902  28.4178162  76.7855883  82.9473686  30.4509068  76.1986685
  83.9683628  31.0894513  76.6083622  82.1408749  30.9633064  75.3696537
  80.0050831  29.2876124  76.5187836  79.6813869  29.8833323  77.5470161
  79.2326307  29.3409395  75.4047537  79.5045471  28.7959599  74.5990515
  77.9150295  29.9761891  75.3047657  77.5871658  29.8937821  74.2685127
  76.8230820  29.3002820  76.2269735  77.3061562  29.0010571  77.1571445
  76.0205841  29.9756479  76.5235806  76.1168146  28.0521393  75.7649755
  75.5358362  28.2928729  74.8746920  76.7286301  27.1954870  75.4822636
  75.1142216  27.4104261  76.7497873  74.2319202  28.0453467  76.8304968
  74.8218346  26.4453173  76.3360453  75.6804609  27.2329688  78.0731678
  76.2142467  26.3820791  78.1787872  75.6850672  28.1213880  79.0614080
  75.1778507  29.2842603  78.9921188  74.6817112  29.6695518  78.2012320
  75.2682781  29.8919749  79.7937489  76.0888720  27.8147936  80.2513409
  75.9356594  26.8504930  80.5097008  75.9560728  28.4977555  80.9834766
  78.0021763  31.5153503  75.3430414  76.9876528  32.1586061  75.6326246
  79.1936827  32.1142888  75.0396681  79.9913836  31.5452671  74.7947407
  79.5614004  33.4310675  75.4635048  78.6077976  33.9143395  75.6760931
  80.3868389  33.4269762  76.7263412  81.3023949  32.8409100  76.6464233
  80.7334042  34.8871350  77.2176552  79.8274231  35.4919410  77.2564602
  81.2770748  34.8352122  78.1609678  81.3812256  35.3393006  76.4666700
  79.7147751  32.9520464  77.8648376  79.5246172  32.0297384  77.6783180
  80.2477360  34.2953682  74.4044733  81.2129784  33.8935757  73.7657499
  79.5838118  35.4216647  73.9720154  78.8770008  35.7582307  74.6101761
  79.9502230  36.2340474  72.8462696  80.8821106  35.8537340  72.4278784
  78.7917948  35.9950805  71.7745113  79.0683651  36.5820694  70.8986950
  78.6673164  34.9895382  71.3726521  77.3996735  36.4759326  72.0233583
  76.4512587  35.6819630  72.7062559  76.7384720  34.7111821  73.0824089
  75.1250935  36.1235619  72.8907776  74.4108295  35.4358506  73.3188915
  74.7862673  37.3736143  72.4881315  73.8483000  37.8297281  72.7684307
  75.6617165  38.1310296  71.7658329  75.2583647  39.0836430  71.4556074
  77.0065069  37.7629900  71.6107416  77.7426100  38.4526920  71.2249184
  80.1647186  37.7265382  73.1592894  79.7543287  38.2503581  74.2261457
  80.9290981  38.4451151  72.2076511  81.1123848  37.9499030  71.3466835
  81.2321854  39.9096203  72.3772383  81.3134861  40.2680302  73.4034157
  82.5123692  40.2051163  71.5304565  82.3103714  39.8947382  70.5052853
  82.7370739  41.2714958  71.5091705  83.4576130  39.7949409  71.8859529
  80.0608063  40.6977654  71.8612146  79.6645355  40.4877090  70.7021284
  79.4862175  41.5332603  72.7226543  79.7610664  41.5659380  73.6939907
  78.6569405  42.7276850  72.2570610  78.4984398  42.6046133  71.1856890
  77.2467566  42.7390528  72.9340649  77.3422861  42.7866125  74.0188313
  76.5262985  43.9632368  72.3607683  76.4626455  43.9758253  71.2727022
  75.5085993  44.1590261  72.6985025  77.1437979  44.7964382  72.6962948
  76.3938618  41.5359879  72.5842047  76.8771887  40.6068420  72.8861618
  75.4098558  41.6184711  73.0457640  76.3203859  41.5502882  71.4967775
  79.5361376  43.9289474  72.5813341  79.5796299  44.5099926  73.7558174
  80.2375507  44.4197321  71.6075516  80.0484753  43.8474512  70.7970858
  80.7561302  45.8102512  71.4323807  81.5248871  46.0699940  72.1601439
  81.4172935  45.9272814  70.0256205  80.7025146  45.7264996  69.2275763
  81.5616035  46.9843531  69.8022985  82.6770592  45.1358175  69.7304440
  82.3660278  44.1429663  70.0554228  82.9315758  45.0845909  68.1947613
  82.1426010  44.6024323  67.6175833  83.0169487  46.1299181  67.8979158
  83.8521862  44.5059919  68.1184959  83.9494133  45.5728483  70.4791451
  83.9445114  46.6605616  70.4087257  83.7152672  45.4130650  71.5316391
  84.9024487  45.1576376  70.1513767  79.6796227  46.8906927  71.5292788
  78.6380672  46.8168926  70.9663677  80.0145626  47.8894281  72.3150063
  80.9033394  47.8426504  72.7925014  79.1962481  49.0026474  72.6649094
  78.1292486  48.7828875  72.7012348  79.4518042  49.4936466  74.0793657
  80.5234051  49.5951605  74.2510271  78.9256430  50.4381180  74.2180395
  78.9142752  48.8313341  74.7579718  79.2934513  50.1035690  71.5931797
  80.2378654  50.7946873  71.5890217  78.3978510  50.0864697  70.5829525
  77.5961876  49.4787312  70.6729174  78.3630276  51.0052156  69.4952965
  79.3923903  51.0259342  69.1374111  77.4804974  50.6439018  68.3011055
  76.4583540  50.7284069  68.6701393  77.5820160  51.2486649  67.3999596
  77.7573872  49.1707850  67.8736925  78.7007332  49.0195894  66.8671751
  78.9378452  49.8468685  66.2146521  78.9625549  47.6981115  66.4675236
  79.7921276  47.6287603  65.7794857  78.5023260  46.5438604  67.1204948
  78.9860439  45.3326082  66.7017603  78.4522295  44.6067286  67.0330286
  77.5040770  46.7057133  68.0658340  77.0429182  45.8694696  68.5702372
  77.1427727  48.0526066  68.5022163  76.3140917  48.1095076  69.1924667
  77.9235840  52.4135399  69.9083376  76.8430281  52.5497532  70.4364729
  78.7050819  53.4388971  69.5095778  79.3940592  53.1842232  68.8163567
  78.2700109  54.8109245  69.7573757  77.9322386  54.7637272  70.7926464
  79.4057369  55.7611561  69.8273230  79.0187740  56.6718674  70.2844477
  80.1622677  55.3166771  70.4740047  80.1625729  55.9365034  68.6796618
  81.0282421  56.1097956  69.0567541  77.1016693  55.2608061  68.8913107
  75.9458256  54.7821379  69.0511322  77.3509550  56.1720562  67.8827715
  78.2680750  56.5642881  67.7241850  76.2883854  56.8083096  67.1524954
  75.5232906  57.1434498  67.8527927  76.9504166  58.0515051  66.5084600
  77.8711700  58.4174585  66.9627666  77.3481131  57.7984715  65.5256510
  75.9815741  59.1712427  66.3470030  75.2194262  59.6226978  67.1539402
  76.0900927  59.8497057  65.2759171  75.3848410  60.5685949  65.1989889
  76.5256786  59.5793486  64.4057035  75.5991983  55.8557558  66.0964394
  74.4352484  56.0968304  65.7378817  76.2767792  54.7906542  65.7354927
  77.2839689  54.8303986  65.7994986  75.6888199  53.5911083  65.0502729
  76.2896919  52.7385187  65.3667259  74.2064333  53.1947088  65.4316568
  73.5429716  53.8687038  64.8897552  73.9491844  51.8214464  64.7373152
  74.0798283  51.8199921  63.6551714  74.5932007  50.9966230  65.0422907
  72.9306746  51.4635897  64.8879194  73.8171005  53.1551266  66.9314623
  72.7770424  52.8487110  67.0432568  74.5073414  52.4975920  67.4599648
  73.9581823  54.1254711  67.4075222  75.7983828  53.7834740  63.5631323
  76.0265446  52.7377415  62.9694748  75.6453705  54.9948883  62.9326105
  75.6802464  55.7949781  63.5480261  75.6348324  55.2006769  61.4661407
  74.7759628  54.6746826  61.0492802  75.5087376  56.6888905  61.2420559
  74.6435404  57.0093060  61.8224573  76.3918829  57.1464109  61.6879559
  75.3435707  57.1517134  59.8052263  75.2585936  58.2383633  59.7966528
  76.2186861  56.9352007  59.1925192  74.1484976  56.5221882  59.1868258
  73.1219482  56.2607622  59.7517729  74.1193485  56.2723970  57.9075766
  73.2758284  55.9076786  57.4885893  74.9113226  56.6953087  57.4449396
  76.8483067  54.4673395  60.7281971  76.6125870  53.9130259  59.6691132
  78.0013752  54.5356178  61.3651466  78.0679274  54.8744106  62.3143005
  79.1779518  53.8703632  60.9116745  79.0361643  53.8875866  59.8310709
  80.4088783  54.7852850  61.1155415  80.5818081  55.0052404  62.1690178
  81.3455582  54.3210936  60.8068943  80.3784466  56.1650181  60.4301453
  79.7271824  56.9133711  60.8817244  81.3913918  56.5543079  60.5325890
  80.0595284  56.1592627  58.8778257  79.0871763  56.7744970  58.4036112
  80.8370304  55.4884768  58.1118345  79.3289757  52.2975540  61.2983751
  80.2563381  51.6166592  60.8253336  78.4690285  51.7730999  62.1831989
  77.5961924  52.2164536  62.4315882  78.8152742  50.6947422  63.1770277
  78.1249475  50.6461477  64.0191603  78.8069153  49.2937756  62.6031399
  79.5152473  49.2019796  61.7797661  79.1235209  48.5118008  63.2933426
  77.3856878  48.8611221  62.1954107  76.7134094  49.1831398  62.9906797
  76.9689035  49.3970203  61.3426447  77.2381735  47.3387909  61.9280529
  77.6239395  47.0755434  60.9431744  77.8523445  46.7869520  62.6396465
  75.8111954  46.9547224  61.9680023  75.1416540  47.7103949  61.9959211
  75.2133608  45.7883406  62.0713234  75.8123922  44.6596527  62.3989725
  76.8181515  44.5681953  62.3853540  75.2146959  43.9823103  62.8507042
  73.8771963  45.7591629  62.0128918  73.4655285  46.6103220  61.6577005
  73.5110807  44.8840332  61.6661787  80.1305866  50.9309959  63.8896179
  80.9887409  50.0598717  63.9173269  80.2714634  52.1402740  64.4235897
  79.4944239  52.7843666  64.4617414  81.4477825  52.5975418  65.1439333
  82.3458195  52.0797062  64.8070621  81.7663383  54.1564751  64.9333620
  82.7210903  54.4213629  65.3876495  82.0529747  54.3293858  63.8960409
  80.7319355  55.2307129  65.4512072  80.4653168  54.8357105  66.4315081
  81.2123203  56.2063265  65.5254602  79.5154810  55.4922438  64.4764614
  79.2985439  56.6885328  64.1368341  78.6996841  54.5715094  64.2074347
  81.3192081  52.2604465  66.6438341  80.2489471  52.4650145  67.2532940
  82.3791599  51.7026472  67.3434544  83.2945633  51.6632032  66.9185019
  82.2893238  51.2103081  68.7068367  81.4198303  51.6955328  69.1502714
  82.1004963  49.6709776  68.5645485  81.8226433  49.2032242  69.5090580
  81.3910961  49.3717957  67.7929688  83.1037331  49.3424511  68.2931042
  83.5709190  51.5120602  69.6053839  84.7354412  51.4328957  69.1625166
  83.3640099  51.8378687  70.8778095  82.3881626  51.9056988  71.1292553
  84.4113159  52.3640823  71.7441654  85.3592205  52.1037769  71.2731743
  84.3279743  53.9348745  71.7942858  85.2528763  54.2653322  72.2669983
  84.2809105  54.3803644  70.8005905  83.1770706  54.4294500  72.6244593
  82.2313023  54.0906715  72.2015667  83.2798481  53.8765049  73.5581589
  83.1711674  55.9591293  72.7503157  82.1171665  56.5857553  72.4889898
  84.2184544  56.5697098  72.9350185  84.4282913  51.7818451  73.1313372
  85.3580475  51.9910192  73.8649368  83.4509087  50.8810043  73.3709145
  82.8710270  50.5901957  72.5967979  83.5093021  49.9218130  74.5240736
  84.5336628  49.7607851  74.8600054  83.0257320  50.7203674  75.7946539
  83.2521534  51.7822409  75.6984186  81.9432831  50.5927610  75.8054590
  83.5889626  50.1631975  77.0742369  84.9311543  50.2397013  77.3023081
  85.6013775  50.8335924  76.6985655  85.4815769  49.6058369  78.4653378
  86.5387154  49.7145081  78.6578608  84.6539974  48.9153051  79.3313026
  85.0716209  48.3466148  80.1489735  83.2183647  48.8893223  79.1132212
  82.5887394  48.3252001  79.7853374  82.7259731  49.5532656  77.9725361
  81.6816044  49.4197655  77.7319479  82.7912235  48.5459518  74.2877197
  82.6159286  48.2670259  73.1298494  82.5262070  47.7761269  75.3125715
  82.8442097  48.0918789  76.2177181  81.8033886  46.5048599  75.2787352
  80.7910442  46.7415190  74.9512339  82.2475910  45.8602238  74.5202971
  81.7146301  45.5767870  76.4626122  82.2567654  45.8292913  77.5553274
  80.8837223  44.5110893  76.3706160  80.3488541  44.4621420  75.5152702
  80.3388119  43.5942221  77.3859596  81.1065197  43.5537481  78.1586742
  79.0926647  44.1906214  78.0352402  78.5990667  44.6406269  77.1738720
  78.2413673  43.2554388  78.9607430  78.8104773  43.0002308  79.8546600
  77.3727369  43.8680649  79.2021465  77.9509926  42.3710012  78.3936882
  79.5227814  45.3104305  78.8053608  78.9247656  46.0352516  78.6088657
  80.1321220  42.2399759  76.7489862  79.3992901  42.0989037  75.7654524
  80.7219601  41.1435127  77.2748756  81.3799381  41.3003540  78.0249214
  80.3960609  39.7651577  76.9085836  80.6267834  39.6734357  75.8472395
  81.3147163  38.7294006  77.6239967  80.9321880  37.7242708  77.4465418
  82.7274895  38.7943292  77.0152903  82.7397251  38.7884998  75.9253740
  83.1192112  39.7653627  77.3181915  83.3530807  37.9540491  77.3163891
  81.3594532  38.8734961  78.9677525  81.7362118  38.0721736  79.3386173
  78.8731241  39.3722296  77.2577381  78.3884478  39.8972678  78.2715082
  78.1661987  38.5466051  76.4939880  78.6371946  38.2037139  75.6689501
  76.9106102  37.9902101  76.7454100  76.6434860  38.3564949  77.7366638
  75.8338690  38.6085677  75.7875729  74.9111843  38.0622220  75.9831810
  75.8791113  39.6911931  75.9057856  76.2132263  38.4784436  74.7740316
  76.9197035  36.4901614  76.6820526  77.3700762  35.9907317  75.6787539
  76.3111830  35.8062553  77.6810265  75.9695148  36.3121629  78.4856510
  76.0494614  34.4072318  77.8275824  76.7660618  33.7616014  77.3198938
  76.2270021  34.0186834  79.2363167  77.1504927  34.4829679  79.5823050
  75.3759956  34.3396091  79.8370600  76.3531017  32.5047898  79.4547081
  75.4281092  32.1200871  79.0251780  77.1897602  32.0941377  78.8894892
  76.2910604  32.1149755  80.9462929  75.8236647  30.9616303  81.1414814
  76.5656805  32.9128385  81.8645668  74.6411324  34.0788579  77.3677635
  73.6104727  34.5273495  77.9346418  74.5019054  33.1658053  76.4167070
  75.3773212  32.8464651  76.0271263  73.2421637  32.5224257  76.0066128
  72.4859285  33.3045912  75.9400797  73.4822941  31.8364692  74.6605158
  74.3596745  31.1985731  74.7672367  72.3569393  30.8106375  74.2208099
  72.5001478  30.5465627  73.1730270  72.4173832  29.8974538  74.8128748
  71.3713121  31.2664461  74.3149614  73.7115049  32.8909564  73.5559654
  72.7272654  33.3466125  73.4475899  74.4535208  33.5896707  73.9423704
  74.1517925  32.5322962  72.1648312  73.4577799  31.8072629  71.7396545
  74.0647602  33.4596896  71.5987301  75.1147318  32.0351791  72.2819710
  72.7089214  31.5265465  77.0204830  73.4369946  30.6369686  77.3940134
  71.4592886  31.6466117  77.4060440  70.9340763  32.4125028  77.0089722
  70.7370138  30.7635570  78.2743835  71.3829088  29.9525762  78.6108923
  70.0335073  31.5798736  79.4224930  69.7493219  30.7464647  80.0649643
  70.7229948  32.2701097  79.9085855  68.8018703  32.3705530  79.1514587
  67.4756956  31.8097663  79.1379595  67.3424721  30.7729125  79.4092417
  66.3403511  32.5771570  78.7389374  65.3701019  32.1065664  78.6792421
  66.4635754  33.9349127  78.5608959  65.3429031  34.6207976  78.1351948
  64.5428467  34.0920091  78.1787348  67.7334976  34.5194006  78.5784006
  67.8739405  35.5687785  78.3651400  68.8741493  33.7591863  78.8692808
  69.7924757  34.2878985  79.0779400  69.7129631  30.0055480  77.4944162
  69.2181540  29.0577960  78.0260658  69.5082760  30.2490306  76.1599970
  69.9011946  31.0934496  75.7692623  68.3966017  29.7007227  75.4013634
  68.4587717  28.6233521  75.5546951  67.0195389  30.1968932  75.9294462
  66.9389153  31.2787724  75.8239412  66.2176323  29.8014545  75.3060150
  66.9309950  29.8745751  76.9669294  68.5178280  29.7453427  73.8682890
  69.0153933  30.7282925  73.2943535  68.0074692  28.7063313  73.2249451
  67.5692844  28.0291724  73.8328505  68.0823898  28.4876800  71.7822552
  67.9840517  29.5213675  71.4507151  69.3639612  27.7387738  71.5269613
  70.1956034  28.4199095  71.7072916  69.4537926  26.9389439  72.2620153
  69.5416975  27.1456766  70.1278305  70.4167032  27.8246307  69.2089510
  70.8434486  28.7715602  69.5049524  70.5476665  27.3061943  67.8714275
  71.1228943  27.8361225  67.1266556  69.8998070  26.1188078  67.4848366
  70.1599979  25.6195951  66.2287569  69.4753504  24.9858046  66.0025454
  69.0971041  25.4435539  68.4960508  68.5480404  24.5521927  68.2307005
  68.8748598  25.9313631  69.7810268  68.2365608  25.4113746  70.4800224
  66.8391514  27.7486706  71.2525702  66.3781452  26.7701817  71.8452120
  66.3494921  28.0806875  70.0349045  66.8023872  28.8701916  69.5971060
  65.3804255  27.2758079  69.2269325  65.6764030  26.2273049  69.2607832
  63.9642096  27.4962664  69.8185635  63.2402754  26.8927097  69.2710781
  64.0028858  27.2141433  70.8707142  63.4974003  28.9764833  69.7829056
  64.1587687  29.5478368  70.4342508  63.5953140  29.4204116  68.7922287
  62.0528746  29.2045760  70.3239727  62.1361876  29.1457772  71.4091969
  61.7763042  30.2232862  70.0522470  61.0337496  28.3495688  69.5779324
  60.8167171  28.6265087  68.6311960  60.3002405  27.3531389  70.0905371
  59.5653057  26.6431904  69.3769598  59.8704910  26.5742993  68.4166384
  58.9145279  25.9688711  69.7536373  60.2996826  27.0840430  71.3786888
  60.8341503  27.6691055  72.0049047  59.6823025  26.3846779  71.7657614
  65.5282784  27.7293348  67.7785540  66.1375284  28.7797356  67.4608088
  65.0341749  26.9632936  66.8155432  64.4856215  26.1741972  67.1262121
  65.4100275  26.9625211  65.4126167  65.9011126  27.9117274  65.1982689
  66.4430857  25.8347988  65.1267099  66.7228317  25.7946134  64.0739870
  67.3222256  26.1884809  65.6653500  66.0358858  24.4545960  65.5860138
  66.0156965  24.4203401  66.6752863  65.0973320  24.1474509  65.1246357
  67.1322489  23.4537172  65.1096106  66.7231226  22.4622846  64.4476986
  68.3531475  23.6869335  65.3412485  64.1147137  26.8359160  64.5281649
  63.2588863  26.0496068  64.8785782  64.1100025  27.5505400  63.4021807
  64.9550438  28.0409145  63.1461763  63.0396938  27.4371481  62.4157858
  62.4963999  26.5082502  62.5892353  61.9604063  28.5369420  62.4892187
  62.3045301  29.5076227  62.1322060  61.2908316  28.2696056  61.6717243
  61.2609386  28.8067508  63.8331842  60.7942057  27.8612065  64.1092443
  61.9952106  29.0293646  64.6073866  60.1903677  29.9757171  63.7010336
  59.4358921  30.1481104  62.7288294  60.1294994  30.7645202  64.6831989
  63.5747337  27.3357058  60.9797239  64.5804977  28.0231118  60.6960106
  62.9889011  26.5078282  60.1367617  62.0314217  26.3165545  60.3951168
  63.4483290  26.1313081  58.7766504  64.1816711  26.8448353  58.4008980
  64.1732883  24.7068501  58.8415003  63.4364843  23.9637113  59.1464090
  64.5187902  24.5155287  57.8255653  65.4289484  24.6093988  59.7064686
  66.1833286  24.0696073  59.1340733  65.8376598  25.6068063  59.8684216
  65.2768326  23.8264704  61.0465860  64.1918612  23.7787724  61.6111898
  66.3056040  23.3283520  61.6854954  66.2102222  22.9168987  62.6029444
  67.2533417  23.5426736  61.4098978  62.3099041  25.8516145  57.7723360
  61.1560106  25.5410480  58.1399584  62.5853586  25.9455705  56.4633322
  63.5495853  26.0796404  56.1942720  61.7710495  25.3938532  55.3495216
  61.1791754  24.5510674  55.7065868  60.7444763  26.4471292  54.9167299
  60.4938173  26.8636060  55.8923435  61.2438107  27.2298360  54.3456459
  59.5430756  26.0145020  54.1096401  59.5634842  24.9852276  53.3805084
  58.4874582  26.7372489  54.2046785  62.7416801  24.8890710  54.2222548
  63.9374256  24.9524403  54.5108128  62.2835064  24.5105124  53.0451727
  61.3325596  24.4859004  52.7057695  63.2106876  24.3290067  51.9794273
  64.0697622  23.8061810  52.3998356  62.5870991  23.5368252  50.8014345
  62.2781515  22.5949025  51.2546873  61.7441893  24.0748715  50.3677225
  63.6991692  23.2526708  49.7203875  63.9849663  24.0828967  48.6220074
  63.3685923  24.9621272  48.5060835  64.8730326  23.7553048  47.6226807
  64.9428082  24.4148326  46.7703009  65.6842136  22.6654816  47.8030348
  66.4753008  22.4330974  47.1054840  65.4319763  21.6945386  48.8202953
  66.0935163  20.8408999  48.8121319  64.4016981  21.9951820  49.7669697
  64.1954565  21.2924504  50.5607128  63.8251781  25.6734157  51.5360689
  63.0802202  26.6108131  51.1719418  65.1197052  25.7511067  51.6007900
  65.4944754  24.8763132  51.9389963  65.9196186  26.8994713  51.1701250
  66.8443918  26.4778876  50.7762194  65.4841375  27.4243283  50.3198385
  66.2628841  27.7926230  52.3559904  67.0186853  28.7439775  52.2494125
  65.7285118  27.5224113  53.6059999  65.1450825  26.7012191  53.6791897
  65.7237959  28.4504580  54.8199654  66.5120077  29.1783214  54.6275043
  64.3384457  29.1491222  54.8605061  63.5536146  28.4058452  54.7202349
  64.0668201  29.8303199  56.1408567  65.0102472  30.2517343  56.4879274
  63.3376408  30.6277323  55.9975290  63.7325191  29.0265298  56.7968035
  64.0488815  30.1316381  53.6952162  63.9850378  29.5033097  52.8068256
  62.9958439  30.3837633  53.8202667  64.9907780  31.2678623  53.3180857
  64.9177217  32.0812154  54.0400410  66.0045385  30.8790278  53.4140062
  64.6974373  31.7820716  52.4028587  66.1496449  27.6782584  56.1142206
  65.6297588  26.6221952  56.4312744  67.0125294  28.3128309  56.8717337
  67.3373032  29.1938424  56.4996529  67.2338724  28.0062008  58.2800007
  66.3174152  27.6009870  58.7089682  68.3973455  27.0134759  58.4068775
  67.9842615  26.1346936  57.9116964  69.2960215  27.3571515  57.8946543
  68.5609388  26.6561913  59.8693466  69.2485380  27.3914766  60.2872658
  67.5895309  26.8137455  60.3380060  69.2919731  25.3862119  60.0920486
  70.3801966  25.0938964  59.6018124  68.8071442  24.4676781  60.7229853
  67.6437283  29.3134713  59.0591431  68.4179068  30.0952911  58.5378027
  67.1266365  29.4660544  60.2709723  66.6089630  28.6885071  60.6550789
  67.1263170  30.6130695  61.1310053  67.9392147  31.2172508  60.7281828
  65.6996393  31.3464618  61.0898304  64.9693584  30.6040192  61.4116669
  65.5844545  32.5490141  62.0071983  65.3687954  32.2118402  63.0210590
  66.4009237  33.2509041  62.1770000  64.6676588  33.1110001  61.8289852
  65.2931786  31.7795801  59.6149158  65.8249903  32.7109718  59.4205236
  65.6148720  31.0573387  58.8645983  63.8109350  31.9900084  59.5093632
  63.2494116  31.0935378  59.7723103  63.4769058  32.8202701  60.1316071
  63.5948706  32.2166729  58.4653139  67.4816656  30.0294876  62.4864912
  67.0724630  28.9518023  62.8358889  68.0097818  30.8868122  63.4001017
  68.2857418  31.7982244  63.0635405  68.0194712  30.5905843  64.8567963
  67.4205351  29.6983504  65.0392675  69.4783545  30.3781533  65.3982639
  69.3088102  30.0765252  66.4318848  70.0938511  29.0835261  64.7338104
  69.4633532  28.2205939  64.9481201  70.1858521  29.1859269  63.6525393
  71.0498714  28.8583016  65.2064610  70.3378057  31.5765190  65.1592016
  69.9725294  32.3502493  65.8344889  71.4014196  31.3876295  65.3046274
  70.3583336  31.8957686  64.1171980  67.3939371  31.7708683  65.5998611
  67.5520992  32.9066920  65.1395082  66.8769407  31.4379239  66.7927647
  66.8494844  30.5055141  67.1800041  66.1536074  32.3445106  67.6941204
  66.5555239  33.3538818  67.6061821  64.6317673  32.1061015  67.4929953
  64.2584801  31.0974908  67.6703739  64.1810656  32.7771306  68.2242203
  64.2836905  32.4798369  66.0149860  64.8522520  33.3554196  65.7016277
  64.6163082  31.7104006  65.3182554  62.8158236  32.7313304  65.7804441
  62.2625399  31.8724227  66.1602497  62.4813795  33.6478162  66.2665462
  62.5302553  32.8939366  64.2628241  63.2128954  33.6443114  63.8640261
  62.7109957  31.9719362  63.7102413  61.1043501  33.3031392  64.1427231
  60.9477282  34.1461658  64.6764612  60.8592224  33.3494949  63.1640196
  60.4947090  32.5832033  64.5034599  66.6138554  31.9989347  69.0780354
  66.4584446  30.8630776  69.5123816  67.1222067  33.0034685  69.8267794
  67.0008707  33.9127803  69.4042540  68.1159163  32.8789353  70.8951759
  68.0465794  31.8803167  71.3265276  69.4526672  33.1035948  70.3039598
  69.4426441  33.9872551  69.6658802  70.5070782  33.3030462  71.3192940
  70.4934740  32.4153543  71.9516802  71.4983368  33.3521581  70.8686399
  70.3701210  34.2206621  71.8914127  69.9537611  31.8816137  69.5276594
  70.0485802  31.0801053  70.2602530  69.3737650  31.6084766  68.6461210
  70.9389257  32.0032954  69.0773773  67.8503752  34.0346646  71.9160986
  67.5941372  35.1691461  71.5281916  68.1079721  33.6890173  73.1494093
  68.4012318  32.7344704  73.3008623  68.0067205  34.5858812  74.2592478
  67.9805756  35.6009626  73.8629818  66.6765833  34.3985915  75.0250101
  66.6722775  33.4990811  75.6406069  66.5622663  35.2555466  75.6888294
  65.4421997  34.4708085  74.1818810  65.3595209  35.5138803  73.8764906
  65.5832863  33.9062762  73.2601976  64.1147041  34.1081166  74.8584032
  64.2863607  33.2541871  75.5137157  63.8514900  34.8902702  75.5704832
  63.0062151  33.9568210  73.8410997  62.6255703  34.9034762  73.4576273
  63.3245897  33.4127021  72.9519033  61.8749857  33.2600212  74.4294071
  61.4980698  33.7946749  75.1989412  61.1572981  33.0970097  73.7377024
  61.9683123  32.3602343  74.8786020  69.2237425  34.4068670  75.2280617
  69.8699474  33.3435869  75.1787329  69.7066879  35.5283570  75.7781363
  69.1394806  36.3486934  75.6186914  71.0258007  35.6972289  76.3322353
  71.2988997  34.7993731  76.8866491  72.0527220  35.9711480  75.2531576
  71.7904234  36.8559980  74.6732140  73.0864429  35.9984374  75.5978060
  72.0539713  35.1609802  74.5239639  71.0290098  36.7732835  77.5209427
  70.0698185  37.4786377  77.6897717  72.1378613  36.9284654  78.2385778
  72.9341364  36.3298011  78.0723047  72.3825169  37.9153538  79.3470430
  71.7485380  38.7659240  79.0966272  71.9918251  37.4348974  80.7954025
  72.7733755  36.8026519  81.2167740  71.9440460  38.5830975  81.7647457
  71.1171103  39.2397118  81.4942837  71.8823767  38.2270741  82.7931118
  72.8547239  39.1773987  81.6900921  70.7722425  36.5895510  80.9691715
  69.8176336  37.1155310  80.9562492  70.7104588  35.8902216  80.1353741
  70.8551550  35.6662965  82.2540188  70.9241390  36.3551784  83.0959129
  69.9494314  35.0740242  82.3843384  71.8102264  35.1426983  82.2961712
  73.8623619  38.5113668  79.2876863  74.8382282  37.7599382  79.2897749
  74.0973806  39.8617220  79.2080164  73.2405043  40.3691387  79.3765068
  75.4311800  40.5606270  79.4171047  76.0479021  40.3769398  78.5373259
  75.3111649  41.6434383  79.3822289  76.1006832  40.1868677  80.7461262
  75.3721428  40.1419353  81.6966057  77.4137163  39.9277472  80.7564354
  77.8344393  40.1572704  79.8673868  78.1541300  39.3714595  81.8259430
  77.5668812  39.2962527  82.7411366  78.6408710  37.9339361  81.5137386
  79.4176435  37.9269814  80.7491016  79.1825342  37.7569747  82.4429226
  77.5193691  36.9041061  81.3325214  77.0495653  37.0757055  80.3640556
  78.0154705  35.9335566  81.3282013  76.3767624  36.9154692  82.4719715
  76.8094301  37.1413279  83.4465885  75.6579018  37.7144265  82.2902679
  75.8016014  35.6050038  82.6062965  76.2170982  34.7785068  82.2008705
  74.8040676  35.3023982  83.3762074  74.1569424  36.2212014  84.0810585
  74.5340395  37.1511436  84.1955185  73.4042978  35.9267235  84.6867943
  74.3262482  34.0695548  83.3686638  74.9547863  33.3640289  83.0119228
  73.5710096  33.7508845  83.9587212  79.4360161  40.1524162  82.3058128
  79.4636202  40.3772783  83.5380554  80.3808975  40.5937195  81.4508915
  80.3491497  40.2389812  80.5057716  81.6521645  41.2796307  81.8781567
  81.5151691  41.7506075  82.8515625  82.7945709  40.1793098  81.9862366
  82.8899193  39.7747731  80.9785748  83.7196732  40.6740236  82.2821236
  82.4813366  38.9796829  82.8038692  82.3913574  39.1307282  83.8795948
  81.5900421  38.5068107  82.3914623  83.5392666  37.9299474  82.5326633
  83.4152412  37.0665979  81.7135715  84.6429634  38.1783056  83.1634426
  85.3792953  37.4889874  83.1109524  84.7900963  38.9836359  83.7549591
  82.1392632  42.3289967  80.9474850  82.3500919  42.0224094  79.7814512
  82.3510647  43.5230446  81.4960670  82.2265720  43.5100269  82.4982834
  82.9147911  44.7249460  80.8443928  82.2698021  45.0098324  80.0131798
  83.0443192  45.9247494  81.6822624  83.6857414  45.6581450  82.5222588
  83.6123657  46.7207003  81.2007141  81.6688919  46.4746761  82.2481537
  81.4705467  47.4091434  81.7232513  80.8215237  45.7941723  82.1645451
  81.8709469  46.8064022  83.7158775  80.9468555  47.2536850  84.0820789
  82.0405293  45.8475494  84.2057133  83.0106544  47.7593756  83.9847183
  82.9016972  48.6789513  83.5814571  83.9907360  47.7198267  84.8803234
  84.3150043  46.5643644  85.4933739  83.9141560  45.6846952  85.2007961
  85.0183105  46.5127230  86.2164211  84.7406101  48.8108063  85.1717663
  84.4270325  49.6978569  84.8044586  85.5054188  48.8038158  85.8313942
  84.2899323  44.3842030  80.2615166  85.0676060  43.7619257  81.0279465
  84.6012402  44.8529530  79.0420151  83.8686562  45.2230263  78.4533978
  85.9278107  44.8764086  78.3607101  86.6631985  44.6819592  79.1414165
  86.1187935  43.6888647  77.4311733  87.0679855  43.8698101  76.9267845
  86.2331676  42.8186035  78.0774450  85.0652599  43.4796047  76.3526344
  85.0324154  44.3105698  75.1940298  85.7265663  45.1229000  75.0369453
  84.0634346  44.0640259  74.2749643  84.1010475  44.7347784  73.4293413
  83.1197834  42.9854298  74.3880606  82.3296833  42.9256916  73.6541843
  83.2344055  42.1651268  75.4557562  82.6002693  41.2911892  75.4331350
  84.1043854  42.4244547  76.5262461  84.2166996  41.8046951  77.4035645
  86.3976383  46.1605358  77.6400089  85.6884575  46.7430782  76.8486452
  87.6304340  46.6048956  77.8592730  88.3001804  46.0233068  78.3422804
  88.2776451  47.4059534  76.7961884  87.6068687  48.2378674  76.5815401
  89.6124363  47.9631853  77.3748922  89.3007183  48.5197973  78.2587004
  90.1425552  47.0735788  77.7150011  90.4367638  48.8675928  76.3938951
  90.4334641  48.5094738  75.3644085  89.9175739  49.8116636  76.2287140
  91.7775345  49.2774105  76.8868256  91.5262604  49.7177744  77.8517294
  92.3483753  48.3665991  77.0675421  92.4407673  50.4471922  76.1543608
  92.6808453  50.1332808  75.1385260  91.8599701  51.3627434  76.0424089
  93.5885429  50.9716320  76.9163036  94.0843868  50.1864815  77.3135090
  94.2974281  51.3388395  76.2976503  93.2867908  51.6100979  77.6383924
  88.5013866  46.6727924  75.4841375  88.7848282  45.4966450  75.4655933
  88.2377434  47.3810482  74.3933010  87.9144192  48.3320379  74.4990826
  88.5081863  46.9987202  73.0300665  88.2931709  45.9301615  73.0223846
  87.5909519  47.6631069  72.0228243  87.8958321  48.6937332  71.8412733
  87.5564766  46.8646717  70.6385565  86.6026020  47.0016098  70.1291752
  88.3470345  47.2709322  70.0076294  87.6644230  45.7970858  70.8301306
  86.1624241  47.7912903  72.5180769  85.7527256  46.8810940  72.9560280
  86.0945702  48.4936714  73.3488274  85.4846478  48.1476307  71.7423534
  90.0012398  47.1614599  72.6738262  90.5952263  48.2573795  72.6128292
  90.6904411  46.0513592  72.3212385  90.2429581  45.1600981  72.1614552
  92.0784473  46.1090994  71.8457794  92.5683308  47.0277548  72.1685505
  92.9315186  44.9338531  72.3436403  92.5103378  44.0429878  71.8777418
  93.9421272  45.1000166  71.9705915  93.1050873  44.8886776  73.8679934
  92.1753407  44.5168924  74.2986298  94.0994167  43.7587118  74.1452694
  94.2098713  43.6218357  75.2209806  93.7107754  42.8671932  73.6530781
  95.0577164  44.0349531  73.7054348  93.4670925  46.1947584  74.5095539
  93.5586357  46.1026573  75.5917978  94.4927120  46.3816404  74.1913176
  92.8094959  47.0464468  74.3354940  92.1739292  46.1764765  70.3165722
  92.9805565  46.9414663  69.7886610  91.4016819  45.2963829  69.5829773
  90.6830883  44.7478867  70.0333881  91.6393280  45.0930834  68.0835915
  91.6842461  46.0880852  67.6408148  93.0162239  44.5239639  67.8397036
  93.8133907  45.0404024  68.3744144  93.0278015  43.4710789  68.1214714
  93.5400391  44.4588327  66.3995838  92.8435802  43.8551426  65.8176947
  93.4953022  45.4360390  65.9187841  94.8879814  43.8117981  66.3628006
  95.7602882  44.4416380  67.0165920  95.0191307  42.6109838  65.9789181
  90.5350494  44.2598295  67.5039387  90.3695869  43.0264473  67.7339840
  89.9304008  44.8689651  66.4421463  90.2797031  45.7877588  66.2099600
  88.8139057  44.2365313  65.7075310  88.2734489  43.5821295  66.3914633
  87.7840614  45.1999664  65.1878452  88.0839443  45.8589458  64.3730402
  87.0711613  44.5472431  64.6840382  87.0951653  46.0926151  66.2352800
  87.8510857  46.8091536  66.5566111  86.2335873  47.0744991  65.4519606
  85.5451965  46.5276575  64.8076200  85.5731010  47.5766993  66.1588240
  86.9482613  47.7596760  64.9960327  86.4541340  45.3901482  67.4691725
  85.9119225  46.2132502  67.9345942  85.8471680  44.5497036  67.1324873
  87.2292042  45.0587416  68.1602097  89.3625736  43.3958530  64.4741631
  90.2945995  43.7701225  63.7567472  88.8839722  42.1618748  64.3163633
  88.0810070  41.8876123  64.8642015  89.3928814  41.2190008  63.2768774
  89.9333096  41.8089628  62.5366163  90.2474976  40.2531528  64.0811205
  89.6210480  39.6652317  64.7519445  90.6101799  39.5908856  63.2950115
  91.5229130  40.8099127  64.7818518  92.1619320  41.3834286  64.1104126
  91.2264633  41.3402081  65.6868410  92.3721123  39.6632671  65.3227425
  91.8347549  39.0887833  66.0772753  92.6239300  38.9465046  64.5411158
  93.6095047  40.2042150  65.8645868  93.8978291  41.1131716  65.5317688
  94.4430637  39.5522761  66.7016506  95.3995228  40.1342964  67.2999382
  95.7301521  41.0310602  66.9734430  95.9065533  39.6382952  68.0189705
  94.2704105  38.2844114  67.0208836  93.6641312  37.7455258  66.4191055
  94.8444557  37.8116989  67.7043438  88.3318901  40.4944420  62.4870110
  87.5508976  39.7469664  63.0638504  88.3116436  40.8134985  61.2032366
  88.9725494  41.4876080  60.8442450  87.6246262  39.9640131  60.1959610
  86.6190052  39.8384142  60.5972767  87.3639011  40.7085180  58.9002323
  86.7322063  40.0520229  58.3018351  86.5618896  41.9970369  59.1263819
  85.8223438  41.9446945  59.9253988  87.2710609  42.7560091  59.4567537
  86.1598206  42.2978163  58.1589270  88.5344601  40.9686947  58.0894947
  88.7722111  40.1718616  57.6097679  88.2449055  38.6033964  59.9236202
  89.4188690  38.4547353  59.8563433  87.3837280  37.6133251  59.5868492
  86.3980103  37.8318191  59.6135521  87.7354145  36.2188387  59.2038202
  88.7393188  36.2755847  58.7830400  87.8165245  35.3979826  60.5366230
  88.1366920  34.4094419  60.2074003  88.5483837  35.8406162  61.2123108
  86.5108776  35.2322221  61.2051153  86.3885212  36.1648822  61.7558193
  85.7391071  35.1366925  60.4413414  86.3430405  33.9809418  62.0663500
  87.2343922  33.1620145  62.2534466  85.1687431  33.8254261  62.6949263
  85.0130081  32.9220676  63.1189394  84.4356823  34.5201206  62.7056074
  86.8734074  35.7625151  58.0632877  86.3457394  34.6366096  57.9839659
  86.6468811  36.7174053  57.1532631  86.9873524  37.6450467  57.3622227
  85.6280327  36.6590023  56.1025572  84.6412563  36.6728187  56.5653515
  85.8168793  37.8976512  55.1707458  86.8176174  37.7547407  54.7630692
  85.0423908  37.7344942  54.4213152  85.7675362  39.1769004  55.7636261
  85.4866219  39.7962499  55.0860596  85.6660461  35.3869438  55.2255392
  86.7009830  35.0205708  54.7098494  84.5582771  34.6927071  54.9613953
  84.7277832  34.1234875  54.1444731  83.1649113  34.9223042  55.3121328
  83.0046368  36.0002017  55.3355551  82.3365688  34.3079400  54.1531229
  81.3176155  34.6643639  54.3041277  82.6294518  34.6985388  53.1785727
  82.2578144  32.7705932  54.0026665  83.2135391  32.0724273  54.3552113
  81.2905693  32.2609377  53.3620691  82.7144432  34.2951846  56.6816330
  81.4931583  34.2867398  56.9639730  83.6391068  33.8067579  57.4766636
  84.5881081  33.6186981  57.1866322  83.3101177  33.6397886  58.9055061
  82.4751949  32.9584122  59.0690184  84.2094040  33.2368350  59.3713474
  82.9882050  34.9310589  59.6332598  83.2860661  36.0110712  59.2112160
  82.2758293  34.7719264  60.7842731  82.3168087  33.8134313  61.1000490
  81.6492081  35.7930732  61.6887856  81.0479450  36.4633536  61.0745335
  80.6787109  35.2195525  62.7486658  81.2922955  34.4444704  63.2078648
  80.2747059  36.2203622  63.8577080  80.1437092  37.2435284  63.5054541
  79.3902826  35.8656812  64.3869543  81.1394310  36.2196851  64.5212936
  79.3985701  34.6999431  62.0676947  79.7142696  33.8695669  61.4361000
  78.7715101  34.2631507  62.8449392  78.5504580  35.7905626  61.2948370
  77.6268053  35.2399850  61.1164141  78.4130383  36.6345668  61.9707632
  79.0070820  36.0023665  60.3280210  82.7159214  36.6870213  62.3351383
  83.6289597  36.0821772  62.9167175  82.5118351  38.0293226  62.5174713
  81.5586758  38.3560395  62.4478102  83.5527420  38.9451885  62.9525471
  84.3793869  38.8962245  62.2437668  82.9718113  40.3534460  62.9943943
  82.5066853  40.6104755  62.0427132  82.1862793  40.2191210  63.7380362
  83.9461708  41.4853764  63.4519100  84.2917156  41.3592243  64.4779634
  84.7103691  41.4055061  62.6787806  83.2440567  42.8499699  63.3284521
  82.0101166  42.9441547  63.4647226  83.9214039  43.9366865  63.0236387
  83.4477997  44.8280716  62.9884624  84.8642731  43.7976980  62.6893282
  84.1396809  38.4874463  64.3517971  83.2828999  38.2861710  65.1970387
  85.4585838  38.6205411  64.5698023  86.0514545  38.9500761  63.8214636
  86.0953999  38.4947371  65.8741379  85.4004860  37.9947019  66.5487909
  87.4225807  37.7275586  65.7656765  88.0692291  38.3138442  65.1128244
  87.8845787  37.6478362  66.7497015  87.3169231  36.2860513  65.2043867
  86.6745567  36.2841940  64.3237877  88.3137703  35.9785652  64.8884010
  86.7994595  35.2459812  66.2020540  86.7253876  35.4305530  67.4168444
  86.5118599  34.0244222  65.8346605  86.3482380  33.2772946  66.4943075
  86.4406681  33.8148117  64.8492193  86.5243530  39.8665881  66.4843130
  86.7603207  40.7918262  65.6794405  86.8337440  39.9058795  67.7709103
  86.5314388  39.1483641  68.3666325  87.5351143  41.0563040  68.4024334
  88.2932949  41.4509201  67.7260208  86.4457512  42.0297909  68.8754797
  85.8287048  41.5512419  69.6359777  86.9062233  42.9283476  69.2861652
  85.8096409  42.1669006  68.0010271  88.3800507  40.6354332  69.5784569
  87.8765202  39.8784423  70.3777742  89.6091366  41.1171770  69.5614100
  89.8635960  41.8228340  68.8850975  90.5763912  41.1088324  70.6634140
  90.6141758  40.1794624  71.2316895  91.9344711  41.5014076  70.1571512
  92.0817089  41.1569548  69.1335440  91.9966698  42.5639868  69.9223137
  93.0850315  41.0879230  71.0837507  92.8798676  41.4583874  72.0881224
  93.2286644  40.0074387  71.0793638  94.4017601  41.7539310  70.6257725
  94.6296883  41.6608334  69.5639420  94.3464756  42.8214931  70.8387327
  95.5481529  41.2691498  71.5061378  95.2155209  41.2560177  72.5440598
  95.7781029  40.2217913  71.3105392  96.7885208  42.0093679  71.3114023
  96.6178894  43.0019093  71.2349176  97.4883556  41.7816257  72.0031214
  97.2786045  41.7274761  70.4744720  90.1146984  42.1301508  71.6620493
  89.9563313  43.3530283  71.3556719  89.8492813  41.6579151  72.8657293
  89.7717953  40.6569529  72.9760504  89.4182873  42.6035166  73.9412451
  89.4630527  43.6340523  73.5889769  87.9092216  42.3087788  74.2059278
  87.5758839  43.0653906  74.9162292  87.0457745  42.5259638  72.9541063
  87.4366856  41.9699383  72.1019745  85.9808064  42.3685837  73.1248951
  86.9869041  43.5838842  72.6982927  87.5654793  40.9292603  74.7710562
  87.9987907  40.0774384  74.2468929  87.9130840  40.8636475  75.8020544
  86.4873123  40.7757473  74.8170233  90.1144791  42.2727156  75.2261209
  90.7758236  41.2077141  75.2973461  89.9359035  43.0721951  76.2866116
  89.4133377  43.9312267  76.1912394  90.5266762  42.7897024  77.6147223
  90.7656670  41.7318106  77.5058365  91.8878841  43.5888147  77.7037239
  92.4499321  43.3054209  76.8138361  91.6995430  44.6606350  77.7656603
  92.7077675  43.0700445  78.9574099  92.1902180  43.3625984  79.8710012
  92.6928806  41.9832897  79.0401793  94.2265701  43.5467052  78.9044762
  94.7279739  43.8524961  77.8250647  94.9262047  43.7642241  80.0123024
  95.7938576  44.2671251  79.8923635  94.5928288  43.6293554  80.9561062
  89.5303822  42.8593731  78.7757730  88.8962173  43.8750410  78.8864708
  89.4021606  41.8622541  79.6375704  90.0007439  41.0553455  79.5341349
  88.3579254  41.7819834  80.6246090  87.4170399  42.0486546  80.1432228
  88.2833576  40.3558922  81.0984802  89.2841148  40.0260973  81.3774204
  87.4822235  40.1540327  82.3792553  87.2265339  39.1028857  82.5127125
  88.0522823  40.5232286  83.2317924  86.5926361  40.7777739  82.2916412
  87.8825665  39.3779731  79.9417639  88.5000038  39.5567632  79.0614796
  88.0929661  38.3520055  80.2437878  86.4326572  39.4617510  79.5161200
  85.8758926  39.1913271  80.4133224  86.2437534  40.4923153  79.2155266
  86.2488365  38.7459230  78.7149334  88.6596489  42.8443432  81.7645359
  89.7253990  42.9885721  82.2937202  87.5976276  43.5984850  82.1322632
  86.7389297  43.4976053  81.6101837  87.5927734  44.3480444  83.4078121
  88.6415768  44.6228218  83.5201073  86.9957066  45.7581234  83.3374977
  85.9873009  45.5374718  82.9874611  86.9165421  46.0197449  84.3926716
  87.6644897  46.8553019  82.5333500  88.7085819  46.8358660  82.8457355
  87.5526905  46.7475224  81.0492325  88.1351280  45.8661795  80.7807159
  86.5336609  46.5280390  80.7306290  87.8936672  47.5904036  80.4480743
  86.9673061  48.2374287  82.8103733  87.5642681  49.0430355  82.3829079
  85.9524155  48.1661558  82.4191952  86.9764900  48.3708620  83.8921356
  87.0969391  43.4830618  84.6095848  86.1087036  42.8024054  84.3961143
  87.6843166  43.5773516  85.7674789  88.7972450  44.4093132  86.0457039
  88.6094856  45.4721880  85.8935928  89.5651150  44.1962385  85.3020096
  89.2956161  44.1460562  87.5031281  89.3180275  45.0995111  88.0308723
  90.2581596  43.6350584  87.4810314  88.2085228  43.1667328  88.0836105
  87.8212738  43.4682989  89.0568638  88.6025047  42.1614456  88.2328510
  87.1463871  43.0798101  87.0065594  86.9076157  42.0233440  86.8842030
  85.8042145  43.7283945  87.4652863  85.7278252  45.0056410  87.6237869
  84.7715664  43.0438566  87.4164391  72.2966099  49.9037981 102.2752380
  71.5694094  49.6072435 101.6401482  71.8365622  50.1122665 103.1498814
  72.9998302  49.1930676 102.4182034  72.9379892  51.2160730 101.9126129
  73.5002375  51.6829205 102.7213383  73.9304399  51.0566568 100.7644558
  74.6571636  50.3756189 101.2073421  73.4514046  50.6877279  99.8575211
  74.6551561  52.4094820 100.4094887  75.6252432  52.0619345 100.0541878
  74.0810537  52.9700470  99.6717453  74.8283672  53.3417463 101.5929127
  75.3015423  52.9654789 102.6709843  74.3547440  54.4669342 101.5432739
  71.8221474  52.1982622 101.6164017  71.1835480  52.2105455 100.5900192
  71.6688585  53.1873083 102.4627686  72.1465397  53.2122374 103.3523178
  70.6931257  54.3039656 102.4193478  69.7243309  53.8311625 102.5805664
  70.8364248  55.3862572 103.5364628  71.7884207  55.8936930 103.3805275
  69.6180582  56.2372732 103.6149025  69.7304821  57.0111132 102.8555393
  68.7735415  55.5495596 103.5707760  69.6351337  56.7733765 104.5637989
  70.9346390  54.6733713 104.7440052  71.4282656  55.2011108 105.3760052
  70.6274557  55.0421286 101.0842514  69.5930481  55.2557516 100.5781269
  71.7844296  55.3878546 100.5199814  72.6248121  54.9892187 100.9136200
  71.7639637  55.9154081  99.0731621  71.2413120  56.8719244  99.0772247
  73.2050419  56.2211418  98.7262821  73.3927011  56.9835567  99.4823265
  73.8106823  55.3508806  98.9791489  73.6744785  56.6967249  97.3050499
  73.3678436  56.0075665  96.5181923  72.9478216  58.0303717  97.0477200
  73.2467651  58.7090969  97.8465176  73.3903980  58.4124422  96.1278057
  71.8653345  57.9552746  96.9443893  75.1865768  56.9156456  97.3529625
  75.6960821  55.9591675  97.4698257  75.4402971  57.4111414  96.4158344
  75.4168987  57.5389433  98.2170010  71.0878992  55.0920248  97.9865265
  70.3586102  55.6296825  97.1931362  71.2567759  53.7615776  98.0561352
  71.8956184  53.3899498  98.7445259  70.4887247  52.8221083  97.1955585
  70.5430841  53.1035519  96.1439323  71.1780643  51.3970518  97.2675037
  71.1394501  51.0899973  98.3126545  70.5323887  50.6782246  96.7630386
  72.5910902  51.4029503  96.6635036  72.4974442  51.4829254  95.5804825
  73.1650400  52.2651005  97.0031738  73.6235714  49.9438381  97.1489716
  72.7026796  48.5014296  96.6140556  71.8683624  48.3318615  97.2946835
  72.3968410  48.5328960  95.5683136  73.3262920  47.6112366  96.6963005
  69.0317440  52.8638744  97.5368595  68.2253122  52.8345251  96.6057110
  68.6642647  52.9915047  98.8028622  69.4544363  53.0502605  99.4291878
  67.2939873  53.1213474  99.3061543  66.7622852  52.3170137  98.7977791
  67.2169399  52.8382301 100.7981968  67.8682280  51.9841194 100.9837246
  67.6607704  53.6905384 101.3126755  65.8376360  52.6502609 101.2962914
  65.5960703  52.9072714 102.4854469  64.9366474  52.0619488 100.5994511
  66.5558958  54.3418837  98.7509155  65.5227566  54.2174196  98.0432224
  67.1800804  55.4453421  98.9796257  67.9876089  55.3960657  99.5842457
  66.9374752  56.7814684  98.3940983  66.0050058  57.1236277  98.8430214
  68.1501818  57.7562809  98.6225605  69.0392303  57.2229671  98.2860088
  67.8843355  58.6087704  97.9975128  68.1792068  58.2953739 100.0471878
  67.2471619  58.8503122 100.1541042  68.2931948  57.5601196 100.8437538
  69.3506718  59.1988754 100.2351952  69.3669844  59.4159317 101.3032436
  70.1512575  58.4904051 100.0225163  69.5212889  60.4732180  99.5273685
  68.7381411  60.9040546  99.0570927  70.5826378  61.2125254  99.5291805
  71.5893078  60.9005737 100.2664661  71.5435743  60.0623035 100.8279896
  72.4602938  61.3563871 100.0346947  70.6181192  62.3285151  98.9042950
  69.8282003  62.4540949  98.2875633  71.3706207  62.9899216  99.0322971
  66.7104769  56.7033815  96.8581963  65.6457520  57.1596479  96.4743519
  67.5593328  56.0915661  95.9662056  68.4126282  55.7350111  96.3722420
  67.4106503  55.7757425  94.5670128  67.1275997  56.6883993  94.0425682
  68.6670446  55.2159643  93.9252377  69.0232182  54.3536806  94.4888973
  68.5655069  54.7420454  92.4804974  69.4903755  54.3459463  92.0611858
  67.7078056  54.0941811  92.2996044  68.4946489  55.6365919  91.8617344
  69.8285007  56.2193966  94.0495968  69.7624779  57.0494604  93.3462238
  69.7290039  56.8036938  94.9643707  71.1669016  55.6124783  93.9203835
  71.8527699  56.4581299  93.9709568  71.3349533  54.8295307  94.6598721
  71.2984800  55.1805305  92.9283142  66.1041880  54.8940659  94.2690754
  65.2806139  55.3246260  93.4543991  65.8167887  53.7980461  94.9935150
  66.4038706  53.6260366  95.7971668  64.6229029  52.9652786  94.9361610
  64.5207453  52.6773500  93.8898468  64.8175097  51.7574883  95.8104706
  65.0544405  52.0789719  96.8246746  63.8985825  51.1859417  95.9409046
  65.8863020  50.8521843  95.1548672  65.5319691  50.5018616  94.1854286
  66.8074417  51.3882160  94.9262524  66.0406399  49.6492147  96.0918236
  65.0906420  49.2042971  96.3878822  66.6342354  48.9350605  95.5211067
  66.6492414  50.0765514  97.3455048  67.5181198  50.7009554  97.1374989
  66.0022593  50.6983757  97.9642487  67.1301270  48.9724112  98.2096863
  66.3337421  48.4468746  98.5408688  67.6793623  48.3717680  97.6116276
  67.6949501  49.1567421  99.0264511  63.3460283  53.7204885  95.2535725
  62.4026775  53.6778498  94.4770527  63.3167887  54.5065737  96.3713932
  64.1074848  54.4120884  96.9926643  62.1055841  55.3554535  96.7721176
  61.2793732  54.6485090  96.8476772  62.3178864  55.7841635  98.2481384
  63.3524466  56.1266470  98.2259846  61.4704990  56.4277172  98.4845257
  62.2795916  54.7641087  99.3443108  61.3598061  54.1826057  99.2814255
  63.1563425  54.1201401  99.2756844  62.4459791  55.4295349 100.7075500
  63.1887579  56.2264061 100.6703949  61.4867306  55.9257603 100.8548737
  62.6713562  54.4873714 101.9240665  61.8974638  53.7215567 101.8719006
  63.6338615  54.0260410 101.7030239  62.7576590  55.1935863 103.2209110
  63.0391645  54.5760918 103.9689541  63.4223652  55.9536457 103.1969261
  61.8497849  55.5579042 103.4721851  61.7771292  56.4779663  95.7965088
  60.6162596  56.7489529  95.5196190  62.8204584  57.2098207  95.4061413
  63.7398052  56.9062042  95.6937599  62.7596331  58.1656647  94.2330837
  62.0820284  58.9744377  94.5066452  64.1899538  58.6726809  94.0334797
  64.5377779  59.2225552  94.9079895  64.8332882  57.8010893  93.9128590
  64.4534588  59.4920492  92.7658844  65.5199051  59.7165012  92.7862358
  64.2737389  58.9390135  91.8439579  63.6468983  60.7932854  92.8118038
  62.9528475  61.1668730  93.7533665  63.9392376  61.6642475  91.8417645
  63.6313581  62.6242685  91.9023323  64.4671774  61.2703991  91.0760880
  62.2896194  57.5302362  92.8934002  61.2336063  57.9135466  92.3832321
  62.8913927  56.4531469  92.3767662  63.6506891  56.0656834  92.9184723
  62.2860336  55.6562662  91.2966824  62.2413206  56.3421965  90.4507542
  63.1606150  54.5307589  90.9519386  63.6702824  54.1447544  91.8347454
  62.5744295  53.6798048  90.6050014  64.1224957  54.8452139  89.7665501
  64.3361807  55.9132957  89.8070908  65.4020977  54.0529823  89.9648190
  66.0544014  54.2807245  89.1217613  65.9434843  54.4320297  90.8316040
  65.1539707  53.0021191  90.1138306  63.4566927  54.4044685  88.4259129
  63.9577389  54.8557043  87.5695038  63.4521008  53.3240986  88.2814026
  62.4283981  54.7602415  88.3615971  60.8040857  55.3333330  91.5417767
  60.1862049  55.1781178  90.5373001  60.3855228  54.9115086  92.7695560
  60.9582186  54.8778629  93.6008072  58.9932871  54.5119858  93.0045414
  58.7457657  53.8419819  92.1811771  58.9312124  53.8054228  94.3730545
  59.7493553  53.1001520  94.5191479  59.1009140  54.4956064  95.1994610
  57.6085806  53.0341291  94.5480156  56.8017626  53.7494802  94.7074413
  57.2649240  52.4317503  93.7071037  57.6023149  52.0768595  95.7373905
  58.3631706  51.3033247  95.6332779  57.8412867  52.6561832  96.6292381
  56.3408232  51.3785744  95.7839775  56.2887335  50.7083941  95.0301552
  55.2667761  51.5453768  96.5287304  54.3551636  50.6750441  96.4573097
  54.4927502  49.8786354  95.8515835  53.5410309  50.7913446  97.0436192
  55.1313782  52.5780106  97.2980595  55.8864117  53.2476568  97.3380184
  54.2835093  52.7435970  97.8213120  57.9946613  55.6587076  92.9769516
  56.7825794  55.4552412  93.0080795  58.4523916  56.8673801  92.8844261
  59.4444942  56.9623709  92.7206707  57.6001072  58.0198050  92.6327133
  56.7734528  58.0129623  93.3431339  58.3318710  59.3036556  93.0794144
  58.6136818  59.1557837  94.1219139  59.2072535  59.3915892  92.4359322
  57.6220465  60.6420231  92.9413414  58.1808996  61.3507938  93.5524273
  57.6352549  60.9739161  91.9031811  56.1792850  60.7242012  93.3989048
  55.7121181  60.0758076  94.3585873  55.5627012  61.7309284  92.9912090
  56.9718122  58.0170870  91.2712574  55.9682655  58.6645031  91.0988045
  57.5147200  57.2905922  90.2676392  58.3118486  56.7284870  90.5297947
  57.0941067  57.2815609  88.8054276  56.4241982  58.1236792  88.6317635
  58.2940006  57.4504900  87.8219700  58.9606380  56.5978813  87.9514313
  58.0831528  57.5595617  86.7581272  59.1775846  58.6335278  88.2000065
  58.7539864  59.7744703  88.7310028  57.7487564  60.0792122  88.9821053
  59.8153019  60.5448484  89.0986824  59.7900105  61.3872671  89.6552753
  61.0179853  59.8933029  88.8549519  62.3387289  60.3289127  89.0283108
  62.4608278  61.2908220  89.5039368  63.3990574  59.5694304  88.5113907
  64.4261265  59.8138905  88.7389278  63.1234217  58.4488869  87.7394867
  64.0056944  57.8828239  87.4795437  61.7666960  58.0699348  87.5737953
  61.4990854  57.1296215  87.1148872  60.6597805  58.8002014  88.1495190
  56.3378859  56.0470486  88.3761692  55.1958466  56.1787891  87.9689217
  56.7665434  54.8617744  88.7275505  57.5609350  54.7565269  89.3423367
  56.0202312  53.6299419  88.6589909  55.0080490  53.8680458  88.9859390
  55.9775114  53.0825806  87.1597290  55.7305813  53.8585138  86.4351273
  56.9782257  52.7232313  86.9198418  54.9097919  52.0184565  86.9727039
  53.7532711  52.1397686  87.4471188  55.2783346  50.9716082  86.3909531
  56.6106224  52.6228952  89.6708584  57.7022505  52.8629351  90.1751995
  56.0042334  51.4734745  89.9468994  55.0774336  51.4182138  89.5492935
  56.3088226  50.5258703  91.0106945  56.0087681  50.9874773  91.9514275
  55.4989052  49.2461967  90.8584023  54.4795322  49.5735407  90.6538773
  55.8853626  48.6771679  90.0128460  55.4438066  48.2100582  91.9755459
  54.8562956  47.3294830  91.7157078  56.4423227  47.8704882  92.2507763
  54.7642803  48.8180113  93.2170105  53.7303019  49.5222044  93.0835819
  55.3978157  48.7434149  94.2822456  57.7761889  50.2512264  91.2429047
  58.2176018  50.5051613  92.3550892  58.4708881  49.6756935  90.2774715
  58.0805635  49.6132994  89.3480301  59.8862410  49.4434738  90.3631973
  60.1514912  48.8348913  89.4986820  60.6799841  50.7600307  90.4203415
  60.2641296  51.4773893  91.1278439  61.7177963  50.7236862  90.7515907
  60.7549810  51.3786077  89.0991116  61.2385941  50.7520342  88.1918907
  60.4649067  52.6825809  88.9529419  60.4724646  53.1895494  88.0794334
  60.0286436  53.1364489  89.7427464  60.2487183  48.4265566  91.4948559
  61.3030338  48.5765553  92.1662426  59.4917440  47.3628521  91.7735863
  58.6108112  47.3218775  91.2812614  60.1250219  46.0481834  92.1687126
  59.3275452  45.3234959  92.3329067  61.0803032  45.5369759  91.0522461
  61.9934368  46.1302185  91.1007118  61.4847517  44.5509195  91.2807655
  60.6075478  45.5633545  89.5647335  59.7626066  46.2471294  89.4833183
  61.8109322  46.1597300  88.7745285  61.5104437  46.1732531  87.7268505
  61.9517374  47.2198677  88.9852142  62.7527952  45.6195164  88.8702106
  60.1226759  44.2160416  89.1067696  59.7135878  44.2150879  88.0964470
  61.0483980  43.6406994  89.0954018  59.5207071  43.7798548  89.9039364
  60.8268213  46.0459709  93.5329628  61.7650461  45.2753782  93.7474060
  60.5142069  46.8890667  94.4855213  59.7335720  47.4906778  94.2646885
  61.4008093  47.2448063  95.6241417  62.2960949  47.7372074  95.2445316
  60.7011127  48.3141327  96.4803028  61.5102100  48.9048815  96.9098186
  60.2066612  49.1145849  95.9299374  59.6894264  47.7065706  97.4662018
  58.9644098  47.0321226  97.0106030  60.2965879  47.1113062  98.1481934
  58.8936138  48.8729906  98.1889915  59.5567608  49.5833254  98.6827183
  58.3517361  49.3382883  97.3655987  57.8683615  48.3950710  99.1718102
  57.3931170  49.2357302  99.6773243  57.1425533  47.8761005  98.5457325
  58.3469486  47.4902344 100.2276516  57.6111937  47.0389700 100.7521725
  58.9442062  46.8147230  99.7725964  59.0010405  47.9302597 100.8590317
  62.0063734  46.1749649  96.4983177  63.0762768  46.2934494  97.0700455
  61.2640667  45.0801229  96.6048717  60.4211044  45.1567411  96.0538387
  61.5086937  43.7841654  97.3113346  62.4574327  43.8905859  97.8373241
  60.3626347  43.4644985  98.2750416  59.4417238  43.8275623  97.8187466
  60.3502131  42.3783350  98.3655548  60.5832195  44.0798330  99.6678734
  60.2798748  45.3002882  99.8033047  61.1962175  43.4337044 100.5488014
  61.8409920  42.5825024  96.4251900  62.0320702  41.4528036  96.8791008
  61.8303204  42.8236532  95.1168251  61.6524410  43.7705898  94.8138809
  61.9445467  41.7568874  94.1491127  61.5023565  40.9139776  94.6802139
  60.9850740  42.0692158  92.9782009  60.1499557  42.6090288  93.4246063
  61.3568401  42.7320528  92.1968269  60.4221249  40.7712889  92.3622608
  60.9941483  39.6936369  92.3811722  59.3993330  40.9905434  91.6932583
  63.4005356  41.5004015  93.7701893  64.2156839  41.3429356  94.6982002
  63.7526798  41.3510561  92.5033188  63.1492710  41.5620756  91.7213535
  65.0363874  40.9051132  91.9235992  65.3720856  39.9749517  92.3820782
  64.7616196  40.5716753  90.4921436  65.7331848  40.3261948  90.0632954
  64.2582989  39.6175122  90.3361225  63.9753056  41.5021896  89.8212719
  64.1962385  41.3203287  88.9049149  66.1839008  41.8969822  92.1171856
  67.2414875  41.7297935  91.5508747  66.0133076  42.9180622  93.0159283
  65.1370668  43.2712984  93.3730316  67.0952463  43.9173746  92.9890442
  67.4155092  44.1774130  91.9801235  66.5935659  45.2794123  93.5968876
  66.3899755  45.0982618  94.6522713  67.4371481  45.9500551  93.4334564
  65.3666115  45.9973335  93.0136108  64.5037270  45.3892469  93.2852077
  65.2614737  47.3995018  93.6027622  66.1386442  47.9976511  93.3559990
  64.4484949  48.0034924  93.1998253  65.2076674  47.4170113  94.6912956
  65.5781364  46.0044432  91.4747620  64.8150063  46.5868998  90.9585571
  66.5836668  46.3971901  91.3239288  65.4931593  45.0262403  91.0014725
  68.3900642  43.4508085  93.7523746  68.2613039  42.9151154  94.8698711
  69.6177530  43.6239862  93.2252979  69.8655415  44.1238976  91.8508244
  69.6425486  45.1897430  91.8993282  69.3321705  43.4640884  91.1665154
  71.3455963  43.9168644  91.5911484  71.6768742  44.6791887  90.8860016
  71.5371895  42.9466677  91.1327744  71.9606352  43.9521313  93.0393982
  72.0908165  44.9550867  93.4458828  72.9332209  43.4601164  93.0294991
  70.8703709  43.2970095  93.9617157  71.0185766  42.2178316  93.9229488
  71.0571337  43.9098215  95.3815269  70.5636311  45.0163078  95.6413651
  71.8140841  43.1524229  96.1848450  72.1508169  42.2512817  95.8771706
  72.2507715  43.7284422  97.4560356  71.5468073  44.4785070  97.8165054
  72.4428511  42.6499796  98.5206890  73.1561565  43.0555153  99.2382145
  71.4697599  42.3412466  98.9026260  73.0841923  41.6172695  97.8505039
  72.4648905  40.9014177  97.6904488  73.6550093  44.4089413  97.3404121
  73.9582157  45.3535557  98.0837059  74.5184851  44.0149307  96.4296246
  74.2521286  43.1670237  95.9498119  75.8511877  44.5376158  96.1648083
  76.5141582  44.6918678  97.0161533  76.6242743  43.5023642  95.2912998
  77.0924282  42.8594732  96.0367012  75.9475803  43.0313492  94.5783234
  77.8159761  44.0565681  94.5666981  78.2464695  45.2208900  94.5957184
  78.5563993  43.1701231  93.8658905  79.3234777  43.5036135  93.2997894
  78.2757902  42.2178793  93.6799240  75.6916332  45.9093904  95.3791428
  75.1183558  45.8446550  94.3152237  76.2360620  47.0918274  95.8611012
  77.0402002  47.0752764  97.0443344  78.0015850  46.5803766  96.9068146
  76.5323687  46.6234064  97.8964043  77.2152281  48.5252380  97.4280739
  78.1477880  48.7127638  97.9603004  76.3252735  48.9039612  97.9307270
  77.1738625  49.2133188  96.0664082  78.1365728  49.2020893  95.5553627
  77.0254040  50.2650118  96.3113785  76.3329792  48.3676195  95.1935101
  75.3348112  48.7993622  95.1202679  76.8491173  48.3425951  93.7364197
  76.3913965  49.1406488  92.9442501  77.9879522  47.6613712  93.3871174
  78.3359194  46.9870234  94.0536594  78.4426022  47.5788593  91.9647694
  78.5502100  48.6146164  91.6426849  79.7982121  46.8135834  91.8380737
  79.6492052  45.7707596  92.1181011  80.2591133  46.8187571  90.3742027
  79.5235920  46.3007593  89.7587490  80.4089165  47.8209734  89.9726772
  81.1906338  46.2756014  90.2149773  80.8973598  47.3646116  92.7253532
  81.0655689  48.3835268  92.3766041  80.6240845  47.4292564  93.7785530
  82.2858429  46.6947746  92.7112770  82.6565647  46.5425968  91.6976261
  83.0323029  47.3012352  93.2242107  82.3034573  45.6975079  93.1508827
  77.3826933  47.0136118  91.0233212  77.0378208  47.6032209  90.0508404
  76.8048716  45.8346176  91.4243221  77.0030975  45.5308962  92.3669529
  75.8082819  45.0796223  90.5859661  76.2194014  45.0960016  89.5766068
  75.5373621  43.6743927  91.1655426  75.1978159  43.6528397  92.2010899
  74.7530222  43.2465458  90.5411625  76.7427254  42.7763128  90.9609604
  77.8865433  43.1881571  90.5241394  76.5604830  41.5449810  91.1584568
  74.5461035  45.8782673  90.5039024  74.0303946  46.1851883  89.4115448
  74.1669178  46.5232992  91.6250134  74.6041441  46.1915827  92.4728966
  73.1111574  47.5464535  91.6323471  72.1751690  47.0772028  91.3292885
  72.7703381  47.9913807  93.0557346  72.6010656  47.0748520  93.6209106
  73.6252451  48.5013342  93.4997940  71.6141224  48.9097881  93.0122375
  70.3339005  48.4170437  92.8521442  70.1891422  47.3473358  92.8178310
  69.2545128  49.2708874  92.8318214  68.3046293  48.7601042  92.7750111
  69.3808794  50.6301594  93.0088520  68.5399485  51.3031769  92.9295921
  70.6790113  51.1763573  93.1424618  70.8743715  52.2307730  93.2706738
  71.7467594  50.2970934  93.0724335  72.7168179  50.7176828  93.2926559
  73.3601427  48.7825394  90.7403564  72.4381495  49.1033888  89.9468040
  74.5854282  49.3802309  90.7664108  75.3262520  49.0351200  91.3598633
  74.9172449  50.4600382  89.8238850  74.2604923  51.2873220  90.0929260
  76.4061451  50.7954693  89.8949146  76.5721655  51.8618488  89.7420597
  76.7162514  50.6393623  90.9281445  77.3469162  50.0499487  89.0587425
  77.2030163  49.1015387  89.0962791  74.6766853  50.0872087  88.3748817
  74.5116186  50.9717178  87.5602055  74.7728491  48.8285255  88.0602074
  75.0495005  48.1457758  88.7511635  74.5148134  48.3410025  86.6340160
  74.6930838  49.0705490  85.8440304  75.5891275  47.2901058  86.3315582
  75.4577351  46.5076017  87.0789051  75.4470491  46.8143845  85.3611946
  76.9707298  47.9058409  86.2725067  77.3083925  48.9003801  85.3196430
  76.5370607  49.0770864  84.5846367  78.5903406  49.4321632  85.1736450
  78.9558649  50.1669121  84.4715405  79.6091938  48.9127111  86.0531139
  80.8586693  49.2880964  85.9497166  81.0016346  50.2354574  86.0102177
  79.2854643  47.9487514  87.0919037  80.0357914  47.7317715  87.8377819
  77.9985905  47.3885107  87.1276474  77.7503443  46.6417122  87.8672791
  73.1041384  47.8634071  86.3820457  72.7246094  47.8532600  85.2510738
  72.2407389  47.5513697  87.3664665  72.6061344  47.6711893  88.3003998
  70.7514763  47.5760555  87.2393608  70.4844141  46.8656111  86.4570332
  70.0093222  47.1697712  88.5648632  70.3612041  46.2136126  88.9522076
  70.2361012  47.8878975  89.3528748  68.5222101  47.1438074  88.5964870
  67.7429485  46.0549974  88.6376667  68.1398201  45.0589275  88.5083103
  66.3841724  46.3394117  88.5761070  65.6673574  45.6379175  88.6952209
  66.1837816  47.7380610  88.5910416  64.9493265  48.4672213  88.5012627
  64.0380335  47.9167509  88.3197880  64.9660206  49.8606777  88.6071491
  64.0703964  50.4506922  88.4801102  66.2361193  50.4848766  88.7838554
  66.1811256  51.5624237  88.8314152  67.4346161  49.7061729  88.7588882
  68.3787584  50.2276325  88.8142776  67.5036287  48.2993221  88.6405945
  70.3477049  49.0069485  86.6891575  69.7396374  49.1593838  85.6742954
  70.7959938  50.0268936  87.4851131  71.3345861  49.7770357  88.3021736
  70.5183554  51.4123964  87.2494221  69.4577312  51.6637039  87.2541332
  71.1514997  52.2884464  88.4094620  72.1688557  52.0029831  88.6770248
  71.1680317  53.7418747  88.0161476  71.5277290  54.2450523  88.9136600
  71.9343948  53.9864683  87.2806454  70.1913977  54.1737556  87.7976036
  70.2634954  52.1688271  89.7355652  69.2355394  52.4023867  89.4583416
  70.3431082  51.1626768  90.1471710  70.6701612  52.7822828  90.5395412
  71.1165762  51.8023682  85.8453846  70.3036737  52.1669626  85.0413513
  72.4061251  51.5247822  85.5983925  72.9835653  51.1100101  86.3157654
  72.9531956  51.8927193  84.3082714  72.7056074  52.9456282  84.1734028
  74.4786596  51.7783403  84.4411564  74.6964073  50.7548618  84.7464180
  74.8986816  51.9500494  83.4500885  74.8024178  52.3816729  85.2892494
  72.4051142  51.0613537  83.1237316  72.4507523  51.6442108  82.0213699
  71.7407084  49.8930264  83.3681870  71.7179203  49.5012140  84.2988205
  70.8833742  49.2241192  82.3106670  71.4238358  49.1899967  81.3647079
  70.6651640  47.7400637  82.7042294  71.6089106  47.1991110  82.7735996
  70.1306200  47.7241421  83.6540318  70.0679016  47.2996902  81.9058323
  69.5631504  49.9905348  81.9735527  69.1441202  50.1391125  80.8267117
  68.9102316  50.3904390  83.0706501  69.4678259  50.2356672  83.8984394
  67.6109838  51.0244751  83.1220627  67.0765352  50.6722879  82.2397804
  66.9796991  50.5369043  84.3992329  67.6182461  50.5958700  85.2806377
  66.0742760  51.1031055  84.6177006  66.4397287  49.1274357  84.2152596
  65.3778601  48.8772297  83.7172222  67.0959091  48.0999804  84.7077465
  66.6607618  47.2137833  84.9208260  67.9968166  48.3200121  85.1078224
  67.4243784  52.5437927  82.8061008  66.2712574  52.9152584  82.4988651
  68.4331560  53.4219933  83.0450726  69.3341732  53.0707455  83.3364487
  68.4553242  54.8139524  82.5085831  67.4961090  55.2458239  82.7940559
  69.7563648  55.4686451  83.1117153  70.5947971  54.8026991  82.9076385
  69.8917866  56.4734650  82.7116013  69.6441746  55.5937767  84.6329784
  69.5411158  54.5798826  85.0196362  70.9684706  56.1751747  85.1636410
  71.1270666  57.1913385  84.8025894  70.9840679  56.1071014  86.2514019
  71.7187834  55.4801559  84.7867012  68.5312510  56.5035200  85.1026440
  68.6611891  56.3764143  86.1773777  68.6250973  57.5564814  84.8369884
  67.5590849  56.0595131  84.8885059  68.4848070  55.0830936  81.0033321
  69.2804623  54.4095087  80.2630329  67.7793074  56.0995626  80.4700089
  66.5760612  56.6733217  81.0960484  66.7907524  57.3077774  81.9559765
  65.9432602  55.8495378  81.4262581  65.8156443  57.4512911  79.9653769
  66.1287594  58.4930706  80.0343895  64.7411346  57.2783375  80.0255489
  66.3661766  56.7777300  78.6563873  66.2725210  57.4661827  77.8165293
  65.8409691  55.8288574  78.5473013  67.8446865  56.5390301  79.0374756
  68.1038141  55.6642437  78.4410667  68.7881088  57.7949142  78.7643099
  68.5329247  58.4955692  77.8493690  69.9011660  57.9196262  79.5119810
  70.0255394  57.2912407  80.2928543  71.0218382  58.7849665  79.1769409
  70.6931639  59.8216867  79.1042423  72.1032619  58.7455940  80.2537823
  72.7958250  59.5082474  79.8976755  71.6016293  59.2202854  81.5990543
  72.3944187  59.5881796  82.2503948  71.0753298  60.1447487  81.3613987
  70.9949589  58.4722757  82.1094799  73.0334091  57.4648619  80.3367805
  73.1583786  57.1381855  79.3044233  74.0667677  57.6895189  80.6009769
  72.4850130  56.1997318  81.1579895  73.1466627  55.3530836  80.9749222
  72.3326683  56.3972473  82.2190666  71.4972734  55.9471369  80.7724190
  71.6181040  58.5644245  77.7294445  71.4914370  57.4515581  77.1436739
  72.3352718  59.6070576  77.2902679  72.3889208  60.3918409  77.9237795
  73.1355429  59.6591234  76.0610294  72.5233984  59.4870806  75.1757097
  73.7844229  61.0367441  75.7604694  72.9448271  61.7231178  75.6505442
  74.5036459  61.4033508  76.4928770  74.3029070  61.0718393  74.3203926
  73.7228727  60.4337168  73.4225750  75.2492619  61.8772840  74.1461992
  74.0598440  58.5043812  76.0276461  74.4844913  57.9391670  77.0467186
  74.4516420  58.1314850  74.8081446  74.1951895  58.7686777  74.0676594
  75.4323626  57.1225739  74.3999386  74.9168539  56.1664724  74.4906235
  75.7643414  57.2417879  72.9303503  76.1566639  58.2583714  72.9031134
  76.5138721  56.4974928  72.6614237  74.5510578  57.2825193  71.9930267
  73.4444761  56.8082714  72.2279072  74.7858191  57.9384327  70.9325981
  76.7084503  57.2202826  75.2991247  76.9638157  56.2502670  76.0027504
  77.4404621  58.3383894  75.2481079  77.1694326  58.9412880  74.4844580
  78.7075853  58.6085463  75.9266186  79.3106365  57.7449465  75.6462002
  79.5129776  59.8687792  75.4089642  80.5831718  59.8706675  75.6158066
  79.5109129  59.6907616  74.3336010  78.9139414  61.0177565  75.8260441
  78.7469244  61.5163469  75.0228548  78.5794830  58.5435772  77.4473143
  79.4433355  57.9847860  78.1492805  77.5284863  59.1306734  78.0194855
  76.9715691  59.7057724  77.4036884  77.2201824  59.0523195  79.4557762
  78.1629944  59.3468761  79.9167013  76.1293459  60.0552702  79.9248552
  76.4214325  60.9867811  79.4400120  75.1542759  59.6908998  79.6014786
  75.9602499  60.2451849  81.4824295  75.5940771  59.2942572  81.8694115
  77.2629547  60.5147696  82.1883774  77.9388094  59.6687174  82.0637703
  77.7114296  61.3898325  81.7180157  77.1366215  60.5227852  83.2709980
  74.9884510  61.3663244  81.7864990  74.1710472  61.2509346  81.0747242
  74.7026205  61.2652874  82.8334904  75.5206442  62.2920799  81.5677643
  76.9121504  57.6033068  79.9524832  77.3402357  57.2195053  80.9982967
  76.2993097  56.8053484  79.0804720  75.9403849  57.1873045  78.2171154
  76.1149263  55.3960705  79.3484545  75.8350754  55.2096939  80.3853035
  74.9781084  54.9039888  78.4170771  74.1693020  55.6234360  78.2893133
  75.4122353  54.7706699  77.4261856  74.2896080  53.5806322  78.8973570
  75.0461960  52.7982521  78.8376617  73.8792753  53.6634016  79.9037743
  73.1222200  53.2190514  77.9109526  72.3507786  53.9807606  78.0240250
  73.5896969  53.2434416  76.9265938  72.6427794  51.8511820  78.0678082
  73.1974030  51.1466646  77.6028919  71.5095043  51.4352036  78.5655975
  70.6786776  52.3048592  79.1471052  70.9157372  53.2768488  79.2854357
  69.8427200  51.9406605  79.5814323  71.1554861  50.2224445  78.5671854
  71.7983103  49.5960236  78.1040668  70.2848053  49.8616934  78.9303207
  77.4294090  54.5937061  79.2767859  77.7057362  53.8041878  80.2033806
  78.3181524  54.8269939  78.2709503  78.0858660  55.6294775  77.7033520
  79.6598721  54.2418957  78.1430435  79.6055698  53.1542969  78.1908321
  80.3287411  54.5948362  76.7729139  80.3012562  55.6721640  76.6094875
  81.8782997  54.2446566  76.7790270  82.4328613  54.8393631  77.5049019
  82.0230389  53.2099676  77.0897865  82.2120285  54.4316053  75.7583570
  79.4497299  53.9870501  75.6212187  78.9422131  53.0787373  75.9460163
  78.7639809  54.8140860  75.4372120  80.1950741  53.7880850  74.2994499
  80.6428242  54.7291327  73.9799929  80.8415890  52.9122686  74.2440844
  79.4658518  53.5071516  73.5395670  80.4570484  54.6047640  79.4318771
  81.1275864  53.7451220  79.9923944  80.3565693  55.9027910  79.8762178
  79.8070955  56.5860081  79.3748236  81.0310173  56.3733292  81.0850430
  82.0745087  56.0619116  81.0375977  81.0251427  57.9527378  81.0506535
  81.4116478  58.2099009  80.0644588  80.0251675  58.3418608  81.2423420
  81.9341660  58.6488867  82.0904160  81.5762520  59.6411943  82.3648643
  81.7918968  58.1452656  83.0465698  83.4128857  58.6513042  81.8475723
  84.0277576  57.7858734  81.1777878  84.1414738  59.6109533  82.3790932
  85.1343822  59.4261932  82.3897743  83.7565899  60.1730490  83.1247616
  80.6185055  55.6078243  82.3222446  81.4497566  55.3292274  83.1701183
  79.3088484  55.3836536  82.4429321  78.6705112  55.6557131  81.7090321
  78.8414145  54.4144392  83.4953499  79.3051863  54.6932602  84.4415379
  77.3038864  54.5636749  83.5641098  76.8919563  54.6399975  82.5578308
  76.8838739  53.6697531  84.0251923  76.8791056  55.7327366  84.4638729
  77.0322227  55.5590343  85.5289936  77.6379204  57.1059036  84.2751980
  78.7191391  57.0322847  84.3920135  77.4510431  57.5632095  83.3035660
  77.2881651  57.6724672  85.1382065  75.3838921  55.9268332  84.2697906
  74.7315216  55.0543880  84.3065357  74.9627876  56.5971327  85.0191021
  75.2500963  56.3719559  83.2838535  79.1793919  52.9604053  83.2686806
  79.5497322  52.3406601  84.2746258  79.1564322  52.3695898  82.0435715
  78.8808250  52.8831673  81.2187195  79.6485996  51.0362816  81.8351555
  79.0410185  50.3187132  82.3865509  79.2635965  50.6653643  80.3889465
  78.2227898  50.9141207  80.1817322  79.6780968  51.3594437  79.6578217
  79.6218538  49.2371988  79.9131584  80.6692314  49.0038729  80.1046181
  78.6908531  48.2506323  80.6761551  79.0800333  48.1220198  81.6861534
  77.6789284  48.6449575  80.5833626  78.6991501  47.2580242  80.2258682
  79.2791986  48.9840412  78.4049225  79.6816111  49.8114157  77.8204441
  79.6949625  48.0050182  78.1667042  78.2110691  48.9692354  78.1881762
  81.1214733  50.9290218  82.0874786  81.6420937  49.8049879  82.3441219
  81.9289970  51.9637012  81.9724369  81.5460777  52.7424335  81.4556789
  83.3674145  51.9256783  82.1990967  83.6906242  50.9315729  81.8902397
  84.1276360  52.8723860  81.2542439  84.1971779  52.4711943  80.2431488
  83.6485767  53.8439465  81.1330986  85.6286430  53.0793238  81.7364025
  85.6499386  53.5334730  82.7270603  86.0939693  52.0938778  81.7581940
  86.5482044  53.9889526  80.7875252  86.2006950  55.0202799  80.8484554
  87.5422859  54.1203451  81.2148762  86.5399742  53.4195995  79.3238640
  87.1589947  52.5256348  79.2480087  85.5216885  53.0758142  79.1421843
  86.9510078  54.4737482  78.4217310  87.8749752  54.7811508  78.6898470
  87.0108318  54.2211103  77.4456739  86.3123989  55.2454281  78.5512877
  83.7244415  52.0464754  83.6940861  84.5598984  51.3089228  84.1471863
  83.0018425  52.8755951  84.4764709  82.2502232  53.3929253  84.0434170
  83.3638573  53.0727959  85.8650970  84.4184875  52.8135872  85.9582233
  83.1090832  54.5526266  86.2823391  82.1040249  54.6875620  85.8826447
  83.1429768  54.9253464  87.7790451  82.9188919  55.9826231  87.9206562
  82.3657036  54.3696785  88.3036327  84.0752602  54.5791101  88.2252121
  84.0399170  55.3662825  85.3575325  84.9546051  55.4520082  85.9441376
  84.2152786  54.9092913  84.3836212  83.6196327  56.8177032  85.2131844
  83.9905167  57.3445511  86.0923862  84.0844154  57.1698284  84.2922688
  82.5385857  56.9175959  85.1159286  82.6765537  52.0504665  86.9041634
  81.4415073  51.8661880  86.9120121  83.4713745  51.5107870  87.8131676
  84.4586468  51.7178917  87.7632236  83.0508518  50.6002569  88.8869286
  82.0440578  50.2319908  88.6898327  83.9435863  49.3465662  88.8267994
  83.6350155  48.5556078  89.5103741  83.8025188  48.9484596  87.8219509
  85.4076385  49.6576023  89.0454197  86.1030293  48.7031269  89.2396069
  85.8994484  50.7650137  88.8960648  83.1907940  51.1883020  90.2504730
  82.9566669  50.5195570  91.2043762  83.5415173  52.4638700  90.3560543
  83.9546776  52.9664230  89.5835018  83.5835838  53.2507801  91.6273975
  84.0693855  52.6983166  92.4316883  84.3819046  54.5812845  91.3753128
  83.7901115  55.0137424  90.5685520  84.5165920  55.2124166  92.2537327
  85.6285572  54.1991615  90.8481216  86.2532902  54.6364927  91.4312553
  82.0955086  53.6181402  92.0477486  81.6833401  54.7582579  91.8895721
  81.3622856  52.6026630  92.4315453  81.7803001  51.6832829  92.4423504
  79.8863459  52.4181271  92.4660397  79.4551516  52.4574232  91.4657307
  79.4795370  51.0227299  93.0412006  79.9908733  50.3161144  92.3875046
  79.7038174  50.9146166  94.1023827  78.4040928  50.8974457  92.9154110
  79.2556763  53.5472202  93.2100868  78.5120392  54.3746710  92.6253414
  79.6295977  53.6146450  94.4959068  80.1612091  52.9103422  94.9872780
  78.9799690  54.5879078  95.3935909  77.9027224  54.4671392  95.2793312
  79.2809439  54.2151737  96.8161678  80.2758408  53.7832117  96.9243240
  79.2204952  55.3637838  97.8197193  79.9295998  56.1629057  97.6036930
  78.2373524  55.8245993  97.7238941  79.2287493  54.9654818  98.8343048
  78.2384920  53.0945301  97.2641754  78.2903337  52.3129511  96.5061855
  78.5885143  52.5729513  98.1549835  76.7352009  53.4187126  97.5464630
  76.5486765  54.0690327  98.4010887  76.3342047  53.9037418  96.6564941
  76.2012720  52.4807215  97.6987648  79.2106628  56.0382462  95.0260639
  78.2417583  56.7593908  94.9891472  80.4564285  56.3764811  94.6975803
  81.1929226  55.7251072  94.9286366  80.7237530  57.7690458  94.2288399
  80.3438663  58.5466194  94.8915386  82.2572613  57.9072380  94.1473007
  82.7616787  57.1460152  93.5521603  82.4156284  58.8334703  93.5949326
  82.9313469  57.9366779  95.5488777  82.5554752  57.1070910  96.1477089
  84.0178204  57.8687382  95.6041431  82.4738884  59.1952324  96.3875580
  81.8734169  60.1491070  95.9563732  82.8892708  59.2703581  97.6496887
  82.6247215  60.0374699  98.2510757  83.5195065  58.5650969  98.0039692
  79.9275732  58.0494690  92.9547882  79.3121862  59.0645742  92.8300571
  79.7902012  57.0762110  92.0012856  80.2766800  56.2107420  92.1867561
  78.9669323  57.1517229  90.7496357  79.3665314  57.8556442  90.0196266
  79.1951704  55.9194994  89.8667145  79.9170113  55.2094412  90.2702808
  78.2269955  55.4192114  89.8455143  79.5171881  56.1438084  88.3736515
  78.7831593  56.8138313  87.9260159  80.5573368  56.4470387  88.2543564
  79.4568872  54.8723793  87.4480724  79.7567558  55.0910473  86.4232063
  80.1417160  54.1038132  87.8064251  78.1598473  54.3561745  87.4087048
  77.4686337  55.0883102  87.4880600  77.7221775  53.1435776  87.3049831
  78.4740257  52.1320820  87.3586750  79.4712067  52.2750759  87.2859478
  78.1300926  51.2014246  87.5475597  76.4339209  52.9568291  87.3581505
  75.8099556  53.7123108  87.6031399  76.0563374  52.0242929  87.2691917
  77.4648285  57.3235464  90.9610081  76.8638325  58.1459808  90.3041840
  76.9111300  56.5278482  91.9316673  77.4457026  55.7627153  92.3175526
  75.4692507  56.4894056  92.3352242  74.8964167  56.2206936  91.4476681
  75.2151060  55.2795744  93.2556820  75.8730984  55.2141047  94.1222095
  74.2343283  55.5600548  93.6397552  75.0318146  53.8935518  92.5980091
  75.9259987  53.5449409  92.0812798  74.7869158  52.8133345  93.7242603
  73.8661432  53.0308342  94.2655277  74.6460056  51.8178749  93.3031845
  75.7385349  52.7273226  94.2487812  73.9967060  53.8716125  91.4953899
  74.4951963  53.9853859  90.5327606  73.4821272  52.9125595  91.4359760
  73.2267952  54.6219969  91.6750050  75.0397778  57.8417063  92.9240227
  73.8642836  58.1010628  92.8594398  75.9806156  58.6464882  93.5413933
  76.8908167  58.2290268  93.6731911  75.6554317  60.0010157  94.0386295
  74.8241711  60.0020885  94.7436810  76.8401718  60.6337404  94.6223927
  77.6796389  60.5892324  93.9285469  76.5426683  61.6742420  94.7525692
  77.3172855  59.9718428  95.9582615  76.5556908  59.9078131  96.7354202
  77.5440311  58.9244461  95.7591438  78.4587955  60.8399105  96.3602638
  79.3370962  60.4612160  95.8375072  78.3026505  61.9091654  96.2173843
  78.7576962  60.6613970  97.7829456  78.2619572  59.9302530  98.2726097
  79.7568989  61.0206127  98.4899616  80.5192375  62.0299339  98.1996441
  80.4945183  62.4719715  97.2918415  81.1862755  62.4169016  98.8518810
  80.1356506  60.3507042  99.5467949  79.6840763  59.5231628  99.9092293
  80.9075737  60.6577396 100.1212215  75.1932764  60.8328438  92.8833008
  74.1527367  61.5052366  92.9013824  76.0036325  60.7836580  91.8256092
  76.7262840  60.0813961  91.7570496  75.7961178  61.5920305  90.6179714
  75.4923725  62.5937653  90.9219074  77.0522308  61.6068029  89.8071957
  77.5303698  60.6289864  89.8651314  76.9551229  61.8588877  88.7512016
  78.2521439  62.6953268  90.5531979  77.3525000  63.6827803  90.5751514
  74.6428776  61.0704947  89.7172546  73.9669037  61.8932438  89.1176891
  74.3758631  59.7422457  89.6967793  75.0486040  59.1436148  90.1541233
  73.1296730  59.1189957  89.1974449  72.8580427  59.5476151  88.2327652
  73.3339071  57.5678349  89.1110420  73.8834095  57.1426201  89.9508858
  72.3886061  57.0259428  89.1403484  73.9638472  57.2234058  87.7592850
  73.1377888  56.7584801  87.2211647  74.3864870  58.1061935  87.2795391
  75.0680017  56.0711813  87.8191471  74.7605801  54.8992395  88.0964661
  76.2247515  56.4916515  87.5867081  71.8771935  59.5576239  89.9846458
  70.9054708  59.9070930  89.2870426  71.8918705  59.7079754  91.2686634
  72.7339983  59.4811678  91.7780685  70.7900715  60.3300571  91.9952297
  69.8982620  59.8439217  91.5996742  70.9780645  60.1138687  93.4623528
  71.1759186  59.0542936  93.6243725  71.8521833  60.6150103  93.8781357
  69.7933483  60.6331444  94.3500233  69.8060942  61.7147207  94.2153263
  68.3764839  60.0783777  93.8736820  68.3934593  58.9923048  93.7827873
  67.6309824  60.2748060  94.6442318  68.2125378  60.6324768  92.9494572
  70.0652456  60.3327465  95.7495499  69.1560602  60.3876829  96.3482666
  70.3733492  59.2873144  95.7339478  70.9136391  60.9228325  96.0961437
  70.6193876  61.8105221  91.6789818  69.4951582  62.2588205  91.4353752
  71.7008066  62.5232553  91.6465282  72.5552607  62.1619654  92.0458698
  71.6848278  63.9092588  91.2287331  70.9710503  64.4524717  91.8480301
  73.0939960  64.5376301  91.4534855  73.4323072  64.0866804  92.3863792
  73.7832928  64.1499949  90.7033539  73.1834030  66.0654545  91.4005947
  72.2133589  66.7282438  91.8493557  74.1772366  66.6958427  90.9340954
  71.1413527  64.1601276  89.7733212  70.2864075  64.9932098  89.4830132
  71.6339684  63.3251762  88.8214779  72.3761272  62.7076387  89.1180420
  71.2646341  63.4052181  87.3983383  71.6354275  64.3654871  87.0398808
  71.8646097  62.2132969  86.5362644  72.1447992  61.3655376  87.1614933
  71.0428429  61.6210508  85.3501892  70.5518484  62.3764610  84.7366905
  71.6914654  60.9832287  84.7497177  70.3044558  60.9916401  85.8469105
  73.2597685  62.6387262  86.0411263  73.9187145  63.0816889  86.7879105
  73.6708832  61.7223787  85.6175804  73.2966375  63.6083698  84.8354244
  72.5169897  64.3671989  84.9019718  74.2715693  64.0527534  84.6350861
  72.8734827  63.0144644  84.0252972  69.7891474  63.2671547  87.2532749
  69.1014338  64.0054178  86.5537071  69.2402458  62.2649765  87.9416943
  69.8434591  61.7737961  88.5858822  67.7923203  61.9657469  87.9385853
  67.5477314  61.9503736  86.8764973  67.5670862  60.4850245  88.3224964
  66.7274618  60.1567221  87.7098370  68.4398508  59.9079895  88.0168629
  67.3162794  60.2020884  89.7585964  68.1579685  60.4181051  90.4166222
  66.5811205  60.9425116  90.0739002  66.7683315  58.5141516  90.1613617
  68.2362938  57.6141167  89.6500969  68.2616282  57.6696396  88.5618114
  69.1319418  58.1309557  89.9947739  68.2210112  56.5297890  89.7601128
  66.8395329  62.9889822  88.5699749  65.6999636  63.0888557  88.2147694
  67.3311090  63.7087393  89.6278191  68.2776117  63.5925961  89.9606133
  66.6851664  64.9212551  90.0934505  65.6096411  64.7483015  90.1312160
  67.2183609  65.1343107  91.5078640  68.2954359  64.9677372  91.4916611
  67.1053267  66.1552858  91.8724632  66.5294695  64.2413759  92.5040436
  65.4661703  64.6030807  93.0631256  67.1104527  63.0867147  92.7919006
  66.6790342  62.5790167  93.5509968  67.9528618  62.7476454  92.3497772
  66.8059444  66.1681795  89.1565704  65.8481312  66.9753933  89.0628338
  67.9564285  66.3849020  88.5409832  68.7239218  65.7617950  88.7478542
  68.3330011  67.6270247  87.8729343  68.0836582  68.5263443  88.4360981
  69.7997952  67.5351858  87.4208927  69.9769211  66.5196133  87.0668697
  69.9569082  68.0741644  86.4865971  70.8891821  68.0235100  88.4643745
  70.7414722  67.3376226  89.2985439  71.8882704  67.8489542  88.0650616
  70.6658316  69.4607449  88.8331985  70.6499958  70.1526880  87.9911423
  69.7725725  69.6675634  89.4226170  71.7482519  70.0546646  89.6886349
  72.6324463  70.0659323  89.0513229  71.5401268  71.0940647  89.9424934
  72.0864105  69.2629719  90.8741665  72.1055555  68.2542849  90.8264256
  72.9512310  69.5165253  91.3301277  71.4530993  69.4701958  91.6331577
  67.4394464  67.7310419  86.5604496  66.7943096  68.7394714  86.3627911
  67.3292637  66.6678381  85.7770252  68.0109167  65.9306955  85.8868408
  66.4437437  66.5933657  84.6575069  66.5687943  67.4754858  84.0295506
  66.9921970  65.4750633  83.8616657  66.9951725  64.4998169  84.3484688
  66.4838362  65.3281069  82.9087353  68.7204695  65.7916355  83.4264565
  68.6401320  66.9228983  82.7202606  64.9900436  66.4427280  84.9924946
  64.6252441  65.9558296  86.0982132  64.1373634  66.6629839  83.9954376
  64.4344616  67.1938276  83.1891823  62.7282572  66.2168264  83.9663029
  62.7750540  65.2371979  84.4419479  61.8604088  67.1471167  84.8754120
  62.4947691  67.4636507  85.7033634  61.4902782  68.4620905  84.1235638
  62.3288488  68.8853788  83.5706425  60.6607723  68.2267237  83.4567642
  61.1204863  69.1552734  84.8791122  60.7003260  66.4998245  85.2807617
  60.4485798  67.1287489  85.9609699  62.1271849  65.8197355  82.6372433
  61.2133932  64.9831533  82.6380444  62.6260948  66.3894749  81.5377045
  63.4912491  66.8910360  81.6792870  62.1072483  66.1879444  80.1726341
  61.0887718  65.7996130  80.1715088  62.1026182  67.5172043  79.3634653
  63.1440449  67.8224182  79.2615795  61.6186094  67.4730206  78.3878231
  61.4002323  68.5622406  80.0374603  60.4606724  68.4285212  79.8927212
  62.9448175  65.1069641  79.4749784  64.1322470  64.9491119  79.7040749
  62.2980022  64.3459415  78.5908222  61.3274240  64.6031904  78.4817600
  62.9417038  63.3694363  77.7580500  64.0266037  63.3833599  77.8624868
  62.4355984  61.9772530  78.1717443  61.3806534  62.0738268  78.4283924
  62.4086189  61.2130737  77.3949528  62.9801369  61.3911533  79.4450045
  63.2725906  62.1498251  80.1709366  62.0748949  60.4244900  80.1318645
  61.7105770  59.7717762  79.3385649  62.6699352  59.8370409  80.8311081
  61.2829304  60.9400511  80.6750870  64.2583227  60.6565094  78.9714718
  64.6042585  60.1725483  79.8848248  63.9859438  59.8977041  78.2379007
  65.0513840  61.2893820  78.5731936  62.6986074  63.8021135  76.3378382
  61.5469742  63.7067747  75.8276749  63.6943054  64.4038105  75.7191420
  64.6513891  64.2993307  76.0243893  63.5909891  65.1525259  74.4927979
  62.5761843  65.4407597  74.2185974  64.3310738  66.4863253  74.5650768
  65.3990507  66.4699745  74.7824574  64.2204475  66.9458866  73.5829067
  63.3808470  67.5306749  75.7773113  62.3133278  67.8800058  75.0539398
  64.2402506  64.3548203  73.3415127  65.1298380  63.5037231  73.5804987
  63.8666964  64.7332621  72.1217251  63.1077337  65.3992414  72.1450567
  64.3471432  64.1832113  70.9040070  64.0953255  63.1231308  70.8737087
  63.6750984  65.0630569  69.8306179  64.0046835  66.0896111  69.9907970
  62.5895071  64.9699306  69.8610067  64.1097021  64.4106865  68.2665157
  65.8841515  64.2653608  70.9064913  66.5294170  65.3280354  71.1030483
  66.6228914  63.1683826  70.6593132  66.2112570  62.2465992  70.6280661
  68.0686712  63.3060789  70.2018404  68.6777210  63.8445091  70.9279633
  68.6426115  61.8532801  70.0435638  68.6469698  61.4227009  71.0449076
  67.9264021  61.2997866  69.4362831  70.0530195  61.6423655  69.4204187
  70.2467155  60.5697775  69.4088125  70.0404644  61.8735266  68.3552837
  71.1460495  62.3563147  70.3016615  72.0741940  62.0062208  69.8499060
  71.1102295  63.4411478  70.2018785  71.2549543  61.9188118  71.7543411
  72.2076845  62.3085785  72.1127987  70.4911232  62.4027920  72.3629665
  71.2659645  60.4625082  72.0124483  71.2990904  59.9647522  71.1342478
  72.1507692  60.2231836  72.4366426  70.5005932  60.2314520  72.6296377
  68.3059645  64.1063023  68.8803244  69.1818428  64.9619675  68.8615847
  67.5309086  63.8083076  67.8726721  66.7126846  63.2219887  67.9553699
  67.7214479  64.3136406  66.5624332  68.7744570  64.3435669  66.2824726
  67.0449114  63.2195044  65.6646347  65.9814072  63.1750679  65.8993244
  67.0476532  63.5582972  64.6286249  67.7042627  61.8437815  65.7121992
  67.8353930  61.4375162  66.7151260  67.0770550  61.1710739  65.1272440
  69.0579319  61.7835426  64.9716949  69.4079781  62.7039623  64.2698574
  69.8215532  60.6987715  65.0635195  70.7149839  60.5832100  64.6068668
  69.4311523  59.8919678  65.5290890  67.2611523  65.7713413  66.2602997
  67.5427341  66.3547802  65.2580404  66.6300535  66.4471769  67.2609806
  66.1979580  65.9000778  67.9917860  66.6572332  67.8452253  67.3973370
  67.5957823  68.1819820  66.9570923  65.4066610  68.4748173  66.7520046
  65.2728271  68.2353449  65.6970930  65.5668259  69.5528316  66.7335939
  63.8198662  68.0899143  67.5700474  66.8297338  68.3723688  68.8591862
  67.6629925  69.2379665  69.0564680  66.0166883  67.8858089  69.8031807
  65.4227924  67.1087742  69.5509815  65.8112335  68.3727312  71.1862421
  65.3864717  67.4973631  71.6775751  67.1172476  68.6518145  71.8777132
  67.8681421  68.0040216  71.4253521  67.4695635  69.6744442  71.7428017
  67.2068501  68.3714914  73.4195471  66.2795067  68.6125898  73.9391708
  67.2271729  67.3094749  73.6640978  68.3320761  68.8987303  74.2444706
  69.1425705  69.7108984  73.8316202  68.3835602  68.5183811  75.5041933
  69.2488432  68.7421417  75.9746361  67.6897526  67.9959536  76.0197592
  64.8438358  69.5494556  71.3699293  64.6250486  69.9839163  72.5169945
  64.2252541  70.0143337  70.2792692  64.3210268  69.5065928  69.4114399
  63.4579515  71.2491846  70.2641106  63.8511705  71.9806528  70.9701109
  63.4922028  71.9043159  68.8826513  63.3941317  71.2560129  68.0119133
  62.7065611  72.6401663  68.7111902  64.8371172  72.5998020  68.6453056
  65.6244040  71.8835115  68.8802433  64.8857880  72.9021692  67.5992107
  65.0252295  73.8485241  69.4954395  66.2416220  74.2133093  69.5523024
  64.1362762  74.5067930  70.0963783  61.9314384  71.0678196  70.6700277
  61.0453176  71.9616985  70.6704187  61.7145252  69.9025536  71.2987232
  62.4856186  69.3209457  71.5941048  60.4260397  69.3870306  71.7861176
  59.9790335  70.1967669  72.3628426  59.5894480  68.6880732  70.6366634
  59.5246553  69.3862486  69.8021269  60.2661896  67.4118423  70.1494598
  59.7118521  66.9143009  69.3536854  61.2751293  67.7299643  69.8868847
  60.3569555  66.7154694  70.9830856  58.2710981  68.4991741  71.1873102
  58.3790731  67.8357458  71.8727303  60.8728933  68.4522724  72.9644251
  61.9322538  67.8710127  72.9360151  60.0717926  68.4950686  74.0064096
  59.3557262  69.2056274  74.0559912  59.8377371  67.3291492  74.9270010
  60.7617092  66.9318485  75.3471518  58.9812040  67.9129648  76.1301374
  59.4176102  68.7623596  76.6556692  58.0299616  68.2930899  75.7576656
  58.7108088  66.8404579  77.1706963  58.1794262  65.9889317  76.7456770
  59.6636820  66.5644407  77.6223087  57.9279757  67.4382353  78.3493185
  58.6017323  67.7379370  79.3386698  56.6688871  67.6008987  78.3303976
  59.2437601  66.2133551  74.0441418  58.4194613  66.6024923  73.2049942
  59.5732212  64.9332190  74.2931128  60.2485275  64.8132372  75.0345087
  58.7512302  63.7464523  73.8362503  58.0937386  64.1196775  73.0510759
  59.6301937  62.7135658  73.1183195  60.3725576  62.3358011  73.8213682
  58.7634468  61.5125895  72.8106165  57.8152847  61.7367363  72.3218918
  59.3624258  60.7881260  72.2588301  58.6569548  60.8800745  73.6919117
  60.4446650  63.2128048  71.9821978  61.0744810  64.0658140  72.2348022
  61.1869955  62.5116491  71.6008472  59.5996761  63.7802982  70.8353043
  60.3528500  64.1635323  70.1468563  59.0580273  63.0012941  70.2987719
  59.0301561  64.6635294  71.1245394  57.8974295  63.1294060  74.9886465
  56.7480993  62.6425791  74.8497963  58.4441614  63.1204844  76.2060404
  59.3722868  63.5073614  76.3009596  57.7738476  62.7508450  77.4394798
  56.8560743  63.3387470  77.4267244  57.4384069  61.2128067  77.4859762
  56.8841457  60.9424400  76.5872002  58.7330675  60.3749180  77.6329374
  58.4046841  59.3713665  77.3624897  59.5815992  60.6643438  77.0129919
  59.0393257  60.4464197  78.6765814  56.5975761  60.8941317  78.5697031
  55.9826946  60.2441311  78.2218266  58.5852051  63.2239485  78.6256170
  59.5114088  63.9958572  78.5070324  58.1805992  62.8377342  79.8325729
  57.3915243  62.2147179  79.9290514  58.8363552  63.2271957  81.0983086
  59.8649645  63.5043573  80.8675671  58.1614780  64.4312382  81.8660831
  58.2296133  65.3197432  81.2383652  56.6279936  64.2514086  82.1918678
  56.3123417  65.1202011  82.7695084  56.1063719  64.2775869  81.2351418
  56.5115690  63.4076357  82.8720093  58.6794806  64.8040247  83.0968857
  59.6317863  64.8844719  83.0060959  58.8729334  61.9833994  82.0701599
  58.2247972  60.9711361  81.8184662  59.7638178  62.1064281  83.0852032
  60.0648928  63.0661154  83.1771564  60.1667118  60.9673882  84.0343285
  60.4858828  60.1303244  83.4134007  61.3339710  61.3448143  84.9752808
  61.4924335  60.4684877  85.6037998  62.2522163  61.4628315  84.3999577
  61.0167265  62.6078796  85.8404541  60.6984711  63.4726048  85.2581501
  60.1888084  62.4043941  86.5195942  62.3055792  62.8856373  86.5547371
  62.7926493  61.9860411  86.9310188  62.9829359  63.3609581  85.8452702
  62.0831966  63.9409447  87.6562977  61.4952183  64.7244787  87.1783257
  61.5024185  63.5694265  88.5005569  63.3799458  64.4807148  87.9977512
  63.2794905  65.2306795  88.6667538  63.9024925  63.8303375  88.5670090
  63.8445187  64.9815130  87.2537899  58.9431429  60.4801035  84.7881222
  58.8417912  59.2834187  84.9796677  57.9903269  61.2894249  85.0258541
  58.1632376  62.2481632  84.7593594  56.8062210  60.8333063  85.7815647
  57.1190262  60.3389645  86.7012787  56.1392355  62.1320820  86.1343575
  55.7988977  62.6437855  85.2341175  55.2547646  61.9224310  86.7358971
  57.0700979  63.1640768  86.8705750  57.8548956  63.9880085  86.3239956
  57.0160580  63.1673527  88.1637764  57.6770353  63.8228035  88.5556984
  56.3917303  62.5560617  88.6703682  55.8777332  59.9277878  84.9880791
  54.8556423  59.4779158  85.5321693  56.0673904  59.7466183  83.7074566
  56.7980003  60.2491283  83.2239342  55.1920700  58.9010525  82.9232025
  54.2620420  58.8142014  83.4850025  54.8319674  59.6478558  81.6187000
  55.7387590  59.7835302  81.0292721  54.1588640  59.0416670  81.0124207
  54.1040850  61.0178518  81.7078114  54.7814465  61.6551542  82.2762585
  54.0240097  61.4961576  80.7316399  52.7690554  60.8092165  82.4256516
  52.4064398  61.6077471  83.3280659  51.8646383  60.0589371  82.0654202
  55.8736134  57.5130129  82.5852585  55.3259373  56.7453384  81.7654896
  57.1416283  57.3120546  82.9794502  57.5145578  58.0222654  83.5931492
  57.8199959  56.0577202  82.8830719  57.7809525  55.8005047  81.8245792
  59.2815304  56.2004423  83.3699703  59.2945242  56.5738153  84.3939495
  59.9550533  54.8662901  83.5397148  60.9896660  55.0321245  83.8400078
  59.4234180  54.2595768  84.2727661  59.9350977  54.3918943  82.5585651
  60.0284481  57.1902657  82.3932362  59.9985361  56.8564558  81.3560390
  59.4791746  58.1304789  82.4421501  61.3886166  57.7063322  82.7776146
  62.0510101  56.8677855  82.9925346  61.8151426  58.2631445  81.9432640
  61.3491869  58.3401203  83.6635399  57.0227718  54.9198484  83.5348511
  56.2321806  55.1958752  84.4545174  57.0674372  53.7554741  82.9535294
  57.7251244  53.6682796  82.1919918  56.2466526  52.6242399  83.1295300
  55.7672977  52.6568222  84.1079235  55.3030872  52.4374533  81.8984318
  54.5378304  53.2060671  81.7902088  55.9215164  52.3588181  81.0043049
  54.4133472  51.1774635  81.8572140  54.0380716  50.6919146  80.6029415
  54.2137909  51.2646580  79.7043324  53.2543993  49.5602083  80.5037498
  52.8117371  49.3215084  79.5479918  52.9820776  48.7074995  81.5964317
  52.4600267  47.7791882  81.4172554  53.3703041  49.2159510  82.8876495
  53.0191946  48.7204933  83.7807560  54.1575432  50.4094839  83.0006695
  54.3607092  50.6617689  84.0309525  57.1143579  51.4018822  83.2296848
  57.7342367  51.0332537  82.2518444  57.1489096  50.8008909  84.3944740
  56.5027809  51.0379362  85.1336861  58.1145906  49.7261763  84.6883869
  58.9631033  49.7510767  84.0046406  58.7191629  49.9026871  86.0932064
  59.4438362  49.1642904  86.4363098  59.1934299  50.8839560  86.1099625
  57.6766920  49.9114418  87.0973778  56.8313885  50.1972008  86.7432594
  57.5114965  48.3319902  84.3890667  57.4328470  47.4504232  85.1736355
  57.1568537  48.1428766  83.0827332  57.3802710  48.9139795  82.4698830
  56.5992546  46.9749546  82.3897457  55.6003618  46.8944740  82.8185081
  56.4706326  47.3239231  80.8630943  55.9418297  48.2755470  80.8093834
  57.4513769  47.3566389  80.3885746  55.5347538  46.3019180  80.1367378
  54.6160841  46.1213875  80.6949139  55.1027250  46.9799471  78.7730408
  54.7273302  46.2532902  78.0525208  54.2316818  47.5859308  79.0223742
  55.9288645  47.6274300  78.4791613  56.2293291  45.0031567  79.8141193
  55.6861925  44.4270754  79.0649557  57.2162914  45.1623917  79.3797779
  56.1778069  44.3496466  80.6849670  57.3642206  45.6969690  82.6802826
  56.8745041  44.8528671  83.4074211  58.5589743  45.5670977  82.0574665
  58.8744497  46.3706732  81.5332031  59.4037390  44.3209982  82.1560955
  58.7270260  43.5255957  81.8438339  60.5846643  44.4278717  81.1353970
  60.1630354  44.5592737  80.1388741  61.1918354  45.2974176  81.3870525
  61.3710260  43.2996130  81.1168766  61.5220404  43.1381941  80.1826668
  59.9210930  44.0537596  83.6087513  59.9568701  44.9904823  84.4105721
  60.3778028  42.8734684  84.0062237  60.0312614  42.1203995  83.4292412
  61.0938311  42.6128244  85.2679157  60.5642080  43.1560659  86.0505390
  61.0963774  41.0857534  85.6712914  61.8309832  40.6569576  84.9896812
  61.5576029  41.0042048  86.6555214  59.6693468  40.4973364  85.7987976
  59.1037607  41.0943079  86.5142250  59.2696857  40.4858923  84.7847748
  59.6352291  39.0580988  86.2752151  58.5696125  38.8913965  86.4326096
  60.0281620  38.3752990  85.5218983  60.3004265  38.8050771  87.5374889
  61.0160732  38.0926132  87.5189018  60.1276875  39.2849374  88.7463284
  60.7982159  38.8418484  89.7848034  61.2714767  37.9504824  89.8247147
  60.6668711  39.3810701  90.6286526  59.1790247  40.1332712  89.0984344
  58.5453939  40.4122496  88.3630466  59.0074348  40.4154396  90.0529194
  62.5390053  43.1658649  85.1620865  63.1709385  43.3094835  86.1998177
  63.0988312  43.3874369  83.9838600  62.6108408  43.0715847  83.1579113
  64.3351984  44.1872549  83.6993790  65.3075361  43.8309288  84.0395164
  64.4967270  44.3388987  82.1375942  63.5658932  44.7396946  81.7363358
  65.3413630  45.0074339  81.9710159  64.7446728  43.0918312  81.3776302
  63.8928509  42.4339199  81.5498161  64.6949911  43.3153534  80.3119469
  66.1523199  42.5737238  81.6288662  67.2179937  43.0911922  81.1612129
  66.2664080  41.5562963  82.2715187  64.1854477  45.5350161  84.3723869
  65.1575232  45.9938240  85.0332928  63.0882502  46.2456894  84.2200089
  62.3299122  45.8008528  83.7228680  62.7123690  47.3521852  85.0261307
  62.0153618  47.0450926  85.8058548  63.6243820  47.8082085  85.4113293
  62.0296001  48.4105396  84.1215801  61.2258863  48.0920315  83.2794857
  62.3766851  49.6991634  84.2293644  62.9668713  50.3540230  85.3977108
  64.0533876  50.3061104  85.3249645  62.5483656  49.8909616  86.2913132
  62.4890423  51.8156576  85.3593254  63.1850052  52.4916458  85.8560944
  61.5413666  51.9672680  85.8760643  62.3188782  52.0951939  83.9107800
  63.3185148  52.2402000  83.5011387  61.6077900  52.8829670  83.6620522
  61.8743086  50.7558203  83.3032322  60.7874250  50.7269764  83.3803558
  62.4200153  50.6808853  81.8610287  61.9240952  51.4428568  81.0169411
  63.4838247  49.9032068  81.5385914  63.9990187  49.4214106  82.2614670
  64.0156841  49.7427368  80.1790905  63.2763958  49.9987841  79.4201422
  65.1224613  50.7629442  79.9697685  64.8328209  51.7103243  80.4243851
  66.0281658  50.3356123  80.4001141  65.5112600  51.1527920  78.5075665
  65.1872349  50.3321218  77.8675604  65.0201702  52.1168804  78.3754110
  67.3059845  51.3116264  78.1595039  67.7352858  49.5881033  77.8333902
  68.8086462  49.5137262  77.6588392  67.4026871  49.0262794  78.7062263
  67.2263050  49.3329239  76.9039154  64.3841505  48.3668375  79.8356915
  65.1238298  47.7410603  80.6104183  64.1750240  48.0057383  78.5225439
  63.6974382  48.6392546  77.8975105  64.4855213  46.6406775  77.9952431
  65.3687429  46.2693501  78.5149860  63.4007788  45.6465530  78.3978224
  63.6840725  45.2032185  79.3524408  62.5171280  46.2635183  78.5610151
  63.3832216  44.9140263  77.5908566  64.9481201  46.5897131  76.4875698
  64.5415783  47.4067116  75.6716490  65.7945299  45.5952597  76.2093449
  66.0635042  44.9436951  76.9326878  66.2466288  45.3558111  74.8102808
  66.2720108  46.2987804  74.2641354  67.6311016  44.7981787  74.7635508
  67.9211235  44.4446325  73.7741089  68.3360386  45.5902863  75.0159979
  67.8467607  43.9857006  75.4574347  65.2124882  44.3683624  74.1107559
  64.8909569  43.3639288  74.8142290  64.7304010  44.6366167  72.9017210
  65.1621246  45.4199219  72.4325180  63.8218784  43.8016558  72.1055126
  63.7893772  42.7725935  72.4633932  62.3907995  44.3396950  72.1043587
  62.3426771  45.3246164  71.6399050  61.7800856  43.7207174  71.4470863
  61.7843103  44.4144773  73.5091162  60.7935572  43.4539604  73.8419771
  60.5564022  42.6649904  73.1436348  60.1436186  43.5252428  75.0504827
  59.3887854  42.8061676  75.3325367  60.5370665  44.5474720  75.9555435
  59.8833561  44.6117306  77.1637964  60.4191446  44.0232277  77.7006340
  61.4192772  45.5659342  75.5863619  61.4834690  46.4121485  76.2543440
  62.0912647  45.5076551  74.3610096  62.7988148  46.2562752  74.0364552
  64.5361614  43.6418581  70.6989670  65.5892801  44.1943789  70.4431915
  63.9224386  42.9108143  69.6903467  63.0635834  42.3962641  69.8233891
  64.5512199  42.5954056  68.3891439  65.2162600  43.4122562  68.1088209
  65.5417776  41.4251804  68.5487890  66.2441063  41.7161083  69.3299389
  64.8563671  40.1148510  69.0382767  64.1239023  39.7682285  68.3092737
  65.6924582  39.4197845  69.1153145  64.4080925  40.2729034  70.0191784
  66.3226414  41.1651039  67.3078489  66.8219376  42.0812178  66.9923258
  67.1694183  40.4956579  67.4592352  65.7177496  40.8123159  66.4725399
  63.4457016  42.3601151  67.3397779  62.4735975  41.6275311  67.5229597
  63.5770178  43.0173016  66.1463261  64.3401289  43.6726570  66.0553837
  62.5612545  42.9922628  65.0669098  61.5817928  42.8408766  65.5206108
  62.5775146  44.4375134  64.4696093  61.5364695  44.5455885  64.1652346
  62.8893709  45.2547455  65.1199770  63.3438778  44.5702744  63.1437159
  64.2670918  43.8943148  62.7303362  62.8469086  45.4700327  62.3609114
  63.2096386  45.4940462  61.4186001  62.1576929  46.1273623  62.6970768
  62.8578663  41.8110657  64.0703726  63.8074875  41.0923052  64.2171574
  62.0180273  41.6089916  63.0389118  60.7824659  42.3178625  62.7734423
  60.7999134  43.3960915  62.6146221  60.1454592  42.0169592  63.6051750
  60.1451111  41.6915846  61.4889812  60.5235577  42.0868206  60.5462933
  59.0566635  41.7062807  61.5452623  60.6544638  40.2458191  61.7104006
  60.5959702  39.6164107  60.8224058  60.0021219  39.8472476  62.4873781
  62.0571709  40.3953648  62.1980286  62.2475433  39.5291948  62.8317547
  63.1822777  40.4374218  61.1253405  63.4274626  39.4742584  60.3999949
  63.8274908  41.6148567  60.9516287  63.5976553  42.2852516  61.6712475
  65.0441837  41.8209267  60.1786804  65.1101589  41.0898161  59.3729401
  64.8078775  43.1943178  59.3909407  64.5378351  44.0219402  60.0468445
  65.7728148  43.5343599  59.0149593  63.8851070  43.0105686  58.2571173
  64.2070103  42.4134159  57.0696020  63.1473541  42.5473356  56.3203621
  63.0361462  42.2617817  55.2847528  62.1755123  43.1073904  56.9852734
  61.2534094  43.3224583  56.6337395  62.6164341  43.4281921  58.2611752
  62.0773411  43.9418459  59.0434408  66.3533545  41.6709900  61.0013676
  67.4511147  41.7949629  60.4430008  66.2137270  41.3673449  62.2942400
  65.2820826  41.2140846  62.6529169  67.2713423  41.3266897  63.2260418
  66.9898224  40.6031370  63.9911032  68.0779457  40.7807875  62.7366638
  67.7778292  42.6527929  63.7578249  68.8703585  42.6681280  64.3739414
  67.0343351  43.7496281  63.6310768  66.2290907  43.7735891  63.0218887
  67.3102427  45.0128937  64.3297386  68.3903646  45.1353216  64.2494488
  66.6849661  46.2281466  63.5870790  65.6254196  46.0215139  63.4362173
  66.7798948  47.2083950  64.0542030  67.2518206  46.4209509  62.2675896
  66.4946604  46.0000277  61.1226797  65.5502129  45.4930305  61.2544918
  67.0441103  46.2755966  59.8012972  66.4632463  46.0854816  58.9108706
  68.3083439  46.8690157  59.6902609  68.7743378  47.2326899  58.4596920
  69.4580317  47.8869534  58.6213017  69.0474987  47.3098135  60.7927036
  69.9681282  47.8715086  60.7348680  68.4802151  47.1082926  62.0659494
  69.0533400  47.4008894  62.9333115  66.8749571  45.0606823  65.8222246
  65.7197809  45.1496363  66.0999250  67.8555250  44.9467993  66.6530609
  68.7226343  44.7724104  66.1653996  67.8168392  45.1371241  68.1616831
  67.0061731  44.5077801  68.5289001  69.0861034  44.6808100  68.8476372
  69.9687338  45.1614428  68.4256744  68.9691257  44.9776030  70.3453779
  69.8158646  44.5312977  70.8668566  69.0965748  46.0360670  70.5723429
  68.0916691  44.4429255  70.7090950  69.2182302  43.1412888  68.7476492
  69.2795420  42.7894735  67.7178097  70.0760460  42.7499390  69.2945576
  68.3412123  42.7317667  69.2488766  67.4647474  46.5859032  68.5965204
  67.9360867  47.5857687  67.9676676  66.6665459  46.7998362  69.6625376
  66.3857126  46.0238647  70.2448654  66.2309551  48.0757236  70.1601553
  66.8430281  48.9163637  69.8333693  64.8374462  48.4483910  69.5296574
  64.1909838  47.5799036  69.6558619  64.4819927  49.3782806  69.9735737
  64.9006748  48.7867880  68.0253983  65.0736332  50.1248360  67.5267649
  64.8510075  49.9661684  66.1982870  65.0198364  50.7541895  65.4793167
  64.7062826  48.6855602  65.8301210  64.6446943  48.3582258  64.8766232
  64.7045279  47.9092407  66.9667864  64.3418026  46.8926144  67.0027494
  66.1404943  48.1719589  71.6855955  65.4979610  47.3298073  72.3248911
  66.9865084  49.0158892  72.2803831  67.7336645  49.4231749  71.7363453
  66.9312000  49.4407940  73.6975098  66.7992783  48.5426521  74.3008709
  68.2796240  49.9943304  74.2062187  68.0848360  50.8413029  74.8640919
  68.6751366  49.2213058  74.8650885  69.3861341  50.4326773  73.1832743
  69.7249126  49.4541788  72.8428793  68.9834690  51.0671282  72.3936939
  70.5481863  51.1981153  73.7995005  70.4349136  51.5250969  74.9917412
  71.6080713  51.4821386  73.1460810  65.7143736  50.3309441  73.8336134
  65.7347155  51.3435030  73.2623148  64.7713661  49.9707460  74.7334814
  64.9637032  49.1303539  75.2596378  63.4340525  50.4848766  74.7467899
  63.3293104  51.3718843  74.1220045  62.4465275  49.3713093  74.1760731
  62.6753998  48.5341263  74.8355007  60.9760857  49.7704220  74.5441771
  60.7802773  50.7707310  74.1579914  60.2825880  49.0829515  74.0598726
  60.8778238  49.6488190  75.6229067  62.7401590  49.1432762  72.6905680
  63.8122272  49.1642380  72.4947977  62.4736643  48.1346560  72.3747110
  62.0789099  50.2556419  71.7054939  62.4102068  50.0857162  70.6810522
  60.9931707  50.1729155  71.6562939  62.3436356  51.2552691  72.0501184
  63.1774473  50.9253168  76.1571598  63.0681896  50.0466156  77.0413589
  62.9494429  52.2753668  76.3824558  62.9233694  52.8866911  75.5788994
  62.2916889  52.7851963  77.5228500  62.6902723  52.2095585  78.3582401
  62.6693392  54.2847395  77.6039982  63.7558889  54.3633890  77.5676298
  62.3538923  54.8292780  76.7140150  62.1854258  55.1030588  78.8055468
  61.1757040  54.7444916  79.0055227  62.9618835  54.8827410  80.0457668
  63.1556892  53.8285542  80.2438354  63.9246607  55.3631020  79.8713398
  62.4272251  55.3363848  80.8802986  61.9638538  56.5791607  78.4970522
  61.2818146  56.7438984  77.6629162  61.7275476  57.0936632  79.4284725
  62.9244280  56.9906521  78.1870937  60.7564020  52.5165653  77.4495125
  60.0783873  52.9526997  76.5381813  60.1719856  51.8674898  78.4260559
  60.6701183  51.4196920  79.1820002  58.6966610  51.6576099  78.5558224
  58.1146193  51.6593027  77.6342344  58.5414553  50.2033186  79.1309309
  57.5057268  49.9696255  79.3774033  59.0749407  49.1731262  78.2270098
  58.6130953  49.2155790  77.2406006  60.1520967  49.2852259  78.1034613
  59.0262127  48.2064724  78.7283134  59.2654610  50.0746155  80.3500843
  58.8782072  50.6755209  80.9908199  58.0368519  52.7833033  79.3500996
  58.4099913  53.2316875  80.4037666  57.1111727  53.4093237  78.6254549
  56.9974661  53.0614328  77.6841068  56.4873457  54.7322702  78.9460230
  56.6820908  55.0680590  79.9645615  56.9928026  55.8160973  78.0252743
  56.9503355  55.4436111  77.0017767  56.2420797  57.1316624  78.1911135
  55.3432035  56.9583702  77.5994301  56.0442781  57.2859526  79.2518568
  56.8555593  57.8834677  77.6946020  58.4964514  56.0825491  78.2019806
  58.8789177  56.8930054  77.5815058  58.4935188  56.3674450  79.2540836
  59.0198851  55.1511574  77.9860640  54.9374962  54.5815516  78.8802099
  54.4727993  53.9404345  77.9564476  54.1351032  55.2028561  79.7492313
  54.4383526  55.7814026  80.5195713  52.6857281  55.1695538  79.5472527
  52.3740149  54.1714859  79.2393637  51.8759918  55.5176306  80.7657623
  52.0792389  56.5382433  81.0900116  50.8280182  55.5062866  80.4662037
  52.0524788  54.4702530  81.9305420  51.2860775  53.3135653  81.9330406
  50.6749487  53.1173086  81.0644627  51.3258076  52.4307728  83.0415058
  50.6410646  51.5961266  83.0714130  52.1457481  52.8269434  84.1097927
  52.0598698  51.9793940  85.1983166  52.7193308  52.2610617  85.8365822
  52.8184986  54.0290451  84.1362095  53.4499311  54.3432665  84.9541092
  52.8438377  54.7805738  83.0030155  53.3632565  55.7251596  82.9369926
  52.2377968  56.1568832  78.5197020  51.2090492  55.9434843  77.9464531
  52.9361153  57.2862959  78.2826662  53.8784075  57.3258781  78.6440802
  52.3509884  58.5580492  77.7875376  51.7770529  58.4785557  76.8642902
  51.4244890  59.3124485  78.7323380  50.8129549  58.6660290  79.3618393
  52.1593952  59.7934675  79.3778038  50.5602694  60.3900862  78.0572319
  51.2679958  61.0896206  77.6123905  49.8065138  59.9084854  77.4343157
  49.8048973  61.2137842  79.1189432  48.9483690  61.5723324  78.5480642
  49.5190811  60.6285810  79.9929905  50.6307936  62.4127150  79.6622705
  51.6777563  62.2652435  79.3972874  50.3432226  63.3462191  79.1785526
  50.5627823  62.5356340  81.1403561  49.6324110  62.6062536  81.5270329
  51.0245609  61.7476320  81.5715313  51.0782528  63.3680725  81.3882160
  53.5357952  59.3513298  77.3171806  54.5507097  59.4591331  78.0084229
  53.3383179  59.8886347  76.1234570  52.3961449  59.7684240  75.7800150
  54.1692352  60.7700348  75.4152632  54.8566246  61.2659693  76.1005735
  55.0283718  59.9064541  74.5245218  55.5511713  59.1996670  75.1689053
  54.4258928  59.4523811  73.7377882  55.7876015  60.5298710  74.0522766
  53.3871698  61.8511868  74.6992397  52.1582031  61.8271208  74.7977781
  54.1231966  62.7671289  73.9872551  55.1299858  62.7397537  74.0629721
  53.5943270  63.9954805  73.3256674  52.6226807  63.6424637  72.9801559
  53.2743406  65.0781441  74.3959856  52.8094244  65.8963585  73.8460064
  52.6177120  64.7435236  75.1990891  54.7328711  65.7580423  75.3237438
  54.8985004  64.8034048  76.2435961  54.5187569  64.3985415  72.2174072
  55.6684208  63.9802790  72.1328163  54.0136909  65.0325298  71.1666441
  53.0262661  65.2441025  71.1847210  54.7578907  65.5977535  70.1023340
  54.0140867  66.1714506  69.5494032  55.7228279  66.6653109  70.6167078
  56.5661764  66.0724592  70.9708166  56.1578131  67.2144461  69.7816372
  55.1759481  67.6504135  71.6089964  54.2248487  68.4233141  71.4369583
  55.7563066  67.7217436  72.7624989  55.6005096  68.4714842  73.4210730
  56.5197659  67.0804310  72.9236031  55.4441404  64.5823908  69.1809702
  56.6594839  64.7735596  68.9181852  54.7181702  63.5029745  68.8893080
  53.7931299  63.4701014  69.2934418  55.0129223  62.4160194  67.9750919
  55.9740019  62.6281404  67.5066519  55.1198721  61.0350513  68.7377119
  54.2040253  60.9247684  69.3183661  55.0253820  60.1638651  68.0894661
  56.2780762  60.8639431  69.7768450  56.3562250  61.7852068  70.3541327
  56.0378742  59.7062397  70.6764030  56.8148422  59.6788549  71.4403868
  55.2488375  59.8818684  71.4076138  56.0459757  58.7181377  70.2162933
  57.5490713  60.6776714  68.9824009  57.5386143  59.6834230  68.5357952
  57.6656628  61.5210772  68.3018303  58.4035015  60.5892658  69.6534014
  53.8901615  62.3777342  66.9561815  52.7232218  62.5848293  67.3091507
  54.2523241  62.0392227  65.7299995  55.2485180  61.9409418  65.5956793
  53.3524847  61.6345406  64.6778727  52.3910761  62.1006250  64.8936415
  53.7683535  62.2542906  63.3894110  53.7800980  63.3309221  63.5591984
  54.8202515  62.0319939  63.2099724  52.8711510  62.0112467  62.1608973
  51.6634178  61.9696093  62.2371531  53.3870888  61.8890381  60.9868479
  52.8538370  61.2936544  60.3693819  54.3831491  61.9195986  60.8224440
  53.3232021  60.1132965  64.6084118  54.3702126  59.4735718  64.6613836
  52.1746016  59.4631672  64.5485449  51.3437939  60.0302696  64.4576883
  52.0466185  58.0749083  64.2405796  52.9083967  57.6012516  64.7107744
  50.8053112  57.5274563  64.8799419  49.9051380  57.8344154  64.3474340
  50.8386946  56.4381599  64.8593330  50.5310059  57.9192591  66.3837910
  50.3124142  58.9599276  66.6232204  49.3059587  57.0953417  66.8632221
  48.4349680  57.3567581  66.2622786  49.5613480  56.0364056  66.9024563
  48.9931297  57.3559570  67.8743219  51.6126490  57.3665285  67.2819185
  52.4910259  57.9369926  66.9800377  51.3612890  57.6325512  68.3086395
  51.7539835  56.2865782  67.2391033  51.9443226  57.8462076  62.6900291
  51.2556696  58.4950399  61.9070578  52.7233267  56.8462896  62.1734142
  53.2042217  56.2412453  62.8236151  52.6173830  56.3950491  60.7542324
  52.3031139  57.2368336  60.1371908  53.9610243  56.0242844  60.1092625
  54.3096304  55.2033567  60.7358837  53.6905479  55.5058956  58.6248446
  52.9851055  56.1684465  58.1233692  54.5621014  55.3795147  57.9825592
  53.1788540  54.5436144  58.6080408  55.0812149  57.1314335  60.1273727
  55.5115604  57.4275875  59.1707134  54.6525860  58.0637074  60.4951286
  56.1918068  56.5891218  61.0400057  57.1089602  57.1690750  60.9371376
  55.8349466  56.6232157  62.0693684  56.5000772  55.5946398  60.7174015
  51.6231871  55.2337646  60.7170153  51.8255043  54.1788769  61.2802696
  50.4711628  55.4333115  60.0569630  50.2434206  56.3325548  59.6574688
  49.4937181  54.3330050  59.7417259  48.9232159  54.6505785  58.8689280
  50.0572491  53.4496975  59.4412041  48.5637331  54.0315485  60.9162283
  48.3873796  54.8361158  61.8016291  47.8830194  52.9016066  60.6274796
  48.0206156  52.4613762  59.7289419  46.9859886  52.1140051  61.4940166
  46.3952732  52.8317642  62.0632076  46.0109758  51.3255024  60.5753613
  46.5150547  50.6899023  59.8473358  45.4799891  50.6939459  61.2876129
  45.0109720  52.1931362  59.8584795  44.1631079  52.4660492  60.4867697
  45.4660892  53.1537628  59.6173000  44.2368460  51.5050364  58.7030077
  43.9789391  50.4682922  58.9192104  43.3322048  52.0977259  58.5672235
  44.9506187  51.5969706  57.3854351  45.9350586  51.7860317  57.5088596
  44.4131756  51.9701481  56.2363911  45.1796627  52.1539450  55.2419662
  46.1637068  51.9905424  55.4002476  44.8109818  52.3273802  54.3177938
  43.1761551  52.0782375  55.9632015  42.4571609  51.7700672  56.6020918
  42.8999376  52.4229908  55.0549364  47.7621794  51.1333752  62.3579788
  48.8768482  50.8285379  61.9687319  47.2451162  50.5349350  63.4614897
  45.9085083  50.8015108  63.9955187  45.2212572  50.0927925  63.5334539
  45.5416727  51.8141603  63.8279533  45.9268999  50.6155729  65.5124187
  44.9537325  50.2900171  65.8799267  46.1011267  51.5974569  65.9524822
  47.0739794  49.5938587  65.6411266  46.6744804  48.5993958  65.8400154
  47.5950861  49.9023771  66.5474129  47.9098415  49.5990086  64.3468332
  48.9637613  49.7883081  64.5505905  47.9670382  48.2497931  63.7269783
  47.2105598  47.9542780  62.7933025  48.9745808  47.4435139  64.0762615
  49.7016573  47.6653624  64.7412729  49.1901493  46.1385536  63.5567379
  48.2965279  45.6238794  63.2036781  50.1870966  46.4131737  62.4558687
  49.7164536  46.9902134  61.6598654  51.0864210  46.8796015  62.8580666
  50.5617666  45.1472521  61.9080830  51.3742399  45.2584219  61.4089584
  49.7878647  45.2394199  64.6268320  50.2933168  45.6967497  65.6395531
  49.6595716  43.9340401  64.4743109  49.2623997  43.5399389  63.6334515
  50.1012564  42.9192781  65.4533768  50.6501293  43.4340429  66.2419510
  48.9414692  42.1107626  66.0185051  49.3004227  41.3703442  66.7333698
  47.9000711  42.8440762  66.7195892  47.0845175  42.1717978  66.9860697
  48.3620644  43.2276917  67.6292610  47.4618101  43.6135912  66.0840797
  48.3154774  41.3566113  65.0372028  48.0694294  41.9731951  64.3437433
  51.1004925  41.9563007  64.7735596  51.6316223  41.0324192  65.4114199
  51.4745378  42.1579027  63.5147476  50.8376360  42.6603746  62.9130936
  52.4267721  41.2944269  62.8600025  52.1349335  40.2442598  62.8690338
  52.5136948  41.7373562  61.3382292  51.5699625  41.8927574  60.8154297
  53.0709028  42.6706791  61.2574387  53.2235956  40.6686306  60.5649233
  53.9267778  40.1008177  61.1742067  52.4277258  39.9544239  60.3537321
  53.7675142  41.0749292  59.1608095  53.5673475  40.3480148  58.1261158
  54.5820904  41.9760513  59.1566515  53.8710213  41.4829111  63.4558439
  54.5912504  42.4732733  63.3415174  54.2651033  40.4699850  64.2188740
  53.7058258  39.6304584  64.1688442  55.5048990  40.3672838  65.0444746
  55.4749966  39.3739986  65.4923487  56.7686653  40.3746176  64.0625906
  57.0017385  41.4050627  63.7943316  57.6294136  39.8999381  64.5336437
  56.6394472  39.6950960  62.7326870  56.2751484  38.3813858  62.5944328
  56.2825966  37.9969645  61.2994957  56.0535002  37.0502234  60.8330154
  56.6541052  39.1238451  60.6238604  56.8999243  39.1228557  59.6442318
  56.8549061  40.2028751  61.4757490  57.0601702  41.2247944  61.1929941
  55.6865740  41.2458134  66.2592077  56.7313242  41.3445473  66.8811369
  54.5634460  41.8575048  66.7070866  53.7774420  41.7095613  66.0903072
  54.3914413  42.7057838  67.9141951  54.8290348  43.6805677  67.6987791
  52.9067039  42.6436663  68.3542395  52.1917248  42.8214741  67.5509357
  52.8285503  41.5866995  68.6088228  52.6552582  43.5793400  69.4214821
  51.6953611  43.5918808  69.4152403  55.1731062  42.0353079  69.1105700
  55.0585318  40.8152533  69.3235064  55.8524466  42.8649998  69.9968100
  55.9809732  43.8374519  69.7561216  56.6610241  42.3698092  71.1274290
  57.0987892  41.4169979  70.8297443  57.7706623  43.3836269  71.3906193
  57.3523712  44.3425608  71.6965246  58.3782911  43.0367804  72.2264385
  58.7602329  43.6964893  70.3491402  59.2053699  42.7990294  69.4624853
  58.7824297  41.8065882  69.4116449  60.2152348  43.3026266  68.6922598
  60.8170557  42.7959204  68.0588913  60.3663731  44.6554375  68.9885378
  61.3169384  45.6467915  68.6088324  61.9598579  45.3650618  67.7880526
  61.3490820  46.9645452  69.2290211  62.0378828  47.7535343  68.9654732
  60.4275846  47.2129631  70.2153301  60.4190493  48.1996632  70.6543732
  59.5298862  46.2177277  70.6429911  58.8087177  46.4678526  71.4070320
  59.4999933  44.9162245  70.1361418  55.8060598  41.9233704  72.3195601
  56.2569427  41.1228991  73.1237555  54.5206738  42.3929882  72.4399996
  54.2893171  43.0583620  71.7162228  53.7538481  42.3097038  73.6878347
  54.2841673  41.7767572  74.4770336  53.6253643  43.6916924  74.2352819
  53.0348253  44.2901230  73.5415649  53.0993509  43.5362244  75.1772165
  54.9061537  44.5965195  74.4541979  55.4546356  44.4772339  75.7391548
  54.9994564  43.7439680  76.3884068  56.6610861  45.0939226  76.0192394
  57.1551275  45.0431871  76.9782782  57.2516870  45.9891129  75.1082277
  58.1279135  46.5071201  75.4692030  56.5937424  46.2227058  73.8410664
  57.0291996  46.9385529  73.1596375  55.4543638  45.4574490  73.4901953
  55.0215721  45.4707909  72.5007963  52.3210287  41.7754984  73.5308552
  51.4754295  42.4031639  72.8092909  52.0128679  40.6352234  74.1704082
  52.9238033  39.9212384  75.0441170  52.9896832  40.3723955  76.0341787
  53.9406490  39.8585749  74.6565723  52.3970079  38.5058260  75.1387644
  52.5584316  38.0856061  76.1314678  52.8540802  37.8583097  74.3904924
  50.8968544  38.6500406  74.8530102  50.4453707  38.7642360  75.8385181
  50.5015945  37.7008295  74.4912529  50.8605433  39.8275018  73.8915491
  51.0267878  39.3584514  72.9217768  49.4878483  40.6063032  73.9475536
  49.1656733  41.1787939  75.0391865  48.6251736  40.5490971  72.9807568
  48.8498688  39.9917579  72.1689749  47.4266768  41.4283562  72.9597807
  46.7265654  41.0761976  72.2022057  46.8706131  41.4942694  73.8949585
  47.5436544  42.9265785  72.6059437  46.5208435  43.5885572  72.3948574
  48.7613869  43.4930563  72.5242901  49.6001673  42.9347706  72.5940752
  48.9930677  44.8685932  72.0756054  48.0970287  45.4659224  72.2441578
  49.9830723  45.6062317  72.9714251  50.8871794  45.0146532  72.8274345
  49.9966288  46.5551805  72.4353218  49.5779514  45.7566214  74.4714355
  50.1323271  44.8848486  75.3660679  50.8692932  44.1518641  75.0727797
  49.8164129  45.0343609  76.7526913  50.2709818  44.3387079  77.4424982
  48.9009047  46.0169458  77.1909761  48.5352898  45.9828949  78.5138130
  47.8323078  46.6158533  78.6774540  48.4158468  47.0216942  76.2715483
  47.8091049  47.8677511  76.5586996  48.7447405  46.8472815  74.8837852
  48.4577036  47.6206064  74.1866684  49.2966843  44.9228764  70.5322790
  49.9907303  44.0747833  69.9294043  48.7562227  45.9687853  69.9357319
  48.3342028  46.6076803  70.5943775  49.0238953  46.4366055  68.5732365
  49.2925310  45.5727816  67.9651642  47.8001404  47.0526409  68.0491352
  47.0610809  46.2514830  68.0549669  47.4606419  47.8455734  68.7155437
  48.0786991  47.4910975  67.0908737  50.1316071  47.4774981  68.6332178
  50.0526285  48.5207510  69.3537188  51.2447500  47.2694492  67.8732634
  51.2476110  46.4828682  67.2397137  52.2278929  48.3222055  67.5741768
  52.4412584  48.9614677  68.4308672  53.5384083  47.6860619  67.2037172
  54.2561102  48.4840155  67.0132542  53.9313936  47.1086264  68.0405140
  53.6319017  46.7477703  66.0233307  53.4382057  45.3911829  66.1747885
  53.1907129  44.9214077  67.1152449  53.6167240  44.7728062  64.9856710
  53.4708452  43.7940407  64.7835779  53.7015438  45.7002926  63.9363384
  53.9195204  45.5948591  62.5536013  53.8711596  44.6268845  62.0770645
  54.1962099  46.7059660  61.7925644  54.2904568  46.4846182  60.7396936
  54.1861105  47.9620266  62.3970413  54.3955135  48.8108635  61.7629862
  54.0332937  48.1400299  63.7925339  53.9768219  49.1394472  64.1979647
  53.7663651  46.9919252  64.6011543  51.6384554  49.2743731  66.5102577
  51.1507845  48.9133310  65.4322433  51.9400024  50.5646801  66.5972424
  52.1246672  50.9171724  67.5255489  51.8417645  51.6063643  65.5663872
  51.8009710  51.1252689  64.5891571  50.6679440  52.6121712  65.6186104
  50.6733131  53.3456230  66.4249086  50.6076193  53.3112574  64.2759562
  51.4981270  53.8710165  63.9900112  50.4689598  52.5383329  63.5200024
  49.7299337  53.9469814  64.1592312  49.3768501  52.0412493  65.7852745
  49.3737793  51.3731861  66.4746809  53.1875277  52.4065208  65.5608034
  53.5742617  52.9434919  66.5699959  53.8639688  52.5652170  64.4339323
  53.5529947  52.2621155  63.5220528  55.0929785  53.2946205  64.2958450
  55.7048082  52.9508305  65.1298571  55.7906485  52.9762554  62.9709387
  55.1335239  53.2432604  62.1432877  57.1943378  53.6028433  62.9334402
  57.8325462  53.1170034  63.6715126  57.5741434  53.3440018  61.9450808
  57.0969200  54.6796656  63.0715132  56.1116171  51.4525318  62.8631020
  55.9824753  51.0038805  63.8480520  55.3881884  51.0156155  62.1747351
  57.0807123  51.1498499  62.4664497  54.9609327  54.7615099  64.5301771
  54.0086985  55.3648520  64.1520071  55.9095192  55.3870821  65.2276564
  56.7250156  54.8880243  65.5532503  55.8374739  56.7936373  65.6850767
  55.0981569  57.3395205  65.0989723  55.3783369  56.8168306  67.0970631
  54.4676113  56.2330437  67.2307587  56.2007856  56.3971138  67.6763058
  55.1663828  57.8386927  67.4116707  57.1580362  57.6046419  65.5875397
  58.2286119  56.9834757  65.8724117  57.1104431  58.7962198  65.0904036
  56.1918736  59.1868687  64.9364090  58.2861233  59.7334576  64.8516273
  59.1292763  59.1764116  65.2601528  58.4349060  59.8394012  63.3177090
  58.9820576  60.7623148  63.1254959  58.9398432  58.9635277  62.9102993
  57.1469736  60.1242781  62.5794792  56.3894939  59.3425035  62.6356554
  56.6500521  60.9420872  63.1013584  57.2274733  60.6399345  61.1897802
  56.6336203  61.6998625  60.9202051  57.9853392  60.0526857  60.3223944
  58.0668116  60.4794741  59.4106293  58.5377455  59.2259884  60.4999352
  58.0947399  61.1726761  65.4754829  56.9684458  61.5633345  65.6801748
  59.2115545  61.8496037  65.8104706  60.0815916  61.4217424  65.5274963
  59.2561245  63.2570314  66.2054539  58.9917707  63.3301878  67.2603798
  60.7037210  63.7353849  66.2109804  61.0980320  63.5160685  65.2187538
  61.2320328  63.1507254  66.9640827  60.8493996  65.4682922  66.5775108
  58.3064651  64.2273474  65.3952217  58.1982994  64.2226458  64.1359282
  57.5878763  65.0594044  66.1849070  57.5611830  64.8273373  67.1675205
  56.7962360  66.2582636  65.7441282  55.9964943  65.9502172  65.0706100
  56.0640907  67.0884895  66.8641806  55.5926657  66.4291525  67.5929689
  56.8322229  67.5926304  67.4506187  55.0277376  68.0865145  66.3715553
  55.5384254  68.8585472  65.7960033  54.2785025  67.5377321  65.8009386
  54.2956066  68.7178946  67.5643730  53.6691284  67.9049778  67.9315186
  54.9818707  69.2342949  68.2355452  53.5364246  69.9035120  66.8766117
  54.2701912  70.6186962  66.5048552  52.9781723  69.4762421  66.0436106
  52.6932335  70.4802227  67.8647184  52.2102356  71.3101768  67.5516748
  52.0002317  69.8181486  68.1833220  53.2761049  70.8350468  68.6093378
  57.6697254  67.1949339  64.8926735  57.1927977  67.6399040  63.8703012
  58.8970423  67.5402117  65.3009653  59.1355371  66.9963503  66.1179304
  59.6361065  68.6175632  64.7402811  58.9460659  69.3168688  64.2681408
  60.4883909  69.2085791  65.8291674  61.2838459  68.5023022  66.0669136
  61.1451721  70.5419683  65.5324125  61.7408657  70.8648539  66.3862228
  61.8097639  70.5078602  64.6691322  60.3405094  71.2331867  65.2817345
  59.7005224  69.4408607  67.1462297  59.3289471  68.4871674  67.5210667
  60.4107094  69.8488808  67.8654337  58.4593582  70.2620268  67.0538521
  58.7474155  71.2745762  66.7712307  57.8087950  69.9169493  66.2502432
  57.9918909  70.3022289  68.0377007  60.4936981  68.2434273  63.5686111
  60.2833700  68.8815737  62.5607967  61.4748669  67.3166370  63.7035847
  61.4036798  66.8193483  64.5797920  62.4346924  66.9910812  62.7475071
  62.4794245  67.8441381  62.0704556  63.7427521  66.8752480  63.5326147
  63.9678669  67.6555204  64.2596579  64.4211054  66.8065929  62.6821899
  63.8144398  65.2489996  64.3819523  61.9559765  65.7700109  61.9849300
  62.2270441  65.5712080  60.8158970  61.2312365  64.7994184  62.5885201
  61.1288118  64.8107290  63.5932493  60.6165361  63.5721731  62.0095158
  59.9259472  63.2587862  62.7924442  59.8273420  63.8748312  60.7502747
  59.1764069  63.0316544  60.5191231  59.2934752  64.8155832  60.8847427
  60.4091835  63.7948847  59.8320341  61.5357828  62.3298311  61.8461037
  61.4126348  61.4855766  60.9463072  62.5558949  62.1541023  62.7126551
  62.8816319  62.9578876  63.2302761  63.2467699  60.8947754  62.9447651
  63.6702061  60.4181957  62.0606327  64.4528818  61.2586689  63.8897705
  64.1058064  61.6923618  64.8276138  64.8966122  60.3265524  64.2395782
  65.4429626  62.0349312  63.1998491  66.3228035  61.6511536  63.2137871
  62.2836637  59.8633242  63.5904503  61.3899136  60.2010250  64.3329620
  62.5311089  58.6123991  63.2523537  63.1393194  58.4004402  62.4743700
  61.8736172  57.5812483  64.0604019  60.7930183  57.6596832  63.9410305
  62.2465944  56.2147808  63.5683107  61.8226290  55.9656620  62.5955343
  63.3319998  56.2397242  63.4714699  62.0160198  55.0875616  64.5321941
  62.9136086  54.7288418  65.6183481  62.2486305  53.9260054  66.4381981
  62.6508999  53.5507250  67.3675823  60.9742212  53.7323093  65.9605885
  60.2827263  53.2878685  66.5474463  60.8309269  54.4515800  64.7943592
  59.9315596  54.5457554  64.2038679  62.1779442  57.6735830  65.5379057
  63.3001375  57.9516220  65.9211588  61.1946821  57.4301910  66.3825130
  60.2739859  57.2814703  65.9948301  61.4124298  57.4832201  67.8041887
  62.4541521  57.6845741  68.0539417  60.6177759  58.6049700  68.4777117
  59.5743227  58.5285854  68.1719923  60.6171083  58.4926653  70.0105619
  60.1463652  59.3462610  70.4982901  60.2052069  57.5197315  70.2786064
  61.6710901  58.5548735  70.2813959  61.1696625  60.0058556  67.8914309
  61.0229778  60.1437855  66.8201923  60.4634142  60.7100058  68.3313036
  62.5604630  60.5271482  68.2449579  63.0971003  59.8182106  67.6144552
  62.7517748  61.5293312  67.8613901  62.8386879  60.5454636  69.2986870
  61.0678577  56.1489391  68.4506559  61.9692802  55.5845976  69.1240263
  59.7915173  55.6850672  68.2517767  59.0967655  56.1251974  67.6655102
  59.2979383  54.5839834  68.9998436  60.0878048  53.8328838  68.9920139
  59.0764523  54.8941040  70.0210524  58.1013727  53.9606237  68.3565569
  57.9850006  53.8993406  67.0888662  57.2499561  53.4361315  69.2158747
  57.4949360  53.5447645  70.1896715  55.9934855  52.8579569  68.8401985
  55.6604004  53.3148146  67.9083014  56.1249733  51.3387012  68.7036657
  56.4201117  50.9061003  69.6596193  55.1671696  50.9106541  68.4078693
  57.1306419  50.9178066  67.6739454  56.7229891  50.4649830  66.4505672
  55.7033396  50.5757570  66.1122608  57.8082895  50.1672220  65.6380892
  57.6709127  49.7790861  64.7158194  58.9553404  50.2687025  66.3356924
  60.2579689  49.8211670  66.1044025  60.5480576  49.1724920  65.2910948
  61.2959003  50.2342653  67.0160341  62.3207521  49.9119854  66.9054937
  60.9499025  50.9725189  68.1798983  61.7680359  51.1890268  68.8508558
  59.5816088  51.2165785  68.4780550  59.3884754  51.5683270  69.4807386
  58.6111259  50.8669853  67.5890970  54.8989010  53.2686186  69.8652315
  55.1165009  53.1277466  71.0700417  53.7219000  53.6268950  69.5074558
  53.5737419  53.5625601  68.5104561  52.5270605  53.5628510  70.3513527
  52.8434181  53.7233543  71.3820124  51.4694071  54.6634150  70.0162792
  52.0320272  55.5848074  69.8659468  50.9376621  54.3875551  69.1056442
  50.4447174  54.8713970  71.1568165  49.7941780  54.0037251  71.2665749
  50.9667683  55.0044441  72.1043730  49.5560694  56.0883904  70.7945347
  50.2201605  56.9376135  70.9554815  49.3799400  55.9973860  69.7227192
  48.2664728  56.2427568  71.6561079  47.6825857  55.3268337  71.5651941
  48.5458422  56.1540890  72.7059603  47.3899174  57.4016571  71.4051008
  47.9514790  58.1767988  71.0827684  46.7763805  57.1902609  70.6311607
  46.7865705  57.6117802  72.1873569  51.8724966  52.1982908  70.3138494
  51.6399384  51.7447853  69.1893864  51.4943886  51.6730165  71.5214872
  51.7654276  52.2491980  72.3054886  50.9474325  50.3420591  71.7727327
  50.9216356  49.8151398  70.8189011  51.8417931  49.6305895  72.7957249
  51.9697094  50.1940441  73.7199879  51.3941956  48.7020445  73.1500673
  53.2004070  49.2624807  72.2338438  54.3007898  50.0665712  72.5204372
  54.1623783  51.0111904  73.0253458  55.5606174  49.7876120  71.8956089
  56.4259434  50.4075575  72.0780277  55.7079411  48.5804081  71.1443472
  56.6427088  48.2264853  70.7352686  54.5900106  47.6744270  70.9603834
  54.7702026  46.7344379  70.4600430  53.3057117  48.0339766  71.4892244
  52.4212170  47.4800968  71.2112141  49.5363092  50.4948568  72.3078394
  49.1796064  51.3572741  73.1634235  48.6046696  49.5945454  71.8631554
  48.9681673  49.0830898  71.0717106  47.1738386  49.6357584  72.2752237
  47.0390558  50.2556086  73.1616306  46.2568998  50.2485657  71.2301350
  45.2050591  50.0413990  71.4271355  46.5247393  51.7667723  71.1397552
  47.6092768  51.8414593  71.0604191  45.9912109  52.3818254  70.4150772
  46.3372374  52.1918011  72.1258020  46.5222168  49.8382902  69.8986006
  45.8735943  49.1732836  69.6564007  46.6553116  48.1721592  72.4261284
  46.9397974  47.2907639  71.5775490  45.9109545  47.9014730  73.4471273
  45.7449675  48.6518955  74.1024256  45.1441622  46.6513014  73.5298920
  45.9082413  45.8753681  73.5768414  44.4215870  46.6638231  74.9177647
  45.2681637  46.7660761  75.5966902  43.8800526  47.6097250  74.9072027
  43.8002348  45.7823753  75.0761080  44.2300034  46.3454151  72.3781300
  43.6859226  47.1650410  71.6300058  43.9499092  45.0553656  72.3380566
  44.4498062  44.4596672  72.9825306  43.1293344  44.3313789  71.3222694
  42.6683426  45.0709152  70.6675386  43.9947081  43.4071684  70.3648663
  43.2629013  42.9631662  69.6900177  45.0302362  44.1440582  69.5960331
  45.7194328  44.7466755  70.1876068  45.6346464  43.4034729  69.0722752
  44.5503473  44.7453451  68.8238525  44.4567490  42.3695993  71.2513685
  45.2115917  42.7437687  71.7115974  41.8776608  43.6636734  71.9399118
  41.1586046  42.9645872  71.2846565  41.7663240  43.9056349  73.2610512
  42.4890852  44.4502306  73.7095308  40.6448793  43.5233641  74.1355944
  39.7488809  43.7641382  73.5634851  40.6317663  42.0275450  74.5600939
  39.8292899  41.9006205  75.2867460  40.2868700  41.5364408  73.6501694
  41.9729042  41.4732504  75.0730085  42.6248169  41.7011929  74.2297077
  42.2427130  42.0280457  75.9716177  41.8653250  39.9669743  75.3368950
  41.0822773  39.7791100  76.0715008  41.6577768  39.4566298  74.3963814
  43.2408857  39.5434999  75.9072208  44.1045332  40.0049877  75.4284191
  43.1786728  39.7720861  76.9711685  43.4157896  38.0775261  75.8300781
  43.4350109  37.7882552  74.8625803  44.2433834  37.8621769  76.3674974
  42.6805401  37.5044322  76.2187576  40.6043243  44.4640350  75.3483725
  41.6640282  44.8468685  75.8434963  39.4378138  44.8596621  75.7907534
  38.7032485  44.4684267  75.2185249  39.1395307  46.0259724  76.7169380
  39.8577595  46.8017721  76.4516401  37.7662969  46.4914703  76.4026499
  37.0030594  45.7229996  76.5252209  37.5726604  47.2980213  77.1098137
  37.8568578  47.0865345  74.9811220  38.4207487  48.0181313  75.0285625
  38.4005451  46.4490366  74.2839146  36.5040779  47.4140835  74.4528246
  35.8740258  46.5266895  74.5134163  36.1128283  48.1316471  75.1740217
  36.5919161  48.0954361  73.0921698  37.1447349  49.0295982  73.1913519
  37.2457767  47.4993658  72.4555635  35.2728462  48.1575108  72.3867750
  35.4117584  48.5113955  71.4510536  34.8115087  47.2594690  72.4149179
  34.7526407  48.9023352  72.8280401  39.3581629  45.5915403  78.1800270
  39.1456556  46.4307976  79.0360022  39.7031832  44.3198729  78.4632111
  39.8527837  43.7831497  77.6208067  39.9465275  43.7574625  79.7851038
  39.4370222  44.3477392  80.5467319  39.3527508  42.3696089  80.0840378
  39.4775176  41.9397449  81.0778999  38.2845187  42.5845289  80.1121426
  39.6304750  41.3358068  79.0267372  40.3976250  40.3832054  79.2614031
  39.2060161  41.4623260  77.8831196  41.4614344  43.7698555  80.1451302
  41.8063307  43.8040304  81.3086414  42.3861408  43.9904165  79.2025328
  42.1015739  44.1641474  78.2491446  43.7932158  44.3023491  79.5223522
  44.2418766  43.3941984  79.9249411  44.5280266  44.4893646  78.1527185
  43.9253473  45.2143097  77.6056051  45.4947901  44.9049759  78.4368658
  44.5886278  43.1892204  77.3051167  45.1384163  42.3821306  77.7893114
  43.5420799  42.9016876  77.2042942  45.2566814  43.4251308  75.6341887
  46.9926977  43.6016655  76.1052179  47.2751999  42.6822901  76.6180944
  47.6475239  43.8883877  75.2823591  47.0469570  44.4123936  76.8317652
  43.9556122  45.5519772  80.3534794  43.2612181  46.5052271  80.1379585
  44.8886251  45.5141258  81.2839603  45.4440594  44.6749783  81.1978149
  45.3809881  46.5879917  82.1989155  44.8695755  47.5079966  81.9157887
  45.0699043  46.3775826  83.6682606  44.0163136  46.2331915  83.9074326
  45.7374573  45.5662489  83.9584351  45.3832340  47.5498247  84.3600368
  46.2621737  47.4622393  84.7360611  46.8999958  46.6632414  82.0668221
  47.5683117  45.7236338  82.4889660  47.4523115  47.8333807  81.6927910
  48.8985491  48.1135988  81.8081474  49.5235109  47.2461271  81.5959644
  49.0527821  48.4066820  82.8466129  49.1923189  49.2497301  80.7913208
  49.2871809  48.9075994  79.7607660  50.0672102  49.8585033  81.0195065
  47.9216337  50.0226688  80.8638096  47.6930046  50.6556320  80.0063801
  48.0027008  50.5897617  81.7911339  46.8253231  48.9794111  81.0657310
  46.0555696  49.3566227  81.7389965  46.1581755  48.6890268  79.7003269
  46.6164112  47.8911209  78.8821602  45.2026558  49.5657969  79.2836666
  44.9587202  50.3024006  79.9302006  44.7224426  49.6975994  77.9178858
  44.4357157  48.7006426  77.5832701  43.3816099  50.4831266  78.0234480
  43.4039354  51.2360287  78.8113165  43.2055473  50.9779978  77.0683479
  42.1382427  49.6384668  78.2993793  42.2825193  49.0693998  79.2177773
  41.3542938  50.3948832  78.2625008  41.9035387  48.5359764  77.2602987
  41.4087009  48.8230562  76.0935068  42.1920109  47.2959137  77.5585604
  42.0586920  46.5559196  76.8842220  42.6075363  47.2224951  78.4761906
  45.7723236  50.0638914  76.7751789  45.5784798  49.6792459  75.6252384
  46.7926931  50.8548927  77.0371485  46.9072580  51.2267160  77.9692030
  47.6497269  51.4999771  76.0259199  48.0836535  50.7937765  75.3180313
  46.6950178  52.4485731  75.2459574  47.3114586  52.9891825  74.5277405
  45.9804392  51.8820047  74.6488953  45.8889771  53.5369682  76.0649157
  45.1568556  53.9629650  75.3788948  45.1291990  53.1130028  76.7214918
  46.7007637  54.6772289  76.6377163  47.1548223  54.3226576  77.5630331
  47.6153088  54.9392509  76.1056852  45.7722902  55.8852148  76.9567108
  46.3643217  56.7429256  77.2759771  45.2487373  56.1288643  76.0322475
  44.8352909  55.6992388  78.0423498  45.3931427  55.3337049  78.8008308
  44.4262695  56.5701580  78.3494329  44.0705490  55.0731754  77.8342247
  48.8637877  52.1804523  76.6889906  48.8204384  52.4184275  77.9003620
  50.0039339  52.2171688  75.9370804  49.8775721  52.1131754  74.9404287
  51.3546467  52.6566505  76.4283276  51.1142206  53.5945702  76.9289255
  51.9565487  51.6389799  77.4390078  52.8140497  52.1452475  77.8822756
  51.2259769  51.4135504  78.2158899  52.3799181  50.2684736  76.8129110
  51.5216923  49.1821671  76.7186403  50.4953671  49.2710686  77.0429087
  51.8870592  48.0092382  76.0431290  51.1787510  47.2527647  75.7390833
  53.2085800  47.8842115  75.6138515  53.6053276  47.0389557  75.0711441
  54.1258860  48.8998270  75.8646441  55.1616669  48.7280416  75.6115580
  53.7226391  50.1259613  76.3934565  54.3958521  50.9647369  76.4916992
  52.2411156  52.8761721  75.1650381  51.6966867  52.9389811  74.0328884
  53.4656239  53.2864714  75.4000854  53.7361050  53.2331324  76.3717318
  54.5504236  53.6086845  74.4191980  54.3066216  53.2768965  73.4099531
  54.8870802  55.1343679  74.4948149  55.1963806  55.4287148  75.4977083
  55.6530762  55.4013109  73.7667418  53.7465620  56.1322498  74.2089272
  52.5500393  56.3239288  74.8576117  52.2739363  55.9336281  75.8260345
  51.9149637  57.4347067  74.3437719  50.9710360  57.6809311  74.6054411
  52.4210119  57.7366686  73.0902672  52.0290852  58.6555719  72.1433973
  51.2395096  59.3837786  72.2560263  52.6589966  58.5726070  70.9160805
  52.3143387  59.2143774  70.1187468  53.6438704  57.6238585  70.6534004
  53.9971495  57.4500608  69.6477222  54.0399933  56.7011976  71.6776133
  54.6830082  55.9013796  71.3411236  53.4774637  56.7848110  72.9312515
  55.8796310  53.0010700  74.8457146  56.2576342  52.9773188  76.0147238
  56.5657902  52.4264050  73.8415384  56.1297178  52.4167585  72.9305792
  58.0070257  52.0691061  73.9971256  58.3847475  52.0562315  75.0195026
  58.2389021  51.0343122  73.7450600  58.9035606  52.9304266  73.0456829
  58.8255978  53.0347919  71.8094492  59.8793030  53.6120033  73.6887121
  59.9469137  53.4467793  74.6828127  60.6844044  54.6439886  73.0157995
  60.2602148  54.9312687  72.0536995  60.6008863  55.8592749  73.9290905
  61.1507320  55.6653929  74.8500586  61.1979723  56.6077709  73.4081888
  59.2010450  56.2796783  74.3320131  58.7145567  55.5877495  75.0195169
  59.3151188  57.6072216  74.9925804  58.3969879  57.8449106  75.5298376
  60.0433779  57.5279522  75.7997084  59.4856310  58.3501577  74.2134333
  58.2838678  56.4299011  73.0849648  57.9036903  55.4689407  72.7383709
  57.3896170  57.0523787  73.0543327  58.8450050  56.9922209  72.3386288
  62.0675659  54.0799665  72.9354620  62.6605272  53.7651777  73.9597654
  62.6902485  54.0551043  71.7612934  62.1335030  54.3909216  70.9884024
  64.0782642  53.6198950  71.5561581  64.2032719  52.6689911  72.0740891
  64.4332552  53.3919907  70.0595903  64.0448046  54.2089987  69.4515562
  65.9561396  53.2077932  69.8984623  66.1415005  52.2618103  70.4072475
  66.2186813  53.2334089  68.8408661  66.5007591  53.9928961  70.4229736
  63.7649918  52.1837664  69.6497774  64.3850660  51.8302345  69.0078068
  64.9858761  54.5978069  72.2783756  64.8767853  55.7919121  72.1521235
  65.8772707  54.1365957  73.1367064  65.9370756  53.1303453  73.1998777
  66.9380426  54.8468542  74.0095520  66.3921404  55.4359484  74.7464848
  67.7755117  53.8086796  74.7023439  67.1104193  52.9999638  75.0052118
  68.5082388  53.4145927  73.9981413  68.4076309  54.3286133  76.0388708
  67.6789570  54.7173548  76.7502165  68.6515093  53.4106207  76.5735865
  69.6170807  55.2047110  75.9414911  69.3526173  56.1523771  75.4723597
  69.8642969  55.3373289  76.9947672  70.6896687  54.4825649  75.2541542
  70.5482817  53.4835720  75.2080441  71.7286921  54.8424435  74.5757151
  72.1092653  56.1327267  74.5306921  71.7012978  56.8420792  75.1227140
  72.7171564  56.4373159  73.7838364  72.4477196  54.0356636  73.8217926
  72.3720217  53.0294228  73.7787962  72.9689693  54.5123482  73.0998707
  67.7930975  55.8620739  73.2520676  67.9534674  57.0001459  73.6844540
  68.3567858  55.4666901  72.0880747  68.1396675  54.5487165  71.7271328
  69.2356205  56.3017321  71.3168049  69.8971176  56.7777443  72.0406389
  69.9881363  55.5026531  70.2331305  70.4903936  56.1157274  69.4848108
  70.7739258  54.8942518  70.6808758  69.0757179  54.5613432  69.5313597
  69.0946245  54.7180033  68.5844135  68.4647465  57.4920893  70.7061005
  69.1391325  58.4610224  70.4265785  67.0971346  57.4043846  70.6165600
  66.5827417  56.6485262  71.0457277  66.2958336  58.4965754  70.0941753
  66.8621445  59.0018034  69.3117809  64.9812555  57.8204584  69.5924568
  64.3640804  58.6409664  69.2264652  65.3671789  57.1593237  68.8165236
  64.4657183  57.2962332  70.3971291  66.0015440  59.6372604  71.0363579
  65.5057335  60.7385921  70.6923008  66.2200642  59.3078804  72.3094702
  66.5534210  58.3859968  72.5525856  65.9444427  60.2423048  73.4269571
  65.4372501  61.0927343  72.9713011  65.1552057  59.6184254  74.6848011
  65.8009863  58.8744497  75.1512480  64.9302769  60.4180813  75.3905344
  63.8061094  58.9647818  74.2891121  64.0364981  58.2286692  73.5189438
  63.2120848  58.3061504  75.5302334  62.1470642  58.1050396  75.4145670
  63.6109924  57.2933578  75.5871058  63.4076071  58.9580965  76.3816071
  62.7318716  60.0070953  73.8113451  61.7243099  59.6027040  73.7144375
  62.7648592  60.8956623  74.4417953  62.9676676  60.2780676  72.7822304
  67.2415447  60.8602142  73.9708567  68.3592892  60.4459572  73.7223673
  67.1254492  61.7493105  74.9912739  66.1497641  61.9433689  75.1658726
  68.0878401  62.3508310  75.9305811  68.6530066  61.4855528  76.2769651
  69.0566730  63.1790781  75.0816250  69.5705557  62.5606823  74.3456841
  68.3602953  64.3798065  74.3693972  67.4364042  64.1766357  73.8278818
  68.0355692  65.1088095  75.1118326  69.1022825  64.9093580  73.7717915
  70.3340244  63.6499405  75.8392811  70.0933123  64.3465519  76.6423368
  70.7949209  62.8937912  76.4748192  71.4251041  64.3477678  75.0181627
  71.6894197  63.6523151  74.2215586  71.1375761  65.3580999  74.7272015
  72.1544790  64.5737362  75.7960129  67.3805237  63.0436087  77.0997810
  66.5077353  63.8492584  76.8969488  67.7261972  62.7420807  78.3925247
  68.6267042  61.6728687  78.8871527  69.4237375  61.5212011  78.1592560
  68.0499649  60.7491779  78.9348125  69.0336704  62.1622086  80.2535725
  69.7852755  62.9510689  80.2834129  69.3083191  61.3833094  80.9648991
  67.7847338  62.9108620  80.7394695  67.9142427  63.5311794  81.6263294
  66.9709539  62.2338009  80.9991932  67.2333574  63.5987663  79.4876862
  66.1453724  63.6647129  79.4946289  67.7333260  65.0646591  79.4667912
  68.8041735  65.4428148  79.0149069  66.8491983  65.9985161  79.8811769
  66.0016394  65.5822754  80.2396297  66.7200947  67.4597740  79.6328402
  67.7150440  67.8599882  79.4378996  65.9219980  67.6586056  78.3118343
  64.9430847  67.1792078  78.3095932  65.7261515  69.1221571  77.9827452
  64.8310566  69.5222950  78.4589720  66.5888739  69.7445631  78.2202721
  65.6323099  69.2708349  76.9070148  66.7143154  67.1218014  77.2958422
  66.4701223  66.2074375  77.1348810  66.1428499  68.2017136  80.8301449
  65.1731348  67.7414942  81.4357948  66.6713190  69.2758417  81.1983395
  63.1382227  65.8534527  66.7718744  62.0075035  43.1622076  45.7787657
  62.4985170  42.7023220  46.5320969  61.9925833  42.6156664  44.9295473
  61.0679197  43.3343649  46.1068487  62.6913738  44.4207096  45.4483557
  63.6588335  44.1455793  45.0283146  61.9569540  45.2620125  44.3721151
  60.9934759  45.6332684  44.7213650  62.5629187  46.1064243  44.0436602
  61.5753651  44.4930649  43.1169415  60.3020620  44.0562439  42.9290295
  59.5338202  44.3555021  43.6266327  60.0234556  43.1556559  41.8381405
  59.0508223  42.7092886  41.6927242  60.9943771  42.9218006  40.8426285
  60.7000923  42.3379374  39.9830389  62.2577810  43.4898329  41.0304689
  63.0774546  43.2351017  40.3749990  62.5914145  44.1587496  42.1805525
  63.5879230  44.5161867  42.3941135  62.7698517  45.3629255  46.5794897
  61.9790602  45.2268744  47.5138617  63.6227226  46.3682222  46.5801620
  64.1828203  46.3650179  45.7396984  63.9819670  47.3624802  47.6023245
  63.0604935  47.5040340  48.1670856  65.0814390  46.7348194  48.5891867
  64.5666695  45.8738184  49.0155602  66.4493036  46.4054298  47.9055738
  67.1845722  45.9425688  48.5637808  66.2924719  45.7622862  47.0396233
  66.8875790  47.3452473  47.5697708  65.2798319  47.7502489  49.6613216
  65.9404135  48.5295820  49.2813587  64.3136168  48.1720114  49.9381638
  65.8908415  47.2043514  50.9149647  65.9568262  47.9871082  51.6706324
  65.2095747  46.4029074  51.2007380  66.9295216  46.9427729  50.7129335
  64.3061018  48.6045790  46.8494892  64.9499321  48.5257530  45.8049965
  64.0424776  49.8117018  47.3933411  63.4895849  49.9399996  48.2287788
  64.6705961  51.0502577  47.0215225  65.5412722  50.7495546  46.4387751
  63.7945271  51.7887545  45.9588432  64.3344736  52.5821972  45.4421186
  63.2787180  50.9450245  44.8018312  64.1976213  50.5200815  44.3979216
  62.5355053  50.2406931  45.1755381  62.9232597  51.4744329  43.9178181
  62.5337982  52.4130964  46.4991283  62.8381348  53.2564926  47.1189404
  61.8901157  52.7606058  45.6910324  61.9495964  51.6890097  47.0670271
  65.0907707  51.8685341  48.2476616  64.8397255  51.5231848  49.4266605
  65.9655190  52.8945160  48.0306625  66.2650681  53.0142212  47.0735598
  66.2020063  53.9618635  49.0242577  66.6860676  54.7649717  48.4685659
  65.3284264  54.4705153  49.4319725  67.1543503  53.6124945  50.2004528
  67.6086378  54.4487810  50.9497595  67.5322962  52.3346472  50.2222204
  67.1581984  51.7897987  49.4584846  68.4391165  51.7376947  51.1534166
  69.0673542  51.0046387  50.6474066  69.1118574  52.5223637  51.4995623
  67.7845955  50.9880924  52.3282623  68.5033798  50.4231787  53.1616020
  66.4064121  50.9481096  52.3132515  65.9504271  51.2264729  51.4561129
  65.6928158  50.3286886  53.4752989  66.1018324  49.3565226  53.7504482
  65.8435440  51.2099123  54.7032166  65.4138231  50.5633259  55.4683113
  66.9143391  51.3659620  54.8341751  65.0998211  52.5501251  54.6618128
  65.4635143  53.2310438  53.8922834  64.0717411  52.2529268  54.4548845
  65.1139069  53.4044552  55.8903980  64.3030310  54.1109324  55.7130098
  64.8795557  52.8508282  56.7996168  66.4173222  54.1417170  56.1728001
  67.2753191  53.4789467  56.2853718  66.6653395  54.7682667  55.3160429
  66.3155651  54.8930216  57.4275684  65.6489992  54.4397783  58.0361414
  67.1206999  54.9659157  58.0329990  65.8617067  55.7816458  57.2711515
  64.2009974  50.0104046  53.1941938  63.6289406  49.3921995  54.0372801
  63.6129093  50.3732729  52.0543718  64.1978359  50.9187126  51.4375544
  62.1297550  50.5777979  51.9853258  61.7255831  50.4295778  52.9867172
  61.7455959  51.9269705  51.3998365  62.2310162  51.9742346  50.4250431
  60.6799269  52.0999575  51.2497425  62.2265530  53.1200886  52.2198677
  61.4692736  53.6778021  53.2852030  60.5687618  53.2300329  53.6788845
  61.9646597  54.7895002  53.9300823  61.4571524  55.1162863  54.8256540
  63.1948709  55.4593229  53.5621786  63.6990309  56.4358473  54.3443489
  63.2328272  56.6638899  55.1519728  63.9284182  54.9252224  52.5102043
  64.7965288  55.4629135  52.1585369  63.4039307  53.7990522  51.7522669
  63.8761282  53.4145975  50.8602905  61.6504431  49.5361710  50.9983444
  61.7080927  49.6790314  49.7875738  61.3231611  48.3721972  51.5840244
  61.2628269  48.3889246  52.5920820  61.1690569  47.0779657  50.8671522
  61.8473816  47.1196318  50.0149536  61.8005466  45.9754658  51.7256641
  62.7825165  46.3300228  52.0389080  61.1815691  45.9492016  52.6224804
  61.8568659  44.6099949  51.0046148  60.9113026  44.3467903  50.5305529
  62.6745987  44.8003912  50.3095150  62.3217487  43.4094286  51.8993807
  63.3871603  43.5287333  52.0962667  61.7385006  43.3679438  52.8192759
  62.2310781  42.1552896  51.0639954  61.8879175  42.3869371  50.0556898
  63.1864834  41.6758394  50.8508492  61.1607933  41.3720369  51.7193747
  61.4716578  40.8735132  52.5409269  60.4202938  42.0213223  51.9434214
  60.7284260  40.6770945  51.1275816  59.7345543  46.7882156  50.4063463
  58.8360262  46.9500542  51.2298298  59.6343613  46.5814638  49.1050816
  60.5263948  46.4828873  48.6417675  58.4014320  46.6701508  48.3570099
  57.9043531  47.5719261  48.7145185  58.6491966  46.9981766  46.8651772
  59.3314266  46.3020468  46.3772583  57.6915884  46.8825293  46.3575220
  58.9873457  48.4934235  46.6274261  58.4556484  49.1458464  47.3200655
  60.5316448  48.6992550  46.8386507  61.0315704  47.8962564  46.2970161
  60.7630062  49.7137976  46.5141821  60.6604719  48.6937046  47.9209995
  58.5775423  48.9564276  45.2296686  59.0242577  48.3216524  44.4644213
  57.4936152  49.0667582  45.1977110  59.1581249  49.8693895  45.0972891
  57.4270010  45.4786968  48.4881926  57.8620291  44.3385124  48.8141346
  56.1281919  45.7009792  48.3795071  55.7956839  46.6259003  48.1470060
  55.1229620  44.7066879  48.8392878  55.7058287  43.8166380  49.0763187
  54.5861626  45.2283382  50.2502918  54.2074156  46.2381458  50.0923824
  53.3971500  44.4151306  50.7362986  52.9876423  44.8688316  51.6388321
  52.5418425  44.4133234  50.0606203  53.7321138  43.3810425  50.8172512
  55.5977011  45.3315735  51.3031721  55.1350021  45.8859682  52.1196651
  55.9658337  44.3552542  51.6184092  56.4095259  45.9405422  50.9054327
  54.0133953  44.3105698  47.8732729  53.6595631  43.1285381  47.6819277
  53.3641577  45.3272057  47.2739124  53.5367680  46.2569475  47.6287127
  52.4018288  45.2566099  46.1288452  52.8442717  44.5183945  45.4599810
  51.0343218  44.7361326  46.5214396  50.4866123  44.5717096  45.5934906
  51.0870934  43.8155365  47.1026611  50.1521873  45.7127762  47.3652744
  50.6396627  45.8415270  48.3316517  50.0921249  46.6964340  46.8995476
  48.7683773  45.1723242  47.7119780  48.2522249  45.9023333  48.3354950
  48.1897354  45.1590395  46.7883444  48.8031149  43.8304901  48.3442640
  48.7376022  43.0001450  47.7730036  48.9647770  43.6092806  49.6178961
  48.8786411  44.5090723  50.5443573  48.5972643  45.4599476  50.3526115
  49.2509556  44.2547560  51.4481306  49.3926001  42.4171019  50.0069904
  49.4063616  41.6604090  49.3381643  49.3791962  42.2055435  50.9944916
  52.2561979  46.6316652  45.4707766  52.3837185  47.6486111  46.1347580
  51.9072199  46.5863371  44.1943407  51.7303896  45.6507587  43.8574123
  51.4092827  47.7439499  43.4913397  52.1291494  48.5600138  43.5541058
  51.1164331  47.3876667  42.0637226  51.9301987  46.8779373  41.5479183
  50.1941586  46.8076611  42.0304155  50.8574390  48.6224127  41.1881876
  50.0891733  49.2639494  41.6198158  51.7302132  49.2687225  41.0951900
  50.4580927  48.2117367  39.7798204  51.2809372  47.6262522  39.3696499
  49.5003891  47.6975536  39.6990728  50.3542042  49.4718122  38.9509845
  49.5847940  50.1063061  39.3909025  51.3023138  49.9865389  39.1066909
  50.1846504  49.3063354  37.5020337  49.2001915  49.3768311  37.2876287
  50.6797838  50.0285149  36.9986415  50.4354620  48.3695507  37.2198415
  50.0835085  48.2068348  44.2210913  49.2847824  47.3867178  44.6296310
  49.8250580  49.5118475  44.3554258  50.5604267  50.1461506  44.0779448
  48.5589123  50.0947046  44.8909378  47.7302551  49.3873167  44.8587704
  48.7108326  50.5032682  46.4219570  47.8390026  50.9861040  46.8634176
  49.0756559  49.3140793  47.2732162  50.1145649  49.0069246  47.1531057
  48.9429092  49.6803474  48.2912159  48.4691525  48.4427261  47.0262337
  49.8385048  51.4843559  46.5299559  50.7603598  50.9797430  46.2407351
  49.6975088  52.2898149  45.8092260  50.1113367  52.0481730  47.9705572
  49.1901731  52.4411488  48.4008360  50.5960417  51.3060570  48.6049271
  50.7858562  52.9011822  47.8963947  48.0617332  51.3994694  44.0640116
  47.2847509  52.2022200  44.5756245  48.6789751  51.6153336  42.8726959
  49.2414951  50.8349752  42.5649595  48.2240915  52.6971149  42.0097828
  47.2027731  52.3416615  41.8731546  48.4084940  53.6847448  42.4324942
  48.9652443  52.7925253  40.6583214  49.9240541  52.0922136  40.4722404
  48.6267185  53.7990379  39.7953272  47.7995253  54.2694616  40.1337814
  49.0480566  54.0124607  38.3787870  50.1364517  54.0369034  38.3249044
  48.5501337  52.8542137  37.4442101  48.8326788  51.8799400  37.8430319
  47.4745464  52.8524160  37.2675180  49.3332148  52.9390955  36.2644720
  50.2545071  52.7519321  36.4588785  48.4702826  55.3233624  37.7906775
  47.4503088  55.8773613  38.1670403  49.2698383  55.8972979  36.8703437
  50.1126528  55.4252863  36.5754509  49.0453434  57.0733261  36.0722780
  47.9840088  57.1594906  35.8393717  49.2733335  57.9715681  36.6461062
  49.8096371  57.0415545  34.7666430  50.3553152  56.0252428  34.3035626
  49.7650814  58.1156588  34.0732741  49.2751455  58.9205980  34.4367838
  50.3979588  58.3729362  32.7180910  50.0684547  57.5430393  32.0929551
  49.8521376  59.7330999  32.2668958  49.9542761  60.3920174  33.1291556
  50.3680849  60.2788401  31.4769220  48.5235643  59.7128153  31.9316554
  48.5776329  59.6369791  30.9761786  51.9364929  58.3175135  32.7905202
  52.6104450  57.8796387  31.8741894  52.5053358  58.7750769  33.9256930
  51.9619179  59.1665888  34.6816778  53.9387321  58.6403131  34.1498923
  54.5076227  59.0146971  33.2988310  54.3038368  59.5080090  35.3477073
  55.3873968  59.5345402  35.4630399  54.0806580  60.5576801  35.1567125
  53.7192583  59.0428591  36.7408085  52.3611307  59.4065332  36.9739318
  51.9580221  60.1810074  36.3382554  51.6245556  58.7287283  37.9462957
  50.6511402  59.1187572  38.2046318  52.2704268  57.8115702  38.7942672
  51.8019438  57.5260401  39.7245407  53.6365318  57.4397230  38.5912943
  54.1453457  56.7754078  39.2740774  54.3675232  58.1340075  37.5946450
  55.3840399  57.8473806  37.3689532  54.4321346  57.2088623  34.3817616
  55.5608368  56.9095421  34.0069485  53.6199141  56.3481808  35.0573039
  52.6444340  56.5545511  35.2184081  54.0895224  55.1337433  35.7717061
  53.9628744  54.2890501  35.0945401  55.1256418  55.1405621  36.1100960
  53.1119108  54.8467588  36.9321346  51.9015503  55.0041914  36.8296981
  53.6723995  54.1942072  37.9725361  54.6787405  54.1085482  37.9791689
  52.9201984  53.5010004  39.0749407  51.8360662  53.6137676  39.0686512
  53.1950521  52.0106792  38.9156055  54.2657804  51.8295765  39.0096831
  52.6338387  51.5967703  39.7533464  52.6858616  51.5145731  37.5310659
  51.5810299  51.8548822  37.0762777  53.4580660  50.7303381  36.9786167
  53.3009529  53.8835955  40.4947615  54.1272926  54.6831608  40.7741785
  52.6095247  53.2694054  41.4943552  51.8776560  52.6365614  41.2045622
  52.8309965  53.4322500  42.9356575  53.8680553  53.7314272  43.0876827
  51.8413401  54.4182205  43.6716366  50.8567810  53.9505529  43.6656046
  52.2226954  54.6180868  45.0896597  51.4998245  55.2415037  45.6158829
  52.2894287  53.7061167  45.6829262  53.1733418  55.1497078  45.0478363
  51.7111540  55.8366823  42.9785776  51.2737846  56.4226723  43.7869263
  52.7332640  56.0739470  42.6834583  50.7476664  55.9463930  41.7390013
  51.2092495  55.6166649  40.8082342  49.8382854  55.3716850  41.9146204
  50.4644394  56.9836664  41.5602636  52.6135778  52.0795918  43.6049318
  51.7131329  51.3241529  43.3249950  53.5639858  51.8365955  44.5084572
  54.2577171  52.5626516  44.6165133  53.6194992  50.6605673  45.3628588
  52.8003407  49.9873638  45.1101255  54.9902439  49.9216938  45.0069952
  55.7680178  50.6821012  44.9365950  55.2036953  49.2501831  45.8386326
  54.9044704  49.0573549  43.7977362  55.0639677  49.6392298  42.5117111
  55.1697206  50.7123899  42.4521732  54.8930979  48.8762283  41.3289881
  54.9096584  49.3797970  40.3737164  54.8223066  47.4282312  41.3851786
  54.7051811  46.6592884  40.2653885  54.6357012  47.1595001  39.4489574
  54.7316027  46.8565559  42.6142740  54.7393179  45.7830667  42.7324724
  54.7452641  47.6481104  43.8559008  54.7802496  47.2061968  44.8407269
  53.6061001  51.0170889  46.8287182  54.0615511  52.0377684  47.3400736
  53.0642509  50.0502396  47.6056767  52.8106308  49.2242241  47.0827246
  53.3011293  49.8350477  49.0742874  53.2000875  50.8033848  49.5644045
  52.2214079  48.8336325  49.6198416  51.2425518  49.2654371  49.4113064
  52.1954966  47.8507042  49.1494226  52.3367500  48.5646391  51.1975527
  53.3428955  48.2150698  51.4290094  52.0349169  49.7724581  51.9766045
  52.2159576  49.6805096  53.0475235  52.6330757  50.6318426  51.6736794
  51.0082579  50.0862408  51.7878723  51.3070488  47.4972057  51.6673851
  50.2854109  47.8317261  51.4872360  51.5283251  46.5068483  51.2694740
  51.2574530  47.3571062  52.7472067  54.6947956  49.2208004  49.3864346
  55.0721645  48.2725143  48.7552071  55.4690981  49.9027157  50.3261995
  55.1676655  50.8153248  50.6366587  56.7661524  49.4432735  50.8240604
  56.8480778  48.3664751  50.6760979  57.8288889  50.0675821  49.9830246
  58.6408615  49.3435287  50.0504732  57.5911140  50.2684450  48.9384127
  58.1159687  51.0021210  50.4650211  56.8888760  49.5686388  52.3138618
  56.4141130  50.5048466  52.9480267  57.4116230  48.5524559  52.9655552
  57.7421093  47.8111029  52.3644924  57.5565815  48.4533453  54.4559526
  57.0207071  49.2339087  54.9960184  57.2586441  47.4718285  54.8246765
  59.0769386  48.6264658  54.8473740  59.9649048  47.9721308  54.2574787
  59.3318033  49.3155241  55.9855366  58.5377169  49.7045851  56.4735508
  60.6288576  49.7841835  56.4219427  61.3304853  49.9594355  55.6064034
  60.4385710  51.1514711  57.1266079  60.0057650  51.9107533  56.4752483
  59.8085213  50.9189510  57.9851341  61.7160702  51.7138672  57.6230049
  62.7232265  51.1065578  57.9022455  61.7855787  53.0187845  57.7813244
  62.6450634  53.5011673  58.0019808  60.9429169  53.5747242  57.7505064
  61.2153721  48.6959171  57.2885227  60.8317375  48.4714365  58.4584332
  62.2725344  48.0420828  56.7805195  62.7817822  48.3443356  55.9623480
  63.0450916  46.8928146  57.4617958  62.2897577  46.1351824  57.6705074
  64.1332388  46.3403988  56.6016817  64.4699860  45.4370403  57.1102524
  63.5342216  45.8565903  55.2721167  62.5633717  45.3924847  55.4457664
  63.5229540  46.6759539  54.5533562  64.1051531  45.0426960  54.8252249
  65.3459930  47.3597288  56.4645815  65.0047874  48.3942747  56.5020084
  65.8104324  47.2779703  57.4472952  66.4337826  47.1598577  55.3898335
  67.2316742  47.8982067  55.4693413  66.8062162  46.1572838  55.6001663
  66.0043669  47.0352793  54.3957615  63.4154463  47.3327875  58.9188147
  63.4724379  46.4978647  59.8213768  63.7920570  48.6086512  59.1884470
  63.4701777  49.3701887  58.6083126  64.3979359  48.8936520  60.4089355
  65.2468586  48.2531595  60.6481075  65.1325035  50.2946281  60.3104591
  65.6745481  50.5042791  61.2326002  66.1612988  50.3259563  59.0953875
  66.9241333  49.5719051  59.2892647  65.6229496  50.1252413  58.1691074
  66.6151905  51.3021374  58.9246511  64.1931820  51.3374615  60.1923752
  63.8514566  51.2219858  59.3027210  63.4192276  48.9390802  61.5753508
  63.8603544  48.6051273  62.7088881  62.1560192  49.3499613  61.3760710
  61.8473387  49.6079683  60.4496479  61.2652302  49.7769499  62.4509573
  61.4802313  49.1110229  63.2866716  61.5875196  51.3048506  62.7411509
  61.0536814  51.7413187  63.5853100  62.6641035  51.2626076  62.9063177
  61.4253283  52.2064447  61.5016603  60.5640507  52.0473814  60.6238651
  62.2195768  53.2084513  61.4080906  62.0605850  53.9423180  60.7326174
  62.8248167  53.3886290  62.1963310  59.8123980  49.5442057  62.0190239
  58.9695072  49.9099350  62.8448057  59.4774723  49.0243006  60.8744621
  60.1973391  48.7579250  60.2180052  58.0537271  48.7321377  60.5167150
  58.0544710  47.9787922  59.7289515  57.6048851  48.4005356  61.4530277
  57.1938848  49.8493576  59.9434757  55.9978628  49.6879673  59.6850061
  57.7911043  50.9832144  59.7578907  58.6511612  51.2192822  60.2318907
  57.1792078  52.1457005  59.0509272  56.3303375  52.4669743  59.6545029
  58.2163239  53.3054209  58.8899803  58.3841801  53.6946440  59.8941851
  59.1721630  52.8638411  58.6080456  57.8935814  54.3892860  57.9280567
  58.1258774  54.0394258  56.9222069  56.8465185  54.6787548  58.0173254
  58.8278532  55.5839348  58.0703926  58.2953596  56.6810703  58.2639313
  60.0586271  55.4078436  57.9861975  56.6308975  51.7326212  57.6539326
  57.3039865  51.0794735  56.8907976  55.4259634  52.2157717  57.3827410
  54.8810530  52.5531960  58.1633282  54.7703457  52.0219517  56.1249733
  55.3131723  51.2232590  55.6194735  53.3731651  51.3530731  56.3364887
  53.0893755  50.8975363  55.3877831  53.5921621  50.5136013  56.9963551
  52.3174810  52.2865629  56.8761301  52.4392319  52.6419115  57.8993607
  52.2420120  53.1450605  56.2087631  50.9600353  51.6153049  56.9311571
  49.9770117  52.2793531  56.5762901  50.8618116  50.3808641  57.2495222
  54.6918011  53.3109283  55.2822733  54.3222046  54.3555260  55.7635689
  55.0519180  53.1840134  54.0259361  55.2031422  52.2674465  53.6295271
  55.2603912  54.3360806  53.1449318  54.4577837  55.0138474  53.4357119
  56.6335630  55.0094032  53.1516075  56.8559456  55.5154657  52.2121668
  56.7960596  55.9805155  54.2602730  57.7219725  56.5139580  54.0452719
  55.9275007  56.6377068  54.2177391  56.8660927  55.5523968  55.2602291
  57.7408218  53.9842033  53.4393358  57.6033211  53.0980730  52.8196812
  58.7158585  54.4478512  53.2895184  57.6645613  53.5434866  54.4333458
  54.8131514  54.0134764  51.6918373  54.8936892  52.8257561  51.3376522
  54.3747616  54.9767494  50.8765316  54.5844221  55.9052038  51.2143469
  54.2958307  54.8092556  49.4047403  53.8409376  53.8346338  49.2278481
  53.3768320  55.9224272  48.7782288  53.9536762  56.8152809  49.0193939
  53.1719208  55.7205772  47.7268600  52.4722385  55.9429026  49.3860149
  55.7193804  54.8611164  48.7607813  56.7179537  55.4664373  49.2832041
  55.8035183  54.3487787  47.5241280  54.9796295  53.8477516  47.2236490
  56.9856596  54.3485832  46.6741562  57.7004099  55.0414944  47.1181393
  57.8062391  53.0472279  46.7533827  57.2448397  52.1601391  46.4601183
  59.0026665  53.1584311  45.8473110  58.8332319  53.3783054  44.7932482
  59.6590710  53.9538240  46.2002754  59.6744728  52.3156357  46.0100174
  58.2465506  52.8857374  48.1831026  57.4164915  52.8265953  48.8870955
  58.9503956  52.0575047  48.2651567  58.7227297  53.8294125  48.4492493
  56.3855076  54.6978045  45.2460527  55.7065153  53.8851261  44.6991873
  56.5295124  55.9258795  44.6649981  57.2601891  56.4317989  45.1448631
  56.2391376  56.2909651  43.2855654  55.4080725  55.6718588  42.9477215
  55.8505440  57.8408957  43.2347870  55.2814102  58.0083847  44.1491890
  56.8059683  58.3652401  43.2165670  55.0997210  58.2610750  42.0045948
  55.6294394  58.3464718  41.0557985  54.3290472  57.5211143  41.7886877
  54.4632053  59.6570206  42.2855759  53.7595940  59.5013571  43.1033754
  55.2617550  60.3960848  42.3504877  53.5767031  60.1776028  41.0546207
  54.1801643  60.2436113  40.1493120  52.7538013  59.5002842  40.8261967
  52.8323555  61.4675045  41.2843704  53.5339403  62.1829081  41.4112091
  52.2057772  61.7296600  40.5368567  52.2511292  61.4273643  42.1093941
  57.4487352  55.9507275  42.3840809  58.6191273  56.1711359  42.7543449
  57.1854973  55.5064154  41.1925840  56.2004995  55.4564524  40.9749126
  58.2194233  55.2787161  40.1443338  58.9995718  56.0330248  40.2467299
  58.9836025  53.9881897  40.4649115  59.9863815  54.1032076  40.0534439
  59.0269756  53.8854647  41.5491962  58.2865953  52.7047682  39.8346782
  58.0512714  52.7873039  38.7735891  59.1338444  51.4421082  40.0754929
  58.7445641  50.6917095  39.3874025  60.1755857  51.6945839  39.8776746
  59.0039778  51.0616350  41.0886431  56.9173098  52.3161697  40.4677248
  57.0080090  52.3601580  41.5530539  56.1958027  53.0559301  40.1209116
  56.4785910  51.3727474  40.1427841  57.7043486  55.4136848  38.7029362
  56.5200996  55.2088356  38.4750938  58.4525871  55.9406900  37.7483082
  59.4273090  56.1200380  37.9428768  58.1652021  56.1626244  36.3426161
  57.1730804  56.6123962  36.3038659  59.2300081  57.2894716  35.9216380
  60.1553392  57.2055674  36.4915705  59.4138813  57.0679522  34.8703384
  58.6330700  58.7287235  35.9144568  57.8171492  58.7985182  35.1950788
  58.2803774  58.9577484  36.9200706  59.7283077  59.8346519  35.7404757
  60.8882856  59.4772291  35.4881692  59.3217850  61.0465336  35.7704711
  58.2431889  54.9142504  35.4622865  58.9053392  53.9302731  35.7280064
  57.5123167  55.0665188  34.4083571  57.1037054  55.9744358  34.2385697
  57.5303030  54.1462946  33.2476139  57.3228216  53.1155443  33.5350180
  56.5145063  54.7208881  32.2958899  55.5528069  54.4911242  32.7546310
  56.7147446  55.7828617  32.1537352  56.4823866  54.0640306  31.0357809
  56.0912609  54.5449352  30.3027391  58.8223600  54.3000078  32.5473475
  59.4709349  55.3464699  32.5753760  59.2309618  53.1460047  31.9014239
  58.6661530  52.3094654  31.8653512  60.5435371  52.9570436  31.2194514
  61.3034153  53.1886530  31.9658041  60.6410265  51.4177656  30.7150221
  60.1558208  50.7678843  31.4432597  60.1294231  51.4834833  29.7547913
  62.0668030  50.9978962  30.4101396  61.9176388  50.0395393  29.9127436
  62.6530695  51.6788578  29.7931409  62.9296589  50.6638384  31.6332912
  62.5843382  50.7605267  32.8107309  64.0447712  50.1034927  31.3564992
  64.4870138  49.5770788  32.0963693  64.4378042  50.2050495  30.4316688
  60.7619333  53.9480925  29.9847770  60.1470757  53.8133144  28.9275122
  61.6681337  54.9028111  30.0890326  62.1978235  54.8923588  30.9489274
  61.8128443  56.1000776  29.2332578  62.4517012  56.8379402  29.7185612
  62.4506044  55.7247162  27.9001975  61.8576241  55.1073647  27.2254014
  62.5591564  56.6608667  27.3525310  63.8357830  55.1410103  28.0135798
  64.4588184  55.8542967  28.5531569  63.7418461  54.1804934  28.5202169
  64.5465136  55.0310087  26.6871762  64.0820122  54.3607759  25.9639025
  64.5064831  55.9866524  26.1644483  65.9816742  54.3671465  26.6453433
  65.9897900  53.4081364  27.1633601  66.1767197  54.1323996  25.5989385
  67.0414448  55.2601004  27.1383834  66.8354797  55.6801319  28.0335093
  67.8874207  54.7141600  27.2181869  67.0339632  56.0382366  26.4945245
  60.5368614  56.8871212  28.9816976  60.1028204  57.0544481  27.8203654
  59.9313164  57.4045849  30.0240445  60.3582716  57.2659636  30.9288120
  58.5883808  57.7939558  30.1927090  58.0294895  56.8704510  30.0414538
  58.2703495  58.3006573  31.6334629  59.0252113  59.0472507  31.8802166
  57.3145390  58.8200617  31.5645671  58.2976818  57.5060368  32.3790741
  58.2575083  58.9416265  29.2154646  59.0482235  59.8906994  28.9729738
  57.0842838  58.9277172  28.5776615  56.3692284  58.2574558  28.8216805
  56.6838455  59.9303246  27.6186943  57.5400305  60.3546143  27.0942736
  55.8733892  59.2456293  26.5542030  56.4345503  58.6436510  25.8394885
  55.2073288  58.5383129  27.0483375  54.9874449  60.1932907  25.6782269
  54.2890358  60.6708813  26.3654280  55.5917454  60.8480072  25.0503230
  54.1674566  59.4512415  24.6105599  53.5652256  58.7240887  25.1552343
  53.4731913  60.0970840  24.0729880  54.8870897  58.7224531  23.5965800
  55.7571983  59.1342974  23.2909703  54.5624971  57.5786924  23.0199838
  53.3893394  56.9882011  23.1282473  52.6576757  57.4242496  23.6710501
  53.1650591  56.0648251  22.7859473  55.4160118  56.8892717  22.2437954
  56.4126682  57.0140266  22.1378994  54.9951935  56.1278820  21.7306781
  55.9990788  61.1617756  28.3212996  56.0453558  62.2125435  27.7223945
  55.5043936  61.0147238  29.5402789  55.6646109  60.1225853  29.9858284
  54.8939180  62.1333218  30.3736305  55.1448536  63.1071901  29.9532485
  53.3794594  61.9332743  30.2853823  53.2095289  60.8808661  30.5126739
  52.8902626  62.5288963  31.0561085  52.7646399  62.3030090  28.9920855
  51.5766573  61.5763140  28.5733223  51.2917328  62.1846771  27.3919153
  50.6018353  61.7477083  26.6851616  52.1570730  63.2122898  27.0953655
  52.1942091  63.6862564  26.2042546  53.0928278  63.2836151  28.1049395
  53.8829517  64.0132809  28.2033873  55.5355787  62.1871948  31.7725492
  54.9177551  61.7187786  32.6933551  56.7919111  62.5684404  31.8761706
  57.6833153  63.1104612  30.8087349  57.3021364  64.0917826  30.5262375
  57.6828957  62.4490929  29.9423122  59.0550375  63.3722687  31.3718653
  59.2232275  64.3788624  31.7547202  59.8330736  62.9914284  30.7102609
  59.0309429  62.4495697  32.6027060  59.5995522  62.7538586  33.4814501
  59.4109583  61.4580345  32.3566532  57.5473928  62.3017406  33.0654216
  57.4857378  61.3036966  33.4992552  57.2736931  63.3921385  34.0920353
  57.0138121  64.5222998  33.6951709  57.3802090  63.2047749  35.3863645
  57.5278616  62.2288990  35.6007504  57.0974827  64.2291975  36.4125824
  57.1581078  65.2240753  35.9713984  55.5688000  64.2280388  36.8038559
  55.5014515  65.0306606  37.5382686  54.9619293  64.4185162  35.9186816
  55.0746202  62.8984594  37.3539639  55.3626585  62.0101976  36.7917180
  55.5837154  62.7934313  38.3120322  53.5960770  62.8537178  37.4680066
  53.0101395  62.5356340  36.4396620  52.9662609  63.2744694  38.5892916
  52.0038033  63.0056810  38.7360120  53.4703302  63.8703966  39.2302918
  58.0857277  64.2347908  37.6049232  58.4772587  65.2894211  38.1043434
  58.6676311  63.0694628  37.9789138  58.6929512  62.3694611  37.2512770
  59.1256332  62.7894545  39.3569160  58.3430767  63.0731773  40.0606298
  59.3851233  61.2944984  39.4807434  59.7531796  60.9775257  38.5049558
  60.2747583  61.2680101  40.1099825  58.2286263  60.3414679  40.0077963
  57.9217482  60.6140709  41.0175562  57.0620203  60.3785181  39.1312265
  56.4796400  59.4775820  39.3242264  56.3408279  61.0809422  39.5490599
  57.2170639  60.4841089  38.0574894  58.7302971  58.8969755  40.1385164
  59.6390390  58.7734032  40.7275963  57.9824209  58.2533073  40.6016302
  58.9220285  58.4808683  39.1494799  60.3482008  63.5811090  39.7232151
  60.7117796  63.8819551  40.8746815  61.1103868  63.9759159  38.6139345
  60.9031343  63.7548637  37.6504612  62.2690153  64.8422766  38.7892509
  62.9564333  64.4451141  39.5361257  62.9267168  64.9509335  37.3928070
  63.1709242  63.9821815  36.9569373  62.1839666  65.4311752  36.7557907
  64.1513109  65.9251499  37.4239612  63.8905478  66.8577957  37.9242325
  65.2701187  65.2069712  38.1779981  66.1768723  65.8118582  38.1744647
  64.9815369  64.9874878  39.2059326  65.5952787  64.2795134  37.7066255
  64.5286083  66.2933111  36.0176873  65.4967690  66.7934513  36.0429072
  64.3894911  65.4681969  35.3191638  63.8688803  67.1007633  35.7000804
  61.7931986  66.1499834  39.3109393  62.2077751  66.5198755  40.3888273
  60.8359528  66.8330097  38.5699773  60.5386162  66.5170002  37.6579261
  60.2908707  68.1593323  38.9450860  61.1955500  68.7649727  38.9985991
  59.5224762  68.7440491  37.7239585  60.2715349  68.7608290  36.9322968
  58.7415981  68.0382729  37.4407506  58.9890909  70.1826286  37.8501105
  57.6518345  70.3482199  38.2206798  57.0952463  69.4242477  38.2744074
  57.1021461  71.5826559  38.3280540  56.0805321  71.6735077  38.6663580
  57.8350973  72.7305126  37.9215908  57.2295475  73.9331532  37.9284930
  57.7356005  74.5544004  37.3997521  59.2014647  72.5742722  37.6219606
  59.7475290  73.4685564  37.3602819  59.7970963  71.2758636  37.6318550
  60.8375502  71.1774635  37.3594761  59.4636679  68.1394768  40.2276611
  59.4629383  69.0095997  41.0606098  58.7065029  67.0672369  40.3828812
  58.8023090  66.3552141  39.6729946  57.6213646  66.8197012  41.3459921
  56.9704199  67.6935625  41.3732719  56.7541981  65.6742096  40.8326674
  56.2612009  65.9291935  39.8945642  57.3167133  64.7733736  40.5873632
  55.6367016  65.2167988  41.8221951  56.0449362  64.8609829  42.7681541
  54.8481226  65.9407568  42.0274353  54.7514057  64.0251255  41.4437485
  55.2774191  62.9829073  41.0456991  53.5301256  64.0816307  41.7081594
  58.2003689  66.4980125  42.7902269  57.6133585  66.9416189  43.7494421
  59.2622995  65.7348728  43.0167532  59.7691727  65.3346872  42.2402000
  59.9762440  65.6187057  44.3278503  59.3601799  65.1239538  45.0787115
  61.1683083  64.6618557  44.1570187  61.7367601  64.5594215  45.0814009
  60.7162380  63.7111902  43.8742352  62.1642876  65.1325655  43.2624149
  62.0545530  64.8121262  42.3641491  60.4663038  66.8738699  44.9200201
  60.2807951  67.1201658  46.1089277  60.9793377  67.7460146  44.0351152
  61.0766268  67.3310089  43.1194735  61.3698626  69.1219711  44.1648626
  61.9387627  69.1921759  45.0919676  62.2614622  69.6870708  43.0238867
  63.0987358  68.9958048  42.9278421  61.7064857  69.5172215  42.1012545
  62.9335499  71.0991335  43.1006098  63.6106968  71.1850309  42.2507906
  62.1367693  71.8302155  42.9636574  63.7151527  71.3230896  44.3831491
  62.9528856  71.4512110  45.1516819  64.3719053  70.4768610  44.5848227
  64.5305538  72.6413202  44.3264961  65.2831221  72.6627779  43.5382795
  63.7789249  73.3984518  44.1031122  65.1740456  72.9691792  45.6086969
  65.6801414  72.1895170  46.0037899  65.9024239  73.6597395  45.4960108
  64.5715189  73.3875513  46.3029861  60.1564693  70.0233936  44.3755102
  60.2225304  70.9497881  45.1859426  58.9630985  69.7647285  43.7891245
  58.8420486  69.0934658  43.0442381  57.7273512  70.4823971  44.1145468
  57.9598284  71.5471649  44.1325903  56.7210531  70.3123569  42.9469252
  57.2728395  70.6042290  42.0533705  56.4330292  69.2833090  42.7319765
  55.5029917  71.2519884  42.9513407  54.8280621  70.7944393  43.6746788
  55.8188534  72.6742125  43.4529829  56.5941811  73.0524778  42.7867365
  54.9513721  73.3122730  43.2842970  56.1374331  72.7783918  44.4901705
  54.9369574  71.2199926  41.5103149  54.9959373  70.1932573  41.1491489
  53.9285183  71.6114283  41.3763952  55.6742287  71.6592216  40.8382988
  57.0835209  70.0691938  45.4606152  56.7237139  70.9132195  46.2312603
  57.0114088  68.7715149  45.8334970  57.1687174  68.0655861  45.1285028
  56.7293406  68.4792566  47.2944212  55.8204365  69.0352774  47.5242805
  56.5945339  66.9433832  47.3988771  57.4660206  66.3523388  47.1173048
  56.4033890  66.7460632  48.4536934  55.4706573  66.2870646  46.5604305
  54.1083574  66.6199541  46.7879152  53.8975525  67.4974394  47.3811960
  53.0532312  65.8575344  46.1862612  52.0276499  66.1166668  46.4040756
  53.4263277  64.8276806  45.3391504  52.4004126  64.3010902  44.5813131
  52.6701260  63.9136410  43.7454033  54.7752762  64.4897795  45.1502657
  55.0395536  63.6899090  44.4744205  55.7617331  65.1920176  45.8362103
  56.7782211  64.8820639  45.6436443  57.7650785  69.0572643  48.2910967
  57.3936939  69.3778276  49.4097281  59.0288210  69.2488670  47.8741121
  59.2060804  69.0055752  46.9100142  59.9928904  70.0718021  48.6680651
  60.0768280  69.5527744  49.6228743  61.3860703  69.9228859  48.1492662
  61.4910316  68.9016390  47.7830267  61.4410019  70.5043983  47.2289801
  62.5349140  70.3049660  49.1311169  62.3117208  71.3166046  49.4700480
  62.4387360  69.6952629  50.0295115  63.9210415  70.1860380  48.4556770
  63.8854694  69.3756294  47.7276182  64.1361666  71.0756254  47.8636789
  65.0331879  69.9850845  49.5111704  64.7649288  69.1248941  50.1245308
  65.9800959  69.6166658  49.1165400  65.1664686  71.1498022  50.4189491
  65.9198427  71.0066032  51.0762358  65.4786873  71.9643164  49.9098396
  64.3634367  71.3761711  50.9881544  59.5949936  71.4895487  48.8918304
  59.4150829  71.8674278  50.0447655  59.1656494  72.1802473  47.8439236
  59.2271185  71.6281557  47.0004082  58.5584593  73.4968853  47.8323269
  59.1944361  74.2209291  48.3416367  58.4231997  74.1238880  46.4230824
  57.6946402  73.4741497  45.9381676  57.7736712  75.5287838  46.4854288
  57.8138638  76.1129189  45.5660391  56.7409325  75.3217030  46.7659044
  58.3223915  76.1587048  47.1855783  59.7626162  74.1580057  45.7556677
  60.2617979  75.0758362  46.0663176  60.5011034  73.3989239  46.0136127
  59.4645023  74.1917801  44.2384005  60.4974651  74.2086077  43.8908291
  58.8954258  73.2973194  43.9850473  59.0030479  75.1208973  43.9038897
  57.2946215  73.5899639  48.7177420  57.2405958  74.4401455  49.6188450
  56.3390970  72.6973295  48.5651398  56.3717747  72.0485687  47.7917433
  55.1176023  72.7018929  49.3581533  54.7350979  73.7224293  49.3412399
  53.9838076  71.9097137  48.6879730  54.2719555  70.8586311  48.7054539
  53.0254126  72.0343113  49.1920137  53.7652683  72.2390509  47.1838236
  54.6667528  72.3417521  46.5797710  53.0291033  71.0444784  46.5213251
  52.0573282  71.0702801  47.0143700  52.9158497  71.1662245  45.4440784
  53.6398268  70.1859045  46.8005514  52.8806877  73.5298586  47.2054911
  51.8012714  73.3797026  47.2257328  53.2519579  74.2010307  47.9799509
  52.9784155  74.1065073  46.2856960  55.3625870  72.2267437  50.8080149
  54.4450378  72.5564098  51.5614367  56.4893436  71.5693378  51.1769772
  57.2446966  71.4019728  50.5277205  56.6537189  70.9197044  52.4933815
  55.9467793  70.0920296  52.4359989  58.0881786  70.4623365  52.6378536
  58.4152985  69.9336958  51.7425156  58.6800766  71.3770723  52.6697922
  58.5040379  69.5845652  53.8421535  58.1164742  70.0874186  54.7281790
  57.9228544  68.6646986  53.7776232  60.0039625  69.2154932  53.8427687
  60.7976389  69.5321035  52.9934835  60.4281712  68.4489679  54.8515892
  61.3481092  68.0334473  54.8857164  59.8719931  68.5811806  55.6842279
  56.1763477  71.7619991  53.6817360  56.3742208  72.9387379  53.7550640
  55.4244804  71.1357975  54.5560360  55.2537107  70.1488495  54.4261408
  54.8008394  71.7037153  55.7242632  54.8644066  70.9974909  56.5520906
  55.3782034  72.5836563  56.0079241  53.3767557  72.0899868  55.5512714
  52.7586365  72.4358177  56.6167545  52.7500248  71.9760609  54.4029760
  53.2692099  71.4560413  53.7100649  51.3695717  72.4139595  54.3379402
  51.2867832  73.4258795  54.7345066  51.0294008  72.5692844  53.3140945
  50.4408932  71.4645386  55.1027155  50.8634901  70.4023695  55.5912733
  49.2011642  71.7982006  55.1839256  49.0079498  72.6476765  54.6728945
  48.0863380  70.9308624  55.5244684  48.3950043  70.3058434  56.3624239
  46.8833303  71.7376566  55.9661245  46.5176296  72.3833132  55.1676941
  45.7515907  70.8568478  56.5233707  44.9688435  71.3916588  57.0613194
  45.1849651  70.2768421  55.7949209  46.1922693  70.2098799  57.2818804
  47.2660637  72.7284670  57.0614958  46.3872719  73.1221867  57.5721836
  47.9357004  72.3304653  57.8239107  47.7838039  73.5509539  56.5679693
  47.6394224  70.0393581  54.3365145  47.4458790  70.4935074  53.2242680
  47.5515652  68.7418699  54.5949125  47.9011679  68.4245729  55.4877758
  47.1877670  67.7451515  53.5905027  47.1773672  66.7442656  54.0220404
  46.3390017  68.1063128  53.0097580  48.4104824  67.7654886  52.5398684
  48.1305313  67.3744488  51.3982105  49.7014618  67.8922796  52.9103231
  49.7733736  68.1393099  53.8870049  50.9099960  67.8372145  52.0714092
  50.7567072  67.6602650  51.0068512  51.5201473  69.2166185  52.0460129
  51.8155289  69.5313740  53.0469036  52.8596449  69.1235971  51.3222408
  52.6151419  68.6923742  50.3514862  53.3091974  70.0930452  51.1073351
  53.5751581  68.5262775  51.8873549  50.5668020  70.3043270  51.4535475
  49.7108984  70.4381132  52.1150732  51.0804033  71.2650490  51.4171457
  50.0607538  69.9969149  49.9918032  49.3669176  70.7287455  49.5781422
  50.9467316  70.0274563  49.3575907  49.5211744  69.0542746  49.9002552
  51.8755484  66.7483044  52.5592136  52.3603725  66.7713976  53.7432289
  52.2819853  65.7828474  51.7610359  51.5966320  65.4161882  50.4549265
  51.9839287  66.0151386  49.6306944  50.5108929  65.5039072  50.4947567
  51.9503450  63.9053488  50.1852512  52.1258020  63.7440157  49.1216326
  51.1882544  63.2341528  50.5812502  53.2970285  63.7679386  50.8788347
  54.1292858  64.1578579  50.2928209  53.4509850  62.7304029  51.1753702
  53.2051659  64.6371841  52.1754074  52.7555513  64.0427303  52.9707479
  54.6162367  65.1323366  52.6528025  55.0830460  66.2443876  52.2795773
  55.3118229  64.2572498  53.3653975  54.8394823  63.4396410  53.7238884
  56.7593336  64.2320013  53.6201811  57.2203875  65.1999950  53.4239149
  56.9203329  63.8116550  55.0998354  56.4361763  64.5744085  55.7096672
  56.3905954  62.8669167  55.2221012  58.3354616  63.6763048  55.6209707
  59.2743683  62.6353121  55.4282475  60.4825497  63.0984831  55.7266617
  61.4336252  62.5878668  55.7602358  60.3926373  64.4184017  56.0243511
  61.2075043  64.9688721  56.2547350  59.0743446  64.7714663  55.9813309
  58.6383629  65.7572508  56.0487747  57.4855423  63.2578754  52.7267265
  57.0291519  62.1063662  52.6492977  58.5990191  63.7429190  52.0939207
  58.8239670  64.7267294  52.1341038  59.4221926  62.9551077  51.2482119
  58.8273811  62.1415567  50.8329582  60.0449800  63.7989902  50.1162386
  60.6553364  64.5462418  50.6233692  60.9935570  62.9193735  49.2663145
  60.4256296  62.0710135  48.8844013  61.3296175  63.3406973  48.3188725
  61.8408060  62.5675583  49.8549509  58.9567947  64.5732641  49.2956305
  58.6548519  65.4022121  49.9357605  59.4651985  65.1051807  48.4914589
  57.7164602  63.7768078  48.7827301  56.8968248  63.9479780  49.4805861
  57.5198650  64.2307711  47.8114557  57.9972601  62.7236319  48.7743902
  60.5544519  62.3578119  52.0973444  61.4378929  63.0476999  52.6142073
  60.5617857  61.0229063  52.1752596  59.7834826  60.5788136  51.7092943
  61.5960217  60.1921272  52.8246498  61.8604612  60.6957674  53.7544441
  61.0945606  58.7418842  53.2143450  60.8740807  58.1142521  52.3508835
  61.9089413  58.2267094  53.7237406  59.8386812  58.7315083  54.0010262
  59.0722370  59.3478155  53.5310984  59.4629335  57.7102900  53.9375162
  59.9508476  59.0409899  55.4587317  60.8944321  58.6589766  55.8483696
  59.9181366  60.1134396  55.6507587  58.8363600  58.4744263  56.1205053
  59.0290308  57.6854897  56.7209673  57.5568056  58.8925314  56.1003256
  57.1577930  59.9363708  55.3972578  57.8325367  60.4462337  54.8451090
  56.1826754  60.1902914  55.3281307  56.6647291  58.3546782  56.9347620
  57.0035887  57.6471567  57.5709105  55.8055544  58.8627100  57.0891190
  62.8955126  60.0377274  52.0367336  63.9976168  60.2408695  52.6295805
  62.8588390  59.8368931  50.7258749  61.9753551  59.5955610  50.3000593
  64.0340614  59.6913004  49.9029970  64.7402573  60.5058622  50.0638628
  64.7238779  58.4095144  50.1589584  65.2556515  58.5060215  51.1055279
  63.9934683  57.6023245  50.1038313  65.7863045  57.9206419  49.2491674
  67.1062851  58.0163193  49.4800234  67.4933481  58.4740162  50.3784084
  67.8905296  57.6174784  48.3889294  68.8896704  57.4727345  48.4184837
  67.0708561  57.1603346  47.3985529  67.2667599  56.5010118  46.1819363
  68.2753181  56.3021421  45.8507776  66.1508274  56.1373234  45.3578949
  66.3115025  55.6190205  44.4241142  64.8566341  56.5301275  45.7369852
  63.9981651  56.2987471  45.1238823  64.6580601  56.9585323  47.0870256
  63.6803198  57.0811462  47.5290537  65.7451200  57.3767805  47.8585720
  63.5608864  59.8260880  48.4323263  62.4960136  59.2432547  48.0448771
  64.4303083  60.3677988  47.5702620  65.2903032  60.7489824  47.9379654
  64.2746449  60.4949141  46.1217690  63.4470129  59.8578548  45.8098650
  63.8505650  61.9383001  45.8170557  62.7963448  61.9681168  46.0924435
  64.3819427  62.6314831  46.4691591  64.1970491  62.3194981  44.4432306
  63.3861303  61.9090700  43.3950043  62.4688530  61.3651991  43.5659218
  63.8441563  62.0632935  42.0534372  63.3005047  61.6965342  41.1953402
  65.1587200  62.5780058  41.8388891  65.6393576  62.6579618  40.5535555
  65.0151968  62.3023844  39.9166965  65.9623003  62.9914379  42.8942537
  66.9409657  63.4080791  42.7071095  65.4359293  62.9212809  44.1745186
  66.1569500  63.1650114  44.9407625  65.5819130  60.0699568  45.3514624
  66.6985846  60.4051638  45.7868528  65.4965448  59.3972731  44.2087603
  64.5660686  59.2086983  43.8641405  66.6169786  59.1736794  43.3080769
  67.2913218  60.0300360  43.3118439  67.2268152  58.4046602  43.7822151
  66.3115788  58.8818312  41.8019247  65.1695824  58.9019775  41.2892008
  67.3308659  58.6219788  40.9686327  68.2302332  58.5280609  41.4185333
  67.1468830  58.3595896  39.5661426  66.0913897  58.2091284  39.3394232
  67.5604582  59.5379686  38.7786007  67.1449232  60.4274368  39.2521882
  68.6461115  59.6319675  38.7536669  66.9701338  59.6854496  37.3480058
  65.9585619  59.2794704  37.3495007  66.9252491  60.7207489  37.0100093
  67.7350760  58.8913155  36.2858033  68.8533592  58.4612417  36.4038873
  67.0968580  58.4925461  35.2285361  67.5406933  57.8683186  34.5701671
  66.1101103  58.6951637  35.1552773  67.9269886  57.1622658  39.1387296
  69.1447878  57.1414137  39.2661738  67.2227192  56.2123871  38.4451079
  66.2301588  56.3312435  38.3008337  67.8188038  54.8302841  38.1108189
  68.8050175  54.7203875  38.5618281  66.7741585  53.8329887  38.6655235
  65.7712269  54.1866732  38.4264970  66.8765926  52.8465509  38.2132578
  66.7963648  53.6146164  40.2355194  66.7100000  54.5876789  40.7190323
  65.9388447  52.9564762  40.3756237  68.0407000  52.8921509  40.7404804
  68.8474607  52.4998951  39.8906851  68.1930017  52.6414490  41.9568253
  67.9649782  54.6134233  36.6157341  67.2284889  53.7708187  36.0657430
  68.8375092  55.3517103  35.9188080  69.1054535  56.1408949  36.4893270
  69.1305017  55.3894329  34.3984461  69.7539330  56.2630701  34.2081761
  69.9756575  54.1445446  33.9759040  70.8557177  54.1553736  34.6189284
  69.3655872  53.2689238  34.1977358  70.4305840  54.1900921  32.5504756
  69.4705629  54.1988993  32.0343518  70.9978199  55.0786448  32.2733235
  71.3013124  52.9542875  32.1244359  72.3184156  53.3308697  32.0158482
  71.2868118  52.1855402  32.8970385  70.9957123  52.4394941  30.7044816
  70.7507515  53.3605385  30.1755548  71.9246149  51.9583368  30.3983426
  69.8615837  51.4640856  30.6545210  69.0928936  51.8579578  31.1780429
  69.7126865  51.1881971  29.6944070  70.0898314  50.6220770  31.1634660
  67.9622126  55.6217623  33.5363221  67.9103041  56.6197872  32.7844667
  66.8964815  54.8232126  33.6106730  66.9204235  54.1496992  34.3629408
  65.7885408  54.7727871  32.7264929  65.9724855  55.3640652  31.8294644
  65.6844854  53.3483362  32.3122859  65.3743172  52.6864815  33.1208920
  64.9812841  53.2900620  31.4814973  66.9830418  52.8333139  31.6958308
  67.4013805  53.2377100  30.5839276  67.6495552  52.0549250  32.4113488
  64.4107389  55.2218723  33.2834363  63.3431625  54.9865198  32.6447868
  64.4765186  55.8687067  34.4521856  65.3877163  55.8692980  34.8878694
  63.3178568  56.2873936  35.2766442  62.6671743  56.9921827  34.7589707
  62.3078156  55.1763201  35.5425501  61.4475489  55.5786467  36.0774994
  61.9140720  54.6948051  34.6474481  62.8556061  53.9810085  36.3034892
  63.5665369  52.9744530  35.6055236  63.7272406  53.0308104  34.5390320
  64.0353966  51.8886518  36.3745451  64.4911861  51.1050272  35.7875299
  63.6834908  51.7929554  37.7461100  64.1846704  50.7894230  38.5107088
  64.0425539  49.9776220  38.0183792  62.9556704  52.7928162  38.3797383
  62.7447224  52.7783298  39.4388366  62.5167799  53.8478708  37.6651001
  61.9156504  54.6158171  38.1291056  63.6719990  57.0312500  36.6200829
  64.7592306  56.8311977  37.1900535  62.7948093  57.8919935  37.1317244
  62.0833397  58.1998491  36.4843154  62.8471470  58.3651972  38.5426903
  63.8759995  58.2806110  38.8925505  62.3172617  59.7826529  38.6110115
  61.4049244  59.7605515  38.0149794  62.0860291  60.1159811  39.6227026
  63.2603121  60.7959795  38.0419254  64.2011595  61.3281918  38.5909772
  63.0350733  61.0034037  36.7396760  63.5922384  61.6891050  36.2503004
  62.1703720  60.6588364  36.3476777  62.1602440  57.3881006  39.5416427
  61.1582661  56.7730999  39.1909575  62.6567745  57.4348593  40.7886982
  63.5077715  57.9179907  41.0386705  61.9611168  56.8664169  41.9563341
  61.0827494  56.3109255  41.6276979  62.8199768  55.7591391  42.5995827
  63.7953806  56.1591005  42.8765774  62.1010303  55.0315619  43.7395048
  62.7478266  54.2165518  44.0643358  61.9436359  55.7341051  44.5578909
  61.1539268  54.6032286  43.4114408  63.1224012  54.6889687  41.5205383
  62.1634626  54.2243338  41.2910700  63.5614681  55.0728083  40.5996752
  63.7790966  53.8991356  41.8852472  61.5946960  57.9670334  42.9781246
  62.2667646  58.9782286  43.0603933  60.5122900  57.7529192  43.8173389
  59.9476385  56.9205236  43.7257767  60.2030468  58.6681700  45.0164652
  61.1791229  58.9958954  45.3742027  59.3427181  59.8838186  44.5481348
  60.0264168  60.5203438  43.9864540  58.5818148  59.5184040  43.8584995
  58.7863922  60.7531071  45.6496286  58.2949257  60.1610804  46.4216852
  59.9250031  61.4906740  46.2354755  60.3703213  62.1974802  45.5353117
  59.5633125  62.0194149  47.1173573  60.7007504  60.8137083  46.5932989
  57.8468418  61.8005991  45.0919485  58.0209970  62.3336124  44.1572475
  56.9305611  61.2384129  44.9117088  57.7260208  62.5959444  45.8274269
  59.5495415  57.9011106  46.2110424  58.7671995  56.9777155  45.9118032
  59.9772549  58.1230593  47.4907255  60.7235622  58.7790918  47.6716900
  59.4065237  57.3260784  48.6973238  58.7171030  56.5849638  48.2929182
  60.5531502  56.5067625  49.3551683  61.2870312  57.2411585  49.6871090
  60.0865316  55.7063675  50.5631495  60.9080410  55.2249908  51.0937166
  59.6683407  56.3971710  51.2952709  59.2977619  55.0180435  50.2595901
  61.2035465  55.5202055  48.3056164  60.5697346  54.6593237  48.0928516
  61.5269852  56.0763407  47.4257278  62.1426868  55.2174664  48.7687206
  58.8667679  58.3041191  49.7048426  59.6104002  59.2487383  50.0445080
  57.5865412  58.2527399  50.0947094  57.1312094  57.3555517  50.0061750
  56.8030262  59.3548775  50.7783318  57.4905348  60.0018024  51.3232327
  56.2538242  60.3504705  49.7582054  55.9013033  61.2813807  50.2023220
  57.0532608  60.7113075  49.1110563  55.1586294  59.6211052  48.8466835
  55.3812408  58.5646343  48.6969566  54.1723061  59.7719765  49.2854309
  55.0400734  60.2791786  47.1390104  53.6867285  59.3134499  46.4709949
  53.2902813  59.8387861  45.6021118  54.0589619  58.3330774  46.1736441
  52.8365612  59.1308546  47.1282434  55.7000685  58.7689495  51.5999174
  55.5425167  57.5226974  51.6512060  54.8936415  59.5967627  52.2444582
  55.0110817  60.5961847  52.3308372  53.6356735  59.2025852  52.9371071
  53.7907362  58.7352180  53.9095402  52.8253603  60.4109383  53.3391428
  52.6718760  61.0328722  52.4572468  51.8980074  59.9585438  53.6905003
  53.5114622  61.3580179  54.5029736  53.0331039  62.4511623  54.8352432
  54.5127916  60.9417439  55.1115227  52.7436733  58.2398415  52.1173429
  52.5305462  58.5108042  50.9025383  52.3310423  57.1497965  52.7731085
  52.4670982  57.1038055  53.7728453  51.2022638  56.3160753  52.2539330
  51.4338589  56.2150717  51.1936188  51.2978458  54.9084997  52.8342056
  52.2606325  54.4682312  52.5747871  51.3828802  55.0058126  53.9165211
  50.2558374  53.9012671  52.3678780  49.3016958  54.3062210  52.7051115
  50.2171946  53.6744881  50.8995295  49.5859194  52.8211451  50.6517458
  49.8539734  54.5944738  50.4414892  51.2123680  53.4860802  50.4967451
  50.5271339  52.6337099  53.1735802  50.6170034  52.9755402  54.2046833
  49.7283268  51.8982029  53.0784941  51.5251493  52.2388935  52.9833269
  49.8734426  57.0552063  52.5358582  49.6743441  57.5971794  53.6603975
  48.8578033  56.8823433  51.6324902  49.0167618  56.3496733  50.7892275
  47.5070810  57.4468946  51.7456627  47.1874952  57.7797222  52.7331781
  47.3661041  58.6889362  50.8255816  47.5556898  58.3995104  49.7919512
  46.3026190  58.9111042  50.7375908  48.3173561  59.8864698  51.1955595
  49.3197107  59.4690275  51.2911367  48.2690334  60.8844709  50.0685072
  47.2558498  61.2228346  49.8515320  48.8030481  61.7705154  50.4118156
  48.7413549  60.3893089  49.2200804  48.0548859  60.4508448  52.5684118
  47.0489645  60.8631754  52.4896765  48.0986452  59.6911573  53.3488369
  48.8275146  61.1829042  52.8034306  46.4232683  56.4285564  51.4727449
  46.7882538  55.3163624  51.0566807  45.1385736  56.7204046  51.5945959
  44.9015141  57.6485634  51.9146538  44.0193892  55.8201885  51.3681507
  44.3754482  54.7900438  51.3792515  43.3124113  56.0477448  52.1659613
  43.4278917  56.0577679  49.9738455  44.1371346  56.1608315  48.9546680
  42.1129799  56.0980272  49.8728609  41.1430311  55.6992292  50.8898211
  41.2488699  56.2156725  51.8438578  41.1830187  54.6597862  51.2155008
  39.7508168  56.0059023  50.2809000  39.4268847  57.0422554  50.3764963
  38.9781451  55.4519939  50.8140659  39.9199295  55.6865835  48.8428545
  39.2192435  56.2890387  48.2647657  39.8897791  54.6145439  48.6481142
  41.3578606  56.2771463  48.6203861  41.8627834  55.7118130  47.8370905
  41.3497305  57.6978827  48.1675005  41.1993313  58.6817789  48.9646196
  41.3310719  57.8185368  46.8292189  41.4874601  57.0453310  46.1985111
  40.9746552  59.1074800  46.1451054  41.5640497  59.9285269  46.5532589
  41.3868141  59.0872145  44.6723032  41.1832047  60.0845766  44.2825460
  42.4433231  58.8356638  44.5794916  40.6753206  58.1606770  43.8422346
  41.0458708  57.3063850  44.0756512  39.4274998  59.4252396  46.3549805
  38.6017084  58.5217619  46.5557909  39.0848422  60.7150936  46.1338615
  39.8472619  61.3428307  45.9222889  37.6932836  61.0538960  46.1017275
  37.0617795  60.8524275  46.9670105  37.4958181  62.5684261  45.8993340
  38.1642127  62.8673077  45.0918579  36.4541173  62.6245880  45.5834007
  37.8082681  63.4196281  47.1522760  38.8899112  63.5201263  47.0625591
  37.0870233  64.7710085  46.8720675  37.5137258  65.1552010  45.9455585
  36.0031438  64.6579361  46.8950415  37.4745941  65.5073166  47.5761652
  37.5271916  62.7536011  48.4538317  37.7074671  63.4944916  49.2327261
  36.4836979  62.4391460  48.4352112  38.2468534  61.9397211  48.5421085
  36.9057512  60.3245735  44.9419689  35.7315779  60.0137806  45.1009893
  37.6157570  60.0249577  43.8424397  38.6189723  60.1009989  43.9311934
  37.1061945  59.1918278  42.8420448  36.1825204  59.6829557  42.5359106
  38.0454016  59.2397785  41.6309357  38.3177710  60.2094889  41.2143135
  39.0215564  58.8448477  41.9124699  37.4321508  58.4574699  40.4586697
  38.1722212  58.5976315  39.6707869  37.4478602  57.3985815  40.7167387
  35.9852910  58.7783337  40.0046635  35.4446793  57.8566742  39.3188071
  35.5361390  59.8895979  40.2080870  36.6897821  57.8206968  43.3416176
  35.5640769  57.3860598  43.1145716  37.5395155  57.0914793  43.9439011
  38.4871483  57.4223232  44.0563345  37.2530580  55.8160734  44.5600939
  36.7369723  55.2154255  43.8111115  38.5854793  55.1996946  45.0618172
  38.9265513  55.8477354  45.8691692  38.3923173  54.2866135  45.6249046
  39.6531343  55.0102568  43.9771318  40.8353615  55.4729509  44.1020584
  39.3382549  54.2728758  42.9981279  36.2110543  55.8838367  45.6686878
  35.3547645  54.9964428  45.7274580  36.2417722  56.9191217  46.5406132
  36.9518685  57.6251459  46.4087248  35.2464247  57.0631790  47.5751495
  35.2383018  56.1553288  48.1783438  35.6843638  58.2579184  48.3925200
  36.1099482  59.0231085  47.7433157  34.7740173  58.6471272  48.8484621
  36.8964863  57.8434610  49.3238020  37.5408721  57.0466328  48.9524031
  37.6320386  59.1075468  49.7148275  37.9730487  59.0985489  50.7500744
  38.4614015  59.3171024  49.0392971  36.9510460  59.9578190  49.7521019
  36.1222482  57.3069143  50.5612135  36.8426371  56.7421627  51.1529827
  35.6824112  58.0638742  51.2105656  35.3029704  56.6205311  50.3472948
  33.8527322  57.2937679  46.9838333  32.8599644  56.7614889  47.5417280
  33.6058331  58.1119204  45.9907627  34.3829823  58.6421680  45.6233644
  32.3957038  58.2449675  45.1972818  31.6314983  58.7615204  45.7780218
  32.7885151  59.2277670  44.0690088  33.3157063  60.1065779  44.4403076
  33.5088563  58.7210655  43.4267759  31.6023970  59.8616982  43.2250595
  30.6669807  60.6359529  43.9347267  30.7495070  60.8200884  44.9957132
  29.5577812  61.1837530  43.2479191  28.8415241  61.8396330  43.7203598
  29.4786572  60.9803724  41.8137312  28.7491941  61.5620995  41.2697840
  30.4714370  60.2572489  41.1015034  30.3189325  60.1059103  40.0430918
  31.4753699  59.6328831  41.8291664  32.2661066  59.0582180  41.3699245
  31.8624830  56.8738747  44.7730494  30.7085109  56.5192890  45.0350618
  32.6407003  56.1339998  43.9973307  33.6008215  56.3905096  43.8171244
  32.3083210  54.8050880  43.5910416  31.4621854  54.6878862  42.9139757
  33.4243989  54.1618443  42.7158308  34.3626142  54.3500662  43.2377720
  33.4192634  53.0773640  42.6063633  33.6108065  54.7611094  41.2952042
  32.7679873  54.6134901  40.4388523  34.6495700  55.5519247  41.0382986
  34.6852636  55.9208870  40.0987768  35.4282045  55.7123518  41.6612673
  31.9793010  53.9039707  44.8286152  30.9890747  53.1932688  44.7581911
  32.6442480  53.9851046  45.9983301  33.5438251  54.4391966  45.9300661
  32.3053670  53.2312679  47.2244978  32.3668361  52.1658039  47.0029116
  33.3321548  53.4654617  48.3112478  34.1999173  52.9011345  47.9697371
  33.5992432  54.5211601  48.2637405  33.0100727  53.1101751  49.7134352
  32.7478552  51.7382765  50.0002289  32.7513671  51.0282946  49.1864014
  32.6420879  51.2724733  51.3116693  32.4649811  50.2358246  51.5574265
  32.8051257  52.1862984  52.3569298  32.6286006  51.8157101  53.3558846
  33.0397868  53.5725355  52.1158075  33.0875278  54.2690754  52.9397917
  33.1997943  53.9947605  50.7756090  33.3410668  55.0316811  50.5087042
  30.9517980  53.5780430  47.6752949  30.1272511  52.7071476  47.8263140
  30.6441879  54.8759127  47.6249647  31.4326334  55.4415655  47.3448038
  29.3270326  55.5159092  47.8402996  28.7401247  55.0894642  48.6538076
  29.6284771  57.0068932  48.1987953  30.1367927  57.5146246  47.3790836
  28.7792706  57.6130819  48.5142040  30.5608439  57.2206545  49.6848774
  31.7356730  56.8945265  49.1386986  28.3400869  55.4239655  46.6412926
  27.4393845  56.2597036  46.5229559  28.5118413  54.5496559  45.6398106
  29.3330193  53.9626360  45.6741095  27.4977493  54.3212748  44.5328569
  27.7673578  53.4626961  43.9178276  26.0863256  53.9042711  44.9884844
  25.6488657  54.5940399  45.7102537  25.3945780  53.7129545  44.1681290
  26.2141681  52.7028513  45.8048582  26.3139701  53.0758715  46.6837740
  27.3531771  55.4417133  43.4957314  26.3011956  55.7175493  42.9228115
  28.4460831  56.1934471  43.4649467  29.1342521  55.9532595  44.1641140
  28.6747026  57.4529362  42.6606655  29.6623683  57.7961493  42.9686165
  28.7176752  57.0477772  41.2140608  27.6932430  56.7109632  41.0553217
  28.8020778  57.9225922  40.5693293  29.8086929  56.0722113  40.8497238
  30.7376623  56.5915442  41.0851097  29.7447062  55.1475668  41.4233446
  30.0438404  55.6660604  39.3646812  30.8092737  54.8966122  39.2638659
  29.1556764  55.2576256  38.8825536  30.4444957  56.7961454  38.5420442
  29.7405028  57.1276808  37.8981662  31.4942026  57.5629377  38.5119176
  32.5296617  57.1520233  39.2171669  32.3569298  56.3422728  39.7955871
  33.3358884  57.7529144  39.3121839  31.4686513  58.6534548  37.8358316
  30.6841874  58.8286495  37.2242546  32.1755338  59.3690014  37.7441096
  27.7023840  58.5982275  42.9728794  26.9842744  59.0200472  42.0406199
  27.6001549  58.9517546  44.2862463  28.0812716  58.3522224  44.9413729
  26.7025304  59.9324179  44.8530579  26.5726757  60.7260275  44.1172409
  25.4520440  59.1906977  45.2030230  25.1382375  58.5397911  44.3869638
  25.5191970  58.5950470  46.1134005  24.3200040  60.1661015  45.4268503
  24.4183350  60.8554697  46.2654209  24.3652892  60.7290888  44.4945955
  22.9641652  59.4375086  45.4770231  22.1364880  60.1404476  45.3825474
  22.8872347  58.6166191  44.7640610  22.8409004  58.7929869  46.7740822
  22.6808023  59.3909264  47.5721645  23.1115127  57.5486565  47.1230936
  23.3213115  56.6013050  46.2272358  23.1925654  56.7639923  45.2387714
  23.4620547  55.6888342  46.6367245  23.1747246  57.2796726  48.3953381
  23.1366324  58.0579138  49.0379810  23.6291504  56.4490175  48.7469196
  27.2549081  60.5614185  46.1556911  27.7199721  59.7695160  46.9915009
  27.1584845  61.8893099  46.3198090  26.6469812  62.4342155  45.6404352
  27.6215887  62.6369619  47.4913597  27.8187728  62.0008469  48.3542490
  28.9494300  63.4384298  47.1338654  28.8031459  64.0590096  46.2497950
  28.9886546  64.2149591  47.8977823  30.3221822  62.7570391  47.0964956
  30.5645466  61.5917158  47.8782415  29.8861885  61.0484982  48.5194445
  31.7920923  60.9394169  47.7547026  31.8867612  60.0838995  48.4070301
  32.8382134  61.5133619  47.0164442  33.8625240  61.1792231  47.0909119
  32.5911665  62.7040672  46.2163877  33.3532596  63.1349421  45.5839634
  31.3051295  63.3131552  46.2771034  31.1376047  64.2047024  45.6910372
  26.4663982  63.5880947  47.9162979  25.9989548  64.3913364  47.1288300
  25.9764576  63.5320234  49.1642523  26.5478969  62.9453087  49.7552919
  25.0774789  64.5551729  49.8013639  24.1385770  64.4283104  49.2624092
  24.8204279  64.2446041  51.3309574  24.3291116  65.1427126  51.7052746
  24.1404796  62.9197073  51.6201830  23.1399727  62.8890038  51.1887264
  24.7220182  62.0721769  51.2574053  24.0904427  62.8780937  52.7082396
  26.0710716  64.1397190  52.0181704  26.4470124  63.2951069  51.7595291
  25.5585337  66.0052633  49.6332645  26.7651820  66.3342524  49.5804214
  24.6088266  66.8923664  49.5394039  23.6968422  66.5247726  49.7702026
  24.9110103  68.3020258  49.5041847  25.4866624  68.4637594  48.5928297
  23.5812378  69.0390444  49.5246840  22.9160357  68.6075592  48.7767363
  23.0876255  68.9845610  50.4949808  23.7557364  70.5193186  49.1436243
  22.7694249  70.9289169  48.9256287  24.1970181  71.1370659  49.9257708
  24.6598697  70.9211636  47.6454067  23.7074566  70.0379229  46.3427782
  24.1903472  69.0629864  46.2762356  22.6765490  69.9666262  46.6895437
  23.8068891  70.6651735  45.4569054  25.8552861  68.7309694  50.5907154
  26.7869973  69.5081997  50.3525352  25.7089043  68.0770016  51.8056917
  24.8383260  67.6118660  52.0198059  26.5829635  68.3357763  52.9549170
  26.4922166  69.4172192  53.0566168  26.0111213  67.5510359  54.1711903
  25.0325394  68.0205870  54.2711592  25.8400059  66.5045071  53.9189911
  26.8755031  67.5737762  55.4986095  27.7098012  66.8803978  55.3924561
  27.3145103  68.5651541  55.6106663  26.1558771  67.2553921  56.8381357
  25.5199504  68.0927372  57.1254444  25.6070256  66.3257456  56.6877413
  27.1994567  66.9803810  57.9303265  27.6974726  66.0723877  57.5902843
  27.9383302  67.7813959  57.9070044  26.6442156  66.7336464  59.2675543
  25.9895825  67.4547672  59.5350266  26.1083698  65.8778095  59.2903662
  27.3316121  66.7154598  60.0073242  28.0602312  67.9210806  52.7161169
  28.9766216  68.6456347  53.0283308  28.2955670  66.8694830  51.9664001
  27.5518894  66.2074566  51.7968082  29.6779656  66.4733982  51.5802717
  30.2416897  66.5114498  52.5124025  29.6523714  65.0148439  51.0440922
  28.8640618  64.9277353  50.2963781  30.9501958  64.6742153  50.3321171
  31.0185552  63.6161852  50.0791407  31.0610723  65.2007437  49.3841839
  31.8252039  65.0353098  50.8725548  29.4275427  63.9338636  51.9581032
  28.8391972  63.3285666  51.5008688  30.1681995  67.6060724  50.6624889
  31.2888455  68.1500101  50.9256029  29.4586039  67.9501629  49.5846367
  28.5799265  67.5117493  49.3483686  30.1218128  68.6908007  48.4852266
  31.0819793  68.1948519  48.3430243  29.2655373  68.8078451  47.1885872
  28.4319067  69.4885445  47.3612404  30.1301122  69.3366337  46.0280466
  30.6167436  70.2696848  46.3121367  30.9729648  68.6897421  45.7846594
  29.4749141  69.4612265  45.1659012  28.7321568  67.4966955  46.7087460
  27.8075123  67.3113823  47.2553587  28.3560085  67.4766684  45.6859016
  29.5101595  66.7345667  46.6644621  30.4866958  70.1048422  49.0174007
  31.4875174  70.7502460  48.6610937  29.6139812  70.5812597  49.9206114
  28.8833308  69.9077082  50.1011038  29.8303628  71.8819237  50.5914640
  30.1864982  72.5972795  49.8501587  28.5239911  72.4283171  51.1289883
  28.0407691  71.5854359  51.6231012  28.6540747  73.2848787  51.7904091
  27.5822854  72.9061317  50.0630808  27.3820353  72.0713949  49.3913507
  26.1851168  73.1127501  50.7265186  26.2244797  73.8895941  51.4901018
  25.3655934  73.3844042  50.0611687  25.8947301  72.1650743  51.1800432
  27.9713368  74.1637659  49.2563105  29.0097046  74.1578913  48.9248657
  27.3189306  74.1619396  48.3831167  27.7628398  75.0244761  49.8917723
  30.9721279  71.8301582  51.6475201  31.7130494  72.7907276  51.8229914
  31.1123157  70.6739235  52.3735809  30.5978870  69.8974180  51.9830656
  32.3071623  70.4575109  53.1985474  32.4956727  71.3280773  53.8267851
  32.0743227  69.2507362  54.1448450  31.7483497  68.3473492  53.6293507
  33.0639553  69.0986872  54.5756721  31.1530519  69.5243931  55.3243303
  31.5608954  70.4846859  55.6399250  30.1133680  69.6981907  55.0469255
  31.1006141  68.4417582  56.6658592  30.6957507  66.9747639  55.6061506
  30.3336644  66.1788034  56.2568760  29.9485517  67.3261547  54.8945951
  31.4953566  66.5602875  54.9921942  33.6223841  70.3386402  52.4671650
  34.6087050  70.8769369  52.8937197  33.6640811  69.5979881  51.3594627
  32.7631879  69.2172003  51.1074877  34.8318028  69.4111013  50.4664373
  35.5989766  68.9950228  51.1194468  34.5266080  68.4288836  49.3179703
  33.7672687  68.8185453  48.6399746  35.3194284  68.4432030  48.5700846
  34.1551900  67.0048428  49.6065950  33.3650112  66.8943262  50.3492260
  33.6811304  66.3262939  48.3745813  34.5467734  66.2835503  47.7135706
  33.2667279  65.3386068  48.5766697  32.8716636  66.8298340  47.8460789
  35.4042864  66.3445377  50.1533604  35.7849813  66.8265295  51.0538340
  35.1691270  65.3137875  50.4186153  36.1515617  66.4482069  49.3666363
  35.3896594  70.7017374  49.8832321  36.5911603  71.0162687  50.0154734
  34.4724631  71.4996624  49.3028164  33.5135722  71.2032413  49.1898346
  34.6897817  72.8245163  48.7097502  35.1502061  72.6757717  47.7330303
  33.3020616  73.3653307  48.4478951  32.6666617  73.3835602  49.3333530
  33.4284210  74.4097233  48.1626415  32.9165936  72.7327394  47.6483059
  35.4594040  73.8129139  49.5168114  36.3063192  74.5574903  49.0391111
  35.1391125  73.9396000  50.8148432  34.4359040  73.3026028  51.1610079
  35.8769250  74.8331165  51.7288589  35.5886793  75.8324718  51.4028215
  35.3150606  74.6067810  53.1233883  34.2375946  74.7605181  53.1828833
  35.5804324  73.6109400  53.4783220  35.9988952  75.5525589  54.2177343
  35.3058362  76.4021730  54.8180103  37.2040391  75.3922367  54.5556259
  37.4316525  74.5817375  51.7467737  38.2866836  75.4976130  51.5828848
  37.7720070  73.2656717  51.7881727  37.0263553  72.5850296  51.7592144
  39.1768622  72.7694511  51.7912722  39.7092938  73.4300900  52.4755096
  39.3448782  71.2834501  52.3347902  39.0095139  70.6109619  51.5452433
  40.4142809  71.0960531  52.4315643  38.6427760  70.9975195  53.6181831
  39.0235829  71.7754650  54.2799139  37.5620651  71.0396385  53.4825850
  38.9057493  69.6331072  54.2588854  39.8748970  68.9303827  54.0032196
  38.0616832  69.2348433  55.2040148  38.1713486  68.2780313  55.5082893
  37.2946191  69.8157024  55.5111170  39.7555423  72.7770567  50.3504753
  40.8568144  73.2880354  50.2017927  39.1189790  72.2196579  49.3188763
  38.3343577  71.6291571  49.5550537  39.7596121  72.1083879  48.0001831
  40.7272100  71.6499949  48.2044601  38.8847756  71.3377810  46.9707251
  37.9623675  71.8956757  46.8094444  39.3543172  71.3541412  45.9871769
  38.4983516  69.9117708  47.4027443  39.3615031  69.2638540  47.5552988
  38.0347371  69.8923302  48.3890438  37.2585702  69.0450478  46.4040375
  38.3483481  68.2462549  45.2258396  37.8285861  67.3896551  44.7966766
  38.5994005  68.9575529  44.4389868  39.1732073  67.9301929  45.8644485
  40.0968170  73.4868193  47.4388504  41.0350227  73.6121941  46.6742849
  39.3640471  74.5167255  47.8792715  38.4289050  74.3444109  48.2197380
  39.6834588  75.9500170  47.7107668  40.0751495  76.1528540  46.7140007
  38.4351754  76.8641424  47.9613400  37.9316759  76.5752125  48.8838959
  38.8471079  78.3570576  47.9921961  39.4899869  78.6996508  48.8030195
  39.3251610  78.5305023  47.0280981  37.9234934  78.9301872  47.9112244
  37.4875736  76.7116356  46.7631531  38.0649590  77.0518351  45.9035110
  37.3569036  75.6565189  46.5228271  36.0396409  77.2864389  46.9432259
  36.0517645  78.3713722  47.0474529  35.4300952  77.0878267  46.0616875
  35.5226922  76.9955587  47.8576946  40.9130239  76.3215733  48.5918856
  41.9929743  76.5997028  48.1111383  40.8481073  76.1935902  49.9002409
  39.9802566  76.1086607  50.4098701  42.0347929  76.4280844  50.7910872
  42.3619747  77.4534273  50.6186628  41.7754984  76.3125610  52.2555828
  41.5664339  75.2980471  52.5949287  42.6690340  76.5171623  52.8453541
  40.7678890  77.2092676  52.6609278  40.1418209  76.7138863  53.1940651
  43.2959127  75.6585026  50.4455042  44.4135523  76.1962938  50.6499577
  43.2518101  74.4512939  49.8180199  42.3116016  74.0927458  49.7311163
  44.3824148  73.5945082  49.4587278  45.2016163  73.7865019  50.1516533
  43.9516878  72.0363283  49.4166613  43.0103207  72.0452309  48.8672495
  44.6832561  71.4077997  48.9088583  43.6088419  71.3619995  50.7921267
  42.7966928  71.8521690  51.3290215  43.1313086  70.3987122  50.6128359
  44.8177004  71.1816168  51.6937590  44.6336937  70.3703880  52.3981380
  45.7202339  70.9213400  51.1407852  45.0530815  72.4462366  52.4913073
  45.9109163  72.9653311  52.3697758  44.2775631  72.9091597  53.4508991
  43.1397915  72.3986626  53.7778187  42.9114389  71.4223433  53.6563730
  42.4036026  73.0093718  54.1021109  44.5518732  74.0517998  54.1150188
  45.4063749  74.5360518  53.8795900  44.0334749  74.2610121  54.9562025
  44.9894953  73.9564753  48.1529474  46.1981726  74.0112591  48.0060959
  44.1422606  74.3104506  47.1573162  43.1500912  74.3074656  47.3462296
  44.5509386  75.0068951  45.9859037  45.3970623  74.4593525  45.5707216
  43.4140062  74.9430037  44.8529673  42.5489235  75.3621292  45.3668451
  43.7254429  75.8998966  43.6278582  43.3562469  76.8803787  43.9286232
  44.8033237  75.8134508  43.4907579  43.0853748  75.6270647  42.7888250
  43.1953049  73.4661007  44.3471909  43.0065107  72.7426910  45.1403713
  42.3523474  73.3960772  43.6597109  44.4151211  72.9556704  43.4403181
  44.8426342  73.6926413  42.7604628  45.2256584  72.5968647  44.0746546
  44.1264915  72.1379852  42.7798748  45.1427269  76.4530373  46.2574291
  46.0827303  76.8363762  45.5836630  44.5937157  77.2185040  47.2554445
  43.7934542  76.8301916  47.7338839  45.1166439  78.5385370  47.6629448
  45.1515818  79.1693115  46.7746830  44.0886068  79.2187166  48.6379099
  43.0676508  79.2578697  48.2581568  44.0288973  78.5194254  49.4718933
  44.5090532  80.6754208  49.1487455  45.5776453  80.7656479  49.3438768
  44.3096733  81.3738251  48.3359909  43.7581968  81.0167217  50.4016447
  43.7367630  80.2035713  51.3556147  43.1063652  82.1302223  50.5369520
  46.5190029  78.4599209  48.2462835  47.3935986  79.3046808  48.1078291
  46.7385864  77.3659897  48.9818287  45.9919786  76.7382574  49.2438078
  48.0343771  77.0279932  49.5081329  48.3082199  77.9596424  50.0032568
  48.0537605  75.8138418  50.4715633  47.3659611  76.1519003  51.2466431
  47.6346397  74.9215984  50.0064468  49.4075394  75.5556059  51.0917377
  49.9166489  76.2625170  52.1810436  49.3596315  76.9768667  52.7691174
  51.2249327  75.9917736  52.5864077  51.6665220  76.5517044  53.3975029
  52.0044518  74.9779654  51.9210815  53.2740259  74.9414730  52.3090315
  53.6799431  74.1082954  52.0587254  51.4295912  74.2077971  50.8993721
  51.9962835  73.4647608  50.3579330  50.1370287  74.5208549  50.4199123
  49.7602415  73.8695097  49.6451998  49.0945864  76.8193388  48.3545208
  50.1345253  77.3919296  48.3810377  48.7078238  76.2010956  47.1973944
  47.7813530  75.8006191  47.2344208  49.5599937  76.0867596  46.0247421
  50.5362225  75.7362700  46.3597679  49.0117455  74.9695587  45.0949287
  48.0449295  75.4001522  44.8342562  49.8171520  74.8094511  43.8556385
  49.7100401  75.7172489  43.2618952  50.8841705  74.6717501  44.0305805
  49.4260311  74.0493250  43.1793737  48.9117670  73.5835743  45.7217550
  49.8774910  73.1783819  46.0239124  48.2249403  73.5141706  46.5652895
  48.5969210  72.8284454  45.0015068  49.7782564  77.4653864  45.4008913
  50.9314299  77.8190708  45.1827717  48.6944532  78.2442760  45.1353264
  47.7926397  77.8398037  45.3432560  48.7570524  79.5669985  44.5460606
  49.2901325  79.4763803  43.5996342  47.3425293  79.9930811  44.0956306
  46.7873526  80.0390530  45.0325203  47.4260378  81.0042191  43.6972380
  46.5008497  79.2192173  43.1137705  45.3313351  79.6437407  42.4577856
  44.9869967  78.7044144  41.5883446  44.1473198  78.6170816  40.9147692
  45.9545374  77.7337933  41.6049004  45.9587955  76.8937731  41.0441399
  46.9708729  78.1349516  42.4857330  47.9269028  77.6779842  42.6945210
  49.5444393  80.6023407  45.2861261  50.1005983  81.5283298  44.6684313
  49.5161629  80.5256367  46.6155672  48.7815762  79.9268103  46.9646978
  50.3426504  81.3446236  47.5565815  50.2752018  82.3550320  47.1533155
  49.7590351  81.5633869  48.9134073  50.4766273  82.0499706  49.5740128
  48.4307337  82.4958706  48.9928627  48.2095003  82.6570702  50.0479317
  48.7183523  83.5071564  48.7053251  47.5963402  82.1452808  48.3854389
  49.4156265  80.3281975  49.4974947  48.7675571  79.9635029  48.8903666
  51.8089342  80.8824348  47.5403166  52.7783918  81.7131519  47.4707460
  52.0553827  79.6173429  47.2418165  51.3126612  78.9381075  47.1575069
  53.4319067  79.0334749  46.9747972  54.0315962  79.4931889  47.7603769
  53.3498430  77.5149632  47.1177387  52.4223900  77.1240520  47.5362110
  53.4534216  77.0967960  46.1164808  54.4670534  76.9846535  47.9970551
  54.5700216  75.9220839  47.7769423  55.4415131  77.3649454  47.6906109
  54.3330336  77.3520136  49.5079899  54.2251205  78.4177303  49.7097254
  53.4939957  76.8896580  50.0279379  55.6111908  76.9209051  50.2917147
  55.6180334  75.8309412  50.2862883  56.5618515  77.1805143  49.8259449
  55.6111479  77.4174404  51.7027998  54.7471952  77.1930599  52.1753883
  56.2575006  76.8183422  52.1961689  55.8808470  78.3846664  51.8115950
  54.0945625  79.3151045  45.6241798  55.3126192  79.1419935  45.5091810
  53.3848000  79.9864674  44.7077560  52.4289227  80.2166843  44.9388313
  53.7416840  80.4209614  43.3563948  53.0914831  81.2090302  42.9765463
  55.0597048  81.1096191  43.2667923  55.8499384  80.3821373  43.4523106
  55.1590967  81.4280796  42.2291040  55.1969290  82.4116135  44.0283966
  54.1847515  83.0180836  44.4002628  56.3625717  82.9320908  44.4341516
  56.1260366  83.8252449  44.8421097  57.2209263  82.7395153  43.9379215
  53.4615660  79.3557692  42.2552633  53.9182520  79.5913410  41.1222696
  52.6561403  78.2956028  42.5293636  52.2200966  78.3098507  43.4402800
  52.3466301  77.1731615  41.5397644  52.8538990  77.3415089  40.5897999
  53.0014706  75.9267330  42.1567488  52.8504276  75.7492161  43.2215357
  52.5491190  75.0982857  41.6116333  54.5387650  75.8740664  42.0466137
  55.3564692  76.4934301  43.0551243  54.8340893  76.9601202  43.8771439
  56.7659950  76.5323496  42.9402590  57.4453211  77.0233583  43.6213112
  57.4052477  75.8906507  41.8940353  58.4731483  75.9985638  41.7742491
  56.6679811  75.1614761  40.9741163  57.1609116  74.7135735  40.1239395
  55.2337360  75.1122952  41.0816765  54.6399117  74.5574522  40.3703928
  50.8756495  76.9897127  41.1499882  50.0308418  77.5493765  41.7724514
  50.8293009  76.2957048  40.0128126  51.7024803  75.9560823  39.6355605
  49.6465635  75.8526564  39.3057179  48.7799931  75.8763647  39.9664783
  49.3285513  76.7323875  38.1536460  48.4823036  76.2342453  37.6805449
  48.7334824  78.0267859  38.6912417  48.2731342  78.5987568  37.8856158
  48.0355549  77.8601027  39.5117426  49.5946121  78.6642218  38.8918138
  50.5042076  77.0350695  37.1863580  51.2448740  77.6400614  37.7093434
  50.9101200  76.0441208  36.9830179  50.2729416  77.7322817  35.8448505
  51.1745501  77.6371670  35.2397394  49.4168663  77.3552990  35.2852798
  50.0585651  78.7966156  35.9414721  49.7870827  74.4169807  38.7899542
  50.8464241  73.9658403  38.5147429  48.6740923  73.6747026  38.9427304
  47.8243780  74.1404009  39.2277122  48.5414171  72.2312307  38.6054111
  49.4881582  71.7690611  38.8850188  47.4270964  71.6604853  39.5387602
  47.6692677  72.0059681  40.5437946  46.4764738  72.1433973  39.3124604
  47.3684263  70.1378870  39.6067429  46.8000555  69.3403387  38.6010575
  46.8834496  68.1058598  39.0782809  46.4798117  67.2352076  38.5828543
  47.4562740  68.0507231  40.3169012  47.4521637  67.1979856  40.8581209
  47.7148104  69.3407345  40.6770945  48.0606174  69.6280909  41.6590595
  48.1900644  72.0012665  37.1255183  48.8520193  71.2060547  36.5147662
  47.0977068  72.5926733  36.5414143  46.6243315  73.3050585  37.0785594
  46.6532707  72.5258684  35.1232290  45.9491014  73.3481026  34.9960279
  47.8270626  72.9645729  34.1431737  48.6133242  72.2099829  34.1211534
  47.4070168  73.1720781  33.1589985  48.4045839  74.2846203  34.6463799
  47.6805830  75.0939131  34.7410846  48.8434553  74.2134809  35.6415844
  49.4596672  74.8123312  33.7228227  48.9858055  74.9926519  32.7579141
  49.9014282  75.7371330  34.0938878  50.5567694  73.8359356  33.5065484
  50.5728197  73.0008030  34.0743470  51.4181376  73.8435984  32.5275731
  51.6253376  74.8993063  31.7781878  51.1411142  75.7773447  31.8993139
  52.2595644  74.8135471  30.9968376  52.3009777  72.8568602  32.4235773
  52.2056961  72.0769453  33.0582142  52.9300165  72.8540945  31.6333890
  45.8372593  71.2939310  34.6445298  45.1800251  71.4181852  33.6444855
  45.7479286  70.2297258  35.4617620  46.2546873  70.3485727  36.3273096
  45.2002621  68.9053106  35.1361513  44.4979429  68.9641142  34.3046546
  46.4059353  68.0517721  34.5830822  46.8320608  68.5743189  33.7266564
  47.1580362  67.8790236  35.3528857  45.9127903  66.6754961  34.0152979
  44.8659945  66.5915442  33.4096146  46.6779280  65.6680536  34.1718912
  44.4263458  68.3645296  36.3155103  44.6865273  67.2460842  36.7811871
  43.5635233  69.1633081  36.9295287  43.1959152  69.9721289  36.4491439
  42.6484966  68.8305616  38.1258798  43.2703590  68.6255121  38.9972806
  41.7888975  70.0468397  38.4070063  41.1671257  70.2154350  37.5277567
  40.8389902  69.8386097  39.6305108  41.3888884  69.3168259  40.4137468
  40.5020046  70.7571650  40.1109314  39.9366140  69.2955780  39.3495631
  42.6455975  71.3364363  38.5824847  43.2576752  71.3893890  37.6821184
  42.0007658  72.2063541  38.7071037  43.5849857  71.2623739  39.7634172
  44.4119835  70.6190872  39.4628310  44.0650177  72.2038698  40.0303555
  43.0974245  70.9370184  40.6824017  41.6871738  67.5858736  37.9303527
  40.9896231  67.4596071  36.9286227  41.5693665  66.7065954  38.9187384
  42.2555828  66.7865276  39.6554971  40.7525253  65.4988241  38.9692616
  39.9084520  65.6683969  38.3007669  41.6018963  64.2734194  38.4918141
  42.1959591  63.9911556  39.3610191  40.9222889  63.4228945  38.4385490
  42.4595928  64.3452358  37.2000551  41.8944502  64.4000053  36.2696195
  43.0141211  65.2796602  37.2863722  43.5579014  63.2391739  37.2171783
  44.0221739  63.2619810  38.2030988  43.0393887  62.3253918  36.9269347
  44.7256851  63.4397173  36.1695528  45.4005909  62.5841951  36.1957598
  44.3337345  63.6266041  35.1697731  45.5046225  64.6531820  36.5235376
  44.9937487  65.5240345  36.4967561  45.9368896  64.4735575  37.4185109
  46.2691116  64.7688675  35.8737206  40.2136993  65.2951336  40.4194307
  40.8133650  65.7632589  41.3689995  39.1094327  64.5051622  40.5898333
  38.1654787  64.1172838  39.5948267  38.5326886  63.2349873  39.0706038
  37.9405236  64.8857641  38.8552761  36.8985939  63.8652039  40.4443884
  36.3557577  63.0213690  40.0185108  36.2482667  64.7349834  40.5374193
  37.4105573  63.2953739  41.7861557  37.6061273  62.2231913  41.7695141
  36.7354965  63.4431410  42.6291037  38.7155414  63.9922285  41.9512939
  38.7014127  64.7855711  42.6986313  39.8458648  63.0255318  42.4567747
  40.2116060  62.9508018  43.6582375  40.4943228  62.3636961  41.4569950
  40.1647520  62.5186825  40.5149460  41.7020464  61.5408421  41.5584040
  41.3718081  60.7894611  42.2756672  42.1324492  60.8447838  40.2785254
  42.8682756  61.4344883  39.7317958  42.8382683  60.0243521  40.4081869
  40.9774780  60.3890514  39.2925811  41.0624456  59.2673349  38.7285876
  40.1155424  61.1783552  38.9459777  42.8242159  62.2306299  42.2791624
  43.5935736  61.5205574  42.8727531  42.9275846  63.6161613  42.2096395
  42.3060465  64.0933418  41.5723896  44.0326023  64.2655373  42.8712320
  44.9510288  63.6915302  42.7482843  44.2892408  65.6797791  42.2896338
  43.4148121  66.3305187  42.2862720  44.9261189  66.2476540  42.9678726
  44.9061346  65.5700111  40.8919001  44.2256212  65.6620789  39.8608994
  46.1819839  65.2793360  40.8219337  46.5505123  65.0460720  39.9109602
  46.7394209  65.2110052  41.6613960  44.0011501  64.5181799  44.3762302
  44.9504805  64.9502516  44.9962854  42.8634501  64.1377306  44.9217653
  42.0942736  63.7470913  44.3965340  42.4867630  64.4196320  46.3028336
  43.2987928  64.9042082  46.8449593  41.3397741  65.3955126  46.4288044
  40.5458975  64.8700571  45.8980036  41.1336803  65.4856348  47.4953413
  41.5637159  66.7810535  45.8247852  41.9436598  67.8785372  46.6125107
  42.0393515  67.8221083  47.6867867  42.0894146  69.1093493  46.0180044
  42.5552559  69.8894358  46.6018343  41.8226004  69.3894672  44.6437025
  42.0239735  70.3400803  44.1723394  41.3502836  68.2969475  43.8928509
  41.1375523  68.3206987  42.8342772  41.3548803  66.9933701  44.4351149
  41.0427809  66.1859751  43.7892675  42.2194719  63.0947876  47.0180607
  41.3507652  62.3407745  46.6401577  43.1158209  62.7788210  47.9297543
  43.7875080  63.4398651  48.2930183  43.1030703  61.4751816  48.6289883
  42.3771334  60.7767153  48.2127380  44.4509792  60.7484245  48.4133434
  45.2304316  61.5094900  48.3768415  44.4937229  60.1114559  49.2968321
  44.5062017  59.8718834  47.1039438  43.7172985  59.1278648  47.2142458
  44.3793678  60.7713270  45.9053278  44.9643707  61.6709805  46.0963678
  44.6495295  60.2272177  45.0003099  43.3339024  61.0300589  45.7375336
  45.7935286  58.9690685  47.1094275  45.8305407  58.4021664  46.1791801
  46.7372322  59.4597387  47.3476839  45.6698847  58.2506418  47.9197836
  42.8853464  61.6548824  50.1622629  43.2718134  62.6158667  50.8138466
  42.3430347  60.6154490  50.7993078  42.1437693  59.7957373  50.2439117
  42.3441553  60.4335546  52.2662258  41.9641066  61.3392115  52.7389193
  41.3876915  59.2810822  52.5499392  41.7725086  58.4997320  51.8945646
  41.4804411  58.9414883  53.5815287  39.9233866  59.5512867  52.2914314
  39.7684026  59.9744511  51.2989521  39.5471883  58.5315895  52.2090340
  38.9073753  60.5287790  53.4816122  38.9978719  62.1738100  52.6448393
  38.5262656  62.0174217  51.6746664  38.3295846  62.8228045  53.2107878
  40.0040817  62.5301790  52.4242878  43.7786627  60.1708317  52.7729750
  44.3843174  59.2591763  52.2542000  44.1663218  60.8612442  53.8649273
  43.7872744  61.7539549  54.1468763  45.1783514  60.2856541  54.7762108
  46.1611271  60.2885151  54.3047762  45.2139330  61.0068512  55.5927420
  44.7847271  58.9258528  55.3802490  43.7895441  58.2759142  54.9999571
  45.5589962  58.4842968  56.3999844  46.4169168  58.9865065  56.5784645
  45.4778290  57.1321678  57.0969343  44.4657230  56.7277193  57.1097660
  46.3050318  56.0477209  56.4101982  46.0735846  55.1647711  57.0059681
  45.8465862  55.8355236  54.9302292  45.8478832  56.7870855  54.3986034
  46.3426399  55.0552368  54.3530083  44.7923231  55.5720234  55.0151396
  47.8475857  56.3662052  56.4176130  47.9395247  57.2644186  55.8069897
  48.2535887  56.6306305  57.3940086  48.7010288  55.2584076  55.8109093
  48.5715294  54.4177437  56.4925337  48.4247398  54.9923849  54.7906160
  49.7558546  55.5252171  55.7456636  45.9338951  57.1024895  58.6075592
  46.6835594  57.9304171  59.1192722  45.2709103  56.2551928  59.4152308
  44.5536375  55.6810045  58.9957857  45.2599287  56.3254833  60.8511066
  44.8245859  55.4132462  61.2590361  46.2702513  56.3071775  61.2597704
  44.5446777  57.5266790  61.4650059  43.4446144  57.9229069  61.1198473
  45.2543211  58.2561302  62.3501301  46.2029934  57.9278755  62.4613619
  44.9257851  59.5064020  62.9665947  44.0564060  59.3653107  63.6087561
  46.1110401  60.0499964  63.7804174  46.9255304  60.2230310  63.0770206
  45.8942032  61.0461712  64.1660738  46.6437578  59.0187740  64.9034119
  46.8670416  58.0305481  64.5013523  47.6034784  59.3317890  65.3145885
  45.6361580  58.8446617  66.0619259  44.7620058  58.4664154  65.5319405
  46.0221481  58.0911493  66.7484617  45.4909515  60.0924873  66.8640137
  46.1615562  60.8428192  66.7779541  44.7056866  60.2107620  67.8913116
  43.8177681  59.2819166  68.1466389  43.6300898  58.5822153  67.4428606
  43.1443691  59.5165968  68.8618708  44.7275448  61.2346601  68.6455727
  45.3971195  61.9598579  68.4314394  44.1902876  61.3345194  69.4949770
  44.5094204  60.5598640  61.8983221  43.7440157  61.4098978  62.2010422
  44.9907827  60.4559612  60.6645441  45.7075405  59.7591639  60.5202150
  44.7598934  61.4155769  59.5566750  44.4438744  62.3782206  59.9586058
  46.1419535  61.6416407  58.9019728  46.2146711  60.7773018  58.2418776
  46.1900663  62.5230885  58.2625675  47.2240448  61.7738008  59.9261379
  47.4758101  62.8455544  60.8264494  48.5908747  62.5838566  61.5160179
  49.0822124  63.1530905  62.2912359  49.0408897  61.3642788  61.1341715
  49.8277712  60.9390306  61.6032982  48.2031059  60.8352757  60.1592541
  48.2971573  59.8826075  59.6592760  43.6539364  60.9311628  58.5631084
  43.5541725  61.4986515  57.4482727  42.8538036  59.9705219  58.8679695
  42.9432440  59.6349335  59.8163795  42.1268702  59.1670465  57.8610373
  43.0129051  59.0036392  57.2475719  41.6400957  57.8590345  58.4335756
  41.2028742  57.1455336  57.7351141  42.3571777  57.3087835  59.0427732
  40.3229237  58.2667589  59.5941925  40.0610495  57.1805525  60.3266335
  40.9634972  59.8014975  57.1148729  40.5104446  59.2721176  56.1164856
  40.5119944  60.9307766  57.6011658  40.8680105  61.1625862  58.5174704
  39.5161676  61.8289423  57.0192909  39.1600680  61.4971924  56.0439777
  38.1990147  61.7948532  57.9545164  38.4348679  61.8682051  59.0161657
  37.5882435  62.6872349  57.8177071  37.2986484  60.6073618  57.7533150
  36.6877079  60.4285431  56.7287683  37.1722698  59.8058128  58.7757540
  36.4551783  59.1166353  58.5999250  37.6200461  59.8869085  59.6774292
  40.1212549  63.1948185  56.7295551  39.3885398  64.0347290  56.2106323
  41.4328051  63.4765196  56.8677473  42.0920229  62.7670670  57.1544600
  42.0407867  64.6923542  56.3088036  41.3056278  65.4736280  56.5018177
  43.3381987  65.0770712  56.9459915  43.9361572  64.1778135  56.7980576
  43.7337017  65.9241962  56.3855934  43.2055235  65.4796410  58.4441805
  42.4171019  66.2137175  58.6103821  43.0067110  64.5791197  59.0252447
  44.4656563  66.1459064  58.9831400  45.2858400  65.4280090  58.9782238
  44.7932148  66.9815588  58.3646822  44.3554735  66.6174507  60.4125500
  43.4145641  67.1397305  60.5858088  44.4274235  65.7901144  61.1185503
  45.4329395  67.5908566  60.7831478  46.3453960  67.1742105  60.6650734
  45.3620529  68.4486485  60.2546930  45.2841616  67.8958368  61.7344379
  42.1041012  64.5663118  54.8425436  42.6828098  63.6201239  54.3301868
  41.7173672  65.6771374  54.1895866  41.3794231  66.4980698  54.6712160
  41.9344473  65.6694889  52.6839733  41.9386101  64.6298218  52.3565912
  40.8748579  66.5106344  51.9433022  39.9656224  66.3539982  52.5236940
  41.0123062  67.5876379  52.0395899  40.6359386  66.2328672  50.4569912
  41.5387678  66.3776255  49.8636580  40.0905657  64.8095703  50.2004004
  40.6833363  64.0576696  50.7213259  39.0856814  64.8134661  50.6226540
  39.9516654  64.6376944  49.1330338  39.6138048  67.2652388  49.9946451
  40.0131035  68.2781744  50.0459051  39.4455767  66.9829035  48.9553690
  38.7124348  67.2308683  50.6065702  43.3178902  66.1584330  52.2287130
  43.5352325  67.4164295  52.2257042  44.1743946  65.2430010  51.7773294
  43.9032173  64.2702961  51.7975426  45.4187536  65.5410528  51.1128855
  45.8783293  66.3754463  51.6426754  46.3044834  64.2372561  51.3235807
  45.6605101  63.3637285  51.2219000  47.0885038  64.2016935  50.5671740
  46.8618202  64.1256475  52.7578640  46.0489750  63.7925243  53.8819122
  44.9805498  63.6989450  53.7549782  46.6637897  63.6243486  55.1599550
  46.1769819  63.4815788  56.1133862  48.0910826  63.7997532  55.2544355
  48.5038662  63.6184692  56.2358379  48.8489056  64.2003679  54.1231108
  49.9047804  64.3940020  54.0046120  48.2182360  64.2323256  52.8832197
  48.7354898  64.2407799  51.9351768  45.1149893  65.9582090  49.6540022
  44.0609455  65.6143475  49.1268682  46.1053944  66.6911697  49.1032457
  46.8545103  66.9422960  49.7324181  46.2747383  67.1386194  47.6957750
  45.5440712  66.6742897  47.0334911  46.1181831  68.7163782  47.6803398
  45.1279259  68.9703369  48.0584955  46.9325018  69.2037153  48.2165146
  46.2299919  69.2076969  46.2159252  47.2655106  69.1124296  45.8892250
  45.3041077  68.4709167  45.2395487  45.8046055  67.5350094  44.9911785
  44.4575500  68.0329466  45.7683468  45.0007868  69.1239643  44.4212437
  45.9643412  70.6882906  46.1005878  46.3556242  71.1628675  47.0004606
  46.3928604  71.0799980  45.1780653  44.8827028  70.8156919  46.1444378
  47.6304817  66.7658329  47.1109772  48.6552715  67.1922970  47.6123571
  47.6462555  65.9343100  46.0787392  46.7759085  65.7905960  45.5868530
  48.7879896  65.2429152  45.5220079  49.6441984  65.8041573  45.8961868
  48.8546658  63.8792992  46.2484407  49.6725798  63.2683039  45.8665943
  49.2275190  63.9823627  47.7276516  50.0906467  64.6480227  47.7248669
  48.3537722  64.3586874  48.2596684  49.5162058  62.9809999  48.0470753
  47.5776815  62.9413033  46.2013531  47.6537371  62.1077681  46.8995905
  46.6239357  63.4417629  46.3687038  47.4614096  62.2079134  44.7909594
  46.8015718  61.3531780  44.9397802  47.1609068  62.8578854  43.9691687
  48.4213829  61.8458700  44.4228840  48.7666512  65.1532507  43.9877987
  47.8748846  65.5692434  43.2124567  49.7636271  64.6116018  43.4314919
  50.4788780  64.2531967  44.0479803  49.9667692  64.2660332  41.9781923
  50.9838152  63.8768625  42.0257139  49.0386677  63.1053257  41.5410519
  49.0742445  62.3122597  42.2879648  48.0118227  63.4663677  41.4832401
  49.3695354  62.4279976  40.1796055  48.4769392  61.7833519  39.6104002
  50.5276346  62.4655581  39.6440530  50.0831509  65.4244614  40.9995508
  49.2459822  65.6804132  40.1328421  51.1674833  66.1492109  41.0443544
  51.8271780  65.8498287  41.7481089  51.6314077  67.2206450  40.1754808
  50.7824850  67.7580500  39.7528291  52.3475790  68.1856346  41.0689354
  53.2584620  67.6707983  41.3744450  52.7217436  69.0411282  40.5065870
  51.5969610  68.7307405  42.3049021  51.4876652  67.9702330  43.4934187
  52.0575762  67.0698309  43.6691427  50.7688189  68.4712553  44.5608807
  50.5953074  67.9130983  45.4690409  50.0248623  69.6327066  44.4345570
  49.5256901  69.9984026  45.3197050  50.1272583  70.3985500  43.2312965
  49.5211506  71.2704611  43.0342913  50.9876823  69.9789429  42.2109509
  51.1443520  70.5822325  41.3289642  52.5032520  66.7291451  39.0211511
  53.7351465  66.5557861  39.1802764  51.8419838  66.4129305  37.8894901
  50.8364439  66.5073252  37.8808856  52.4740648  65.9527540  36.6751695
  53.4249640  65.4325294  36.7902851  51.8071175  65.2086544  36.2397432
  52.6864481  66.9865942  35.5223227  53.7450981  66.9410276  34.9794984
  51.7120790  67.9041052  35.2283788  50.9330511  67.8743362  35.8705068
  51.8366528  69.0198135  34.2709947  52.7786684  68.9128208  33.7331653
  50.5520964  68.8707352  33.4296393  50.4881096  67.8495312  33.0539370
  49.7941780  69.1581964  34.1583562  50.4457521  69.8200464  32.2373629
  50.4398775  70.8725071  32.5209069  51.3820457  69.5101833  31.0013485
  51.1841154  70.1678610  30.1549530  52.4455070  69.6009064  31.2225413
  51.2095642  68.4569311  30.7799649  49.0514565  69.7179031  31.6561389
  48.3536911  69.5306683  32.4723291  48.8136816  70.6824636  31.2075973
  48.8960361  68.8059139  31.0797572  51.9403648  70.3238821  35.0923204
  51.6695881  71.3980818  34.5328379  52.3011637  70.2969217  36.3824511
  52.5715017  69.3913364  36.7387223  52.3263645  71.5744543  37.1303415
  51.4069033  72.1282005  36.9404793  52.3420954  71.2266064  38.6448002
  53.2336569  70.6300068  38.8378978  52.3970556  72.1310806  39.2506218
  51.5078545  70.5851746  38.9288831  53.4549046  72.5570536  36.7897153
  54.5740080  72.1245050  36.4336300  53.2320452  73.8664389  36.9273901
  52.4477148  74.2459631  37.4381638  54.2464828  74.8652411  36.4789939
  55.2317238  74.3991280  36.4910364  53.9407778  75.3507710  34.9893999
  54.1142511  74.5110655  34.3164206  52.8754568  75.5813599  34.9846816
  54.7166681  76.5802097  34.3813992  54.6002007  77.5262260  34.9101615
  55.7825565  76.3720512  34.2883611  54.2161989  76.8032455  32.9345822
  54.5317078  75.9460211  32.3398423  53.1298542  76.7252684  32.9779077
  54.7047663  78.0481195  32.2373438  54.7049713  78.9120436  32.9019761
  55.7600355  77.8916168  32.0137072  53.9491653  78.1543541  31.0368180
  54.4163561  78.8929462  30.5305338  53.9762449  77.2895861  30.5157232
  52.9870844  78.4246016  31.1833215  54.3041086  76.0657406  37.4808478
  53.3155012  76.2635660  38.1347227  55.4426193  76.7489815  37.7120733
  56.3073874  76.4099646  37.3153996  55.5496788  78.0418825  38.4159827
  55.0635815  77.9503822  39.3872929  57.0212030  78.3648443  38.8448524
  57.3137808  77.4536610  39.3666291  57.7088499  78.4759712  38.0064631
  57.3217249  79.6579456  39.6314430  57.1636295  80.5280590  38.9942646
  56.6884565  79.8143053  40.5047274  58.8017750  79.7622585  40.1020718
  58.8956451  79.0213919  40.8960485  59.5692253  79.6359682  39.3384171
  59.0436554  81.1384201  40.6867790  59.0088463  81.9015598  39.9092746
  58.2317543  81.3760948  41.3741112  60.4293108  81.1528015  41.2812042
  60.7113171  82.0829678  41.5557098  60.5139923  80.5532646  42.0895958
  61.0734510  80.7779503  40.5995369  54.9479008  79.1595221  37.6015139
  55.1600790  79.2220354  36.4479876  54.2195082  80.1178932  38.1446981
  53.9883184  80.0207520  39.1230750  53.5472631  81.2010956  37.3732686
  53.7517834  81.1200047  36.3057017  52.0468092  81.0280609  37.5107074
  51.5930462  81.6656017  36.7519259  51.7371464  80.0132561  37.2609782
  51.3917160  81.5220451  38.8350344  51.0877991  82.8830624  38.8989305
  51.2175989  83.5806561  38.0847287  50.4749680  83.2421494  40.0779009
  50.1022816  84.2445946  40.2282715  50.3827095  82.4669361  41.2039280
  49.8546028  83.0235291  42.3457003  49.9662828  82.3947144  43.0624390
  50.8152246  81.1182117  41.1647558  50.8104610  80.3839016  41.9566917
  51.3015699  80.6677628  39.9448037  51.6554117  79.6781635  39.6960354
  53.9307833  82.6179409  37.8641558  53.6824465  83.5646820  37.0977998
  54.5531607  82.7883244  39.0609837  54.7628546  81.9966030  39.6520162
  55.0680542  84.0900135  39.4459200  55.3652525  84.5269108  38.4925580
  54.0516663  85.0499344  40.1244402  54.3975878  86.0754490  39.9950147
  53.0640030  84.8963070  39.6896744  53.8516808  84.7923279  41.6133928
  53.6933184  83.7222576  41.7474937  54.6974707  85.0818634  42.2370148
  52.6808262  85.5986023  42.2122765  53.0258083  86.6310692  42.2680473
  51.8686962  85.6419277  41.4865637  52.4250031  85.0766277  43.5598373
  53.1896496  84.5847511  43.9996862  51.3669395  85.4990864  44.2870235
  50.4323101  86.2226772  43.7158918  50.5124998  86.4405727  42.7329445
  49.5413160  86.3271236  44.1799164  51.2366962  85.1600361  45.5412912
  51.9632053  84.6210384  45.9904814  50.3543377  85.2718544  46.0198736
  56.3570833  84.0470695  40.2690029  56.5606356  83.1771088  41.1067009
  57.2638512  84.9752903  39.8997879  56.9828939  85.6054878  39.1622114
  58.5845089  85.2334881  40.5877399  59.1420746  84.3024826  40.4854870
  59.2749691  86.3606548  39.9296665  59.2943811  86.1480141  38.8607860
  58.5843372  87.1702003  40.1658297  60.6773663  86.7584419  40.4349852
  60.8664799  87.8553486  41.0948563  61.6242552  85.9548473  40.2169895
  58.4275293  85.4928207  42.1947527  57.8186607  86.4288521  42.5995922
  59.1737223  84.7339439  43.0325699  59.7153139  83.9793491  42.6358604
  59.2318201  84.8926163  44.4600248  58.2768059  84.6307659  44.9155283
  60.2004242  83.8304615  45.0130033  61.1879444  83.9299107  44.5624304
  60.3825092  84.1046715  46.0521173  59.6655655  82.3900700  44.9619341
  59.0363693  81.9440651  44.0561962  59.9062395  81.6231441  45.9598207
  59.5108938  80.6972885  45.8785677  60.4032660  81.9896698  46.7590237
  59.6311092  86.2874031  44.9485636  58.8117218  86.8781185  45.6858110
  60.7285595  86.8608379  44.4156504  61.2836218  86.3319492  43.7581730
  61.2895203  88.2084560  44.8399210  61.4522934  88.2271671  45.9175348
  62.7043819  88.3684063  44.2734623  63.3250761  87.5102997  44.5313168
  62.6440287  88.4486008  43.1880903  63.5119534  89.5971203  44.7591257
  62.8742886  90.4721737  44.6335793  63.6923313  89.5383644  45.8324909
  64.8448515  89.6702576  43.9648199  65.3680468  88.7179756  44.0515232
  64.5150089  89.8381615  42.9395819  65.7266760  90.7958126  44.4947100
  65.2945137  91.3484859  45.2212715  66.8313932  91.2677860  43.9544296
  67.3559713  90.7155323  42.9016733  66.8650389  89.9484444  42.4650383
  68.2006073  91.0919380  42.4954557  67.4394751  92.3380089  44.3322182
  67.1896553  92.8033066  45.1931381  68.3725405  92.5308418  43.9970970
  60.3866577  89.3720245  44.5300531  60.3083611  90.3138447  45.3848600
  59.8155594  89.3172455  43.3686113  60.0743818  88.5676670  42.7431059
  59.1636276  90.5199718  42.7941608  59.1707659  91.3377953  43.5147238
  59.9733305  91.0815430  41.5964174  59.5842648  92.0526695  41.2903929
  61.4677048  91.1747169  41.8847513  61.6505480  91.9764233  42.6002455
  61.8298531  90.1817989  42.1513224  61.9289398  91.4184093  40.9276819
  59.8252392  90.1010895  40.5204344  60.3772593  89.3417645  40.7211971
  57.6953650  90.3615379  42.3425913  57.1487474  91.3619900  41.8868637
  57.0781422  89.1381550  42.3439598  57.6378298  88.3757019  42.6982403
  55.7160521  88.7436581  41.8330574  55.5434942  87.6799774  41.9971180
  54.7105169  89.5866489  42.6482296  54.8553944  90.6577015  42.5069761
  53.6962080  89.2806530  42.3920202  54.8218775  89.1050053  44.0899134
  54.5409727  88.0543137  44.1623497  55.7918596  89.3572807  44.5183897
  53.9088726  89.8852921  45.0089550  54.0376043  89.4383049  45.9947205
  54.2379618  90.9243679  45.0204468  52.4832439  89.7639465  44.5796108
  52.2125578  90.2203083  43.7202168  51.4820051  89.3284702  45.2823591
  51.5999603  88.6814213  46.3927317  52.5109720  88.5480499  46.8079138
  50.7669449  88.2740784  46.7930508  50.2815485  89.4385052  44.8225880
  50.3093719  89.9363422  43.9442492  49.4157362  89.2895222  45.3208637
  55.5775690  89.0109253  40.3321218  54.4801188  89.1272354  39.7951651
  56.6716623  88.9695454  39.5839763  57.5396109  88.9284420  40.0988388
  56.7136288  88.9684296  38.1257176  56.1952257  89.8727417  37.8069997
  58.1350899  89.2453384  37.6471281  58.6735439  89.9834061  38.2416129
  58.6831665  88.3701611  37.9960895  58.4493399  89.4177723  36.1819291
  57.7564096  88.7767696  35.6368971  58.3614588  90.4923916  36.0220051
  59.7867823  88.9824677  35.7760668  60.7107210  88.9000225  36.5866208
  60.1070356  88.5585594  34.5492077  61.1045504  88.5047245  34.4003320
  59.4500303  88.5724163  33.7822318  56.0503483  87.7788734  37.4616361
  56.6043949  86.6659832  37.4386954  54.8443556  87.9813576  36.9420338
  54.4943666  88.9261532  36.8715119  54.0463495  86.9252014  36.2360215
  53.9682484  86.1100006  36.9553542  52.6313925  87.4638939  35.9641695
  52.1606398  87.9343510  36.8273926  52.6926279  88.1895924  35.1531768
  51.7175722  86.5121365  35.3654885  51.3612175  85.3450108  36.0732365
  50.4037666  84.8438835  35.4095984  50.0008583  83.8728142  35.6567574
  50.0907230  85.4949474  34.2778063  49.3906164  85.1821899  33.6204267
  50.8564901  86.6271400  34.3033957  50.8339214  87.4014664  33.5508609
  54.6961069  86.4577007  34.9831295  55.2849674  87.2546959  34.2641664
  54.5483351  85.1938152  34.6430349  54.1713762  84.5002842  35.2731323
  54.8265171  84.7639656  33.2537866  55.9158421  84.7736740  33.2165551
  54.3133926  83.3177662  33.1946397  54.6385098  82.9565907  32.2189617
  55.1173973  82.4057484  34.0960741  56.1659575  82.5533581  33.8375664
  54.9507713  82.7220440  35.1257801  54.8536396  81.3509178  34.0194106
  52.7797461  83.1543922  33.4060478  52.6300955  83.4114742  34.4546771
  52.1742821  83.8139629  32.7843690  52.2937822  81.7391014  33.1223011
  52.7518892  81.3688660  32.2051501  52.5423527  81.1102772  33.9772272
  51.2051344  81.7402458  33.0680108  54.3253279  85.7195759  32.0900893
  53.2170677  86.2557983  32.1748042  55.0240946  85.8415127  30.9565258
  56.3165617  85.2044868  30.7989860  56.2437725  84.1398716  31.0212040
  57.0505619  85.6252384  31.4862442  56.7513895  85.3296566  29.3727779
  56.4873505  84.4770813  28.7470865  57.8253603  85.5149555  29.3912315
  55.9759760  86.5745354  28.9364004  55.8579779  86.6025639  27.8531694
  56.4476347  87.5032902  29.2574239  54.6714115  86.4440823  29.6674466
  54.2132807  87.4223518  29.8130727  53.5535908  85.5356884  28.9820218
  53.7192917  84.3032074  28.8984179  52.5171709  86.1895370  28.4622478
  52.4741459  87.1803570  28.6534238  51.5695477  85.6670570  27.5301766
  51.1085939  84.7357368  27.8592110  50.4410505  86.6454315  27.2955251
  50.0322580  87.0114994  28.2373214  50.8783865  87.5786495  26.9406271
  49.4127417  86.1064339  26.3666224  48.3126116  85.3474236  26.8219852
  48.2124567  85.2223110  27.8900290  47.3889780  84.7755718  25.9306407
  46.4646578  84.3289852  26.2661934  47.7922773  84.6917534  24.5467353
  46.9196129  84.2220879  23.6618543  47.1278381  84.4124699  22.7442503
  48.8445616  85.4378319  24.0991688  48.9978456  85.3819275  23.0315661
  49.6755028  86.1948395  25.0018072  50.5136108  86.8054295  24.6999025
  52.3416567  85.3400707  26.2376738  52.9656267  86.1966038  25.6128597
  52.0390701  84.1679478  25.6530309  51.3891649  83.5573864  26.1273170
  52.6694632  83.6122513  24.4193816  52.8956127  84.4000053  23.7007642
  54.0226507  82.8381824  24.6373367  53.8690376  82.0321560  25.3548503
  54.3398809  82.4307156  23.6774206  55.1908875  83.7356186  25.0297570
  54.9536943  84.2599010  25.9554815  56.0636520  83.1034279  25.1932144
  55.4531097  84.8669338  24.0218139  55.6399441  84.3202400  23.0975199
  54.6452904  85.5643082  23.8000131  56.6600513  85.5337620  24.3930697
  57.4514723  84.9125862  24.4819427  56.7744589  86.7113876  24.8675990
  55.8334017  87.5884342  24.6753478  54.9092054  87.4251461  24.3021202
  56.0667753  88.5554695  24.8499465  57.8775597  87.1273136  25.4131246
  58.5969639  86.4717484  25.6829524  57.9055786  88.1257820  25.5626369
  51.6276455  82.8410244  23.5752153  50.6956625  82.2821331  24.1801620
  51.8310308  82.6820278  22.2864032  52.7185583  82.9700375  21.8998146
  50.9572792  81.8688393  21.3833022  49.9217176  81.8503761  21.7229629
  50.8486843  82.6052189  20.0113630  51.8611288  82.8744030  19.7103703
  50.5903816  81.8499279  19.2691290  49.9351883  83.8292408  20.0144291
  50.2990198  84.5534420  20.7433128  49.8347473  84.1379070  18.9738834
  48.4844494  83.4682751  20.3854370  47.9557180  82.4754524  19.8678029
  47.8334045  84.2135715  21.1649036  51.4765644  80.4163265  21.1664748
  52.6907444  80.1966667  21.2208867  50.5782509  79.4953632  20.8125520
  49.6365213  79.8573589  20.7655096  50.8368683  78.1071329  20.4565430
  49.9365950  77.5940466  20.1183891  51.6062689  78.1273413  19.0828037
  51.0611963  78.8284254  18.4507632  52.6240730  78.4744692  19.2607677
  51.6203356  76.7775154  18.3676779  52.3382664  76.6585159  17.3461604
  50.9066868  75.8345699  18.8402629  51.2682676  77.1809006  21.5858245
  52.2321701  76.3850927  21.3385034  50.7085848  77.3017931  22.7845001
  49.9404764  77.9567432  22.8184772  50.8425474  76.2779379  23.8483930
  51.9070578  76.0538912  23.9171004  50.2065563  76.7587233  25.1057458
  49.1345596  76.8368292  24.9245834  50.3776121  75.9466648  25.8124280
  50.8190775  78.1366444  25.5235434  50.3866053  78.9726639  24.9738741
  50.5354261  78.2506847  26.5697908  52.3976231  78.3262205  25.4608488
  52.8970718  77.7844906  24.6576190  52.5718546  79.3989086  25.3766656
  53.0617952  77.8335524  26.7445040  52.3425484  77.5433969  27.5103974
  53.5554266  76.9061136  26.4541698  54.1352749  78.7206221  27.2011828
  54.7243071  79.1496038  26.5018058  53.7948418  79.4484949  27.8130722
  54.6988964  78.1522417  27.8171158  50.2739763  74.9893570  23.3180380
  49.3576002  75.0380754  22.5749040  50.8857059  73.9360952  23.7788200
  51.6604519  73.8988447  24.4257212  50.3987551  72.5595188  23.4506106
  50.1632881  72.4901199  22.3886108  51.4690304  71.5432501  23.8725281
  51.6218710  71.6606808  24.9453521  51.0444021  70.6049109  23.5157084
  52.7981567  71.7907047  23.1012416  53.7857056  72.4106407  23.4951162
  52.8884935  71.2090302  21.9513130  53.7355900  71.2627268  21.4039230
  52.0936155  70.7144165  21.5723276  48.9972258  72.3065329  24.0170431
  48.5750771  73.0650425  24.9394727  48.3089876  71.2767696  23.5175824
  48.6799431  70.7202578  22.7607512  46.9947195  70.8877039  23.9721465
  46.3583136  71.7295980  24.2447329  46.3577271  70.1652956  22.7918053
  47.0126343  69.4076347  22.3615122  45.4207325  69.6516562  23.0070281
  45.9882164  71.1784935  21.6325974  46.8418884  71.8500566  21.5412068
  45.7972431  70.3010845  20.3607202  45.5094242  70.8947134  19.4930398
  46.6566706  69.7088337  20.0465131  45.1627254  69.4507074  20.6104064
  44.7905922  72.0801020  22.0127058  44.7277927  72.9796743  21.4003944
  43.9308023  71.5015030  21.6749382  44.7022724  72.2239971  23.0895519
  47.1121120  69.8739958  25.1146770  47.9171896  68.9192390  24.9550533
  46.3878345  70.1119709  26.2008858  45.7776213  70.9139299  26.2688375
  46.6808033  69.4661283  27.5246835  47.2213936  68.5252953  27.4212956
  47.6611757  70.4303026  28.3733654  47.7689505  69.9894714  29.3644023
  49.0932751  70.4721355  27.8080606  48.9897108  71.0789967  26.9085670
  49.7720289  70.9346008  28.5246706  49.3318653  69.4832325  27.4165964
  47.1141243  71.6901827  28.5789442  46.6212749  71.6404486  29.4012761
  45.4395103  69.2564106  28.4302807  44.4302893  69.9021578  28.1677127
  45.5079317  68.3400249  29.3837667  46.4297533  67.9417944  29.4921899
  44.5564795  68.2284260  30.5096459  45.1850224  67.9977036  31.3697648
  44.1582060  69.2136860  30.7520223  43.3195448  67.2761393  30.3226566
  42.8945112  66.9899130  29.1146398  42.7989769  66.8015909  31.4248419
  43.0970478  67.1714306  32.3161745  41.8171978  65.7182455  31.4290619
  42.2616768  64.8960590  30.8682156  41.6707706  65.2716780  32.8948617
  41.5137148  66.1903811  33.4600353  40.6080723  64.2621279  33.2719064
  40.7735682  63.3456850  32.7054763  40.7491016  63.8906097  34.2868876
  39.6482444  64.7638702  33.1490707  42.8708363  64.6987867  33.4179115
  43.5442400  65.3785706  33.4955406  40.5336332  66.0830927  30.7387900
  39.9484348  67.1439791  31.0131598  39.9274421  65.1880455  29.9032283
  40.3507900  64.3065500  29.6505618  38.7715960  65.5365658  29.0860438
  39.0962076  66.2861681  28.3643651  38.3089089  64.3189287  28.2633758
  39.1366196  63.6213541  28.1353307  37.4442482  63.8169384  28.6975050
  38.0403566  64.6132088  27.2487926  37.5445557  66.1490393  29.9063826
  37.1384215  67.2952414  29.5911360  36.9517946  65.4946232  30.9517598
  37.3130107  64.6109486  31.2815189  35.8894563  66.0236168  31.8074608
  34.9533629  66.1718273  31.2690735  35.6568003  64.9248171  32.8545141
  36.6393399  64.5999098  33.1967974  35.2730656  65.3467798  33.7833810
  34.8057246  63.7307692  32.4291730  33.8256073  64.1354227  32.1767330
  35.1924205  63.3557177  31.4815950  34.7471619  62.6740122  33.5551858
  35.6765723  62.1121454  33.6479354  34.5783186  63.1107521  34.5394874
  33.5219693  61.8950653  33.3033347  32.7504992  62.2006941  32.7275491
  33.2622766  60.7129622  33.8660669  34.1581845  60.0297785  34.5762157
  35.0455880  60.4529572  34.8076034  33.9562750  59.1125154  34.9476576
  32.1096849  60.2066183  33.7156606  31.5315771  60.6659508  33.0265236
  31.9124484  59.2790270  34.0631723  36.1911583  67.3476648  32.4597931
  35.3006792  68.1730270  32.7258539  37.4686432  67.6078224  32.7734137
  38.2205892  67.0221806  32.4392033  37.9197025  68.5039377  33.8902259
  36.9867826  68.8903284  34.3006659  38.6661315  67.6958370  34.9276733
  39.6104407  67.3207998  34.5330501  39.0346527  68.2888556  35.7647038
  37.8133917  66.6391134  35.6255674  36.4936948  66.8080854  36.0784554
  36.0580826  67.7908373  35.9743547  35.7734513  65.7473183  36.5878296
  34.7555089  65.9280062  36.9001484  36.3608003  64.4436216  36.7514038
  35.6708336  63.3840275  37.1665120  36.1491919  62.5604963  37.2872066
  37.6599503  64.2457056  36.2978888  38.1907415  63.3055973  36.3271022
  38.4031653  65.3356171  35.7968044  39.4569349  65.2448750  35.5783153
  38.6683249  69.7137165  33.2953906  38.2860374  70.7455444  33.7678456
  39.6229839  69.6203279  32.4458361  39.8752785  68.6611080  32.2551894
  40.5307674  70.7046747  32.2170544  40.9956884  71.0434675  33.1428862
  41.7117357  70.2403402  31.3423538  42.1646786  71.1356831  30.9165454
  42.3625422  69.8424482  32.1209645  41.4097595  69.5068836  30.5947208
  39.8793554  71.9713402  31.5657759  38.7984562  71.8760967  30.9516883
  40.3372955  73.1789923  31.8330383  41.0422421  73.2371378  32.5539851
  39.6812153  74.4522572  31.4663196  38.7087727  74.4787979  31.9580007
  40.4953909  75.6081772  32.0677996  39.9864197  76.5704632  32.0124769
  40.8030415  75.2974749  33.0662560  41.7062044  75.7232666  31.3392973
  42.0572901  76.5909052  31.5527034  39.4823885  74.5742846  29.9570489
  40.1597834  73.8872766  29.2138124  38.7083411  75.5386019  29.4400620
  38.2530522  76.1638689  30.0895667  38.4822106  75.8261490  28.0020738
  38.0856204  74.9196672  27.5447774  37.2655964  76.8273783  27.8767323
  37.2885871  77.6016951  28.6435461  37.4443507  77.5940180  26.6002560
  36.6717958  78.3569622  26.5044570  38.4321713  78.0529785  26.6410255
  37.4341512  77.0412683  25.6608582  35.9629202  76.0462427  28.0490708
  36.0467982  75.1484776  27.4366307  35.7896304  75.7030678  29.0690231
  34.6968174  76.8085814  27.6034331  34.7442698  77.0381546  26.5389395
  33.7778068  76.2225056  27.6100302  34.6243024  77.7985287  28.0538249
  39.7565913  76.2230587  27.3048997  40.1989555  75.6660271  26.3316202
  40.6538439  77.0320368  28.0032063  40.2451229  77.4870586  28.8069487
  42.0144272  77.4513531  27.5727367  41.9169998  78.0179882  26.6467071
  42.6536846  78.4058380  28.6832500  42.6768255  77.8897095  29.6430278
  43.6580753  78.6552858  28.3410668  41.8582487  79.7601128  28.8354564
  41.3941860  80.3102493  27.8216577  41.7026854  80.2748108  30.0879931
  40.8978987  80.8491135  30.2943945  42.0580578  79.7232485  30.8558393
  42.9721785  76.3041306  27.2682071  43.7357426  76.3665199  26.3718200
  42.8653908  75.1696587  28.0117130  42.1668911  75.2879667  28.7315726
  43.7800741  73.9856100  27.9734945  44.7931910  74.3659925  27.8430676
  43.5975647  73.0533266  29.2237568  42.9252052  72.2186995  29.0251780
  44.5956469  72.6409483  29.3716574  43.1655836  73.5411644  30.0975442
  43.5672188  73.2310724  26.6413116  44.4625664  73.0868435  25.7909822
  42.2463703  73.0449152  26.4090395  41.5867519  73.1729555  27.1630979
  41.6899252  72.3783207  25.2136755  42.3645163  71.5431929  25.0250340
  40.3572607  71.8061209  25.6163979  39.7419214  72.6091576  26.0220957
  39.9088454  71.3537598  24.7318673  40.4202652  70.7116175  26.6724062
  39.3964767  70.2446175  27.4863338  39.9211693  69.1802073  28.0942345
  39.4111204  68.4492064  28.7040591  41.2240744  68.9990091  27.7873921
  41.8449593  68.2483578  28.0540895  41.5525770  70.0174379  26.9397163
  42.5364494  70.2422142  26.5551805  41.7843485  73.2961559  23.9006853
  41.8273926  72.7850437  22.7806664  42.0791960  74.5667076  24.0719819
  41.9818211  75.0003386  24.9789429  42.3796463  75.4420567  22.9664779
  41.9421721  75.0465679  22.0497942  41.7180014  76.7944336  23.3133769
  42.0228720  76.9942188  24.3406224  42.2123146  77.6068830  22.7807546
  40.1945305  76.8492270  23.3072090  39.7454906  76.0391092  23.8818169
  39.8146558  78.1957817  23.9414334  39.8925686  79.0568209  23.2776213
  38.7531734  78.1456327  24.1840005  40.3923559  78.3448315  24.8536539
  39.5878339  76.8032551  21.8988609  38.5217476  77.0100880  21.9925499
  40.1273251  77.5074196  21.2654495  39.7959161  75.8071089  21.5083551
  43.8878489  75.6773281  22.8586197  44.3411064  75.9626579  21.7943740
  44.6928358  75.1823235  23.7810516  44.2636108  74.7810936  24.6025634
  46.1566162  75.3367853  23.8003063  46.7436409  74.7695780  24.5226502
  46.4689589  75.0100994  22.8084278  46.4993477  76.8431282  23.9659333
  47.2673941  77.3753071  23.1822419  45.9807539  77.5060940  24.9309492
  45.5145550  76.9727373  25.6508708  46.1744547  78.9447451  25.2919316
  46.9788551  79.4127178  24.7244334  44.7653818  79.8045874  25.1890540
  44.0971613  79.2011929  25.8034635  44.8039293  81.2120152  25.7706714
  45.4335737  81.9240093  25.2370834  43.8157797  81.6158676  25.9910393
  45.3342438  81.1514759  26.7210412  44.3593168  79.7984123  23.7332916
  45.0925159  80.3457546  23.1408906  44.2945862  78.8075924  23.2836342
  42.9320240  80.3829861  23.5583544  42.9146671  81.4414215  23.8181829
  42.6142788  80.4353714  22.5170112  42.2698593  79.7205257  24.1158319
  46.6828585  78.9101028  26.7186904  46.1924314  78.1174278  27.6323628
  47.6840782  79.7751951  26.9814014  47.9617262  80.3889275  26.2288451
  48.5353184  79.7703266  28.2182145  49.0373802  78.8064814  28.3021140
  49.6312332  80.8500767  28.1601000  50.1272011  80.7693386  27.1928382
  49.0321112  81.7555904  28.0642080  50.5681562  80.9791183  29.3758535
  51.0285425  81.9671059  29.3713903  50.0044203  80.9743977  30.3087425
  51.6787195  79.9844313  29.3006182  51.3489008  78.7479353  29.4388938
  52.8722572  80.3272820  29.1541004  47.6753092  79.9305010  29.5085311
  46.9117880  80.8453178  29.7433090  47.9154539  78.9509583  30.3363442
  48.3052301  78.1157732  29.9232531  47.1094942  78.7313175  31.6071773
  46.1390018  79.2042446  31.4568996  46.8668747  77.2175312  31.7771220
  47.8062344  76.6646910  31.7685819  46.3489485  77.1589804  32.7344203
  45.9982777  76.5566254  30.6706238  45.0193453  76.9890165  30.4636621
  46.4551067  76.5256596  29.6814585  45.7305479  75.1097012  31.1604786
  46.6222668  74.2758703  30.9369802  44.6719646  74.8355007  31.9375038
  44.6277332  73.8542414  32.1726274  43.9649487  75.5356646  32.1106958
  47.7008152  79.2776155  32.8683877  48.9514875  79.3178988  32.9978466
  46.8189192  79.6711922  33.7847400  45.8617973  79.6932650  33.4629822
  47.1205187  80.4617214  34.9627662  48.0886602  80.1519871  35.3563046
  47.2919369  81.8804550  34.5212317  48.1376553  82.0282364  33.8496494
  46.4166260  82.2202587  33.9676332  47.4911308  82.8117943  35.5949354
  47.1423388  83.6309147  35.2358007  46.1433411  80.2164650  36.1031699
  45.4258204  79.2430067  36.0500026  46.1529732  80.9822178  37.1677494
  46.8102884  81.7488003  37.1873403  45.3692055  80.7780838  38.4356809
  45.5996943  79.8007917  38.8597989  45.5530977  81.8246078  39.4147825
  45.3790855  82.7606583  38.8840890  44.7054958  81.7566872  40.0967360
  46.8315935  81.7758465  40.2247620  47.0602942  80.7963943  40.6448364
  47.5922728  82.1562004  39.5429993  46.7139244  82.9213333  41.2493467
  45.7926512  82.8473282  41.8271685  47.5474930  82.7410603  41.9281435
  46.9138765  84.2763042  40.7161379  46.5994883  84.4762897  39.7773838
  47.3671198  85.3839207  41.3523245  47.6898766  85.3479290  42.6313972
  47.5668764  84.4934082  43.1555700  47.7760220  86.2554455  43.0662489
  47.5211382  86.5698242  40.8290720  47.5195217  86.5966702  39.8194265
  48.1641054  87.1299744  41.3702965  43.8973856  80.6098843  38.0735970
  43.1408262  79.8452187  38.6424947  43.4282446  81.3266659  37.0137501
  44.0386772  82.0578957  36.6779280  42.0672703  81.2377644  36.4315200
  41.3562441  81.5501404  37.1963477  41.8398905  82.1246052  35.1873851
  40.8294439  81.8795204  34.8602295  41.8129444  83.1724644  35.4863143
  42.9342699  82.0189667  34.1298890  43.7766361  82.6591492  34.3919587
  43.2493448  80.9773445  34.1920090  42.4505997  82.2584724  32.6589370
  41.6281223  81.5712929  32.4604011  42.0218134  83.2599163  32.6223230
  43.5629988  82.0434570  31.7325163  44.0743828  81.1812592  31.8557644
  43.8375139  82.8696251  30.6866598  43.1093645  83.8960171  30.3686881
  42.2934198  84.0891361  30.9317613  43.2075644  84.3336964  29.4637585
  44.8419666  82.7348042  29.9270868  45.5610609  82.0421410  30.0794530
  44.8416185  83.3045673  29.0931392  41.6156864  79.7286749  36.2393451
  40.4682732  79.3306875  36.5681410  42.4659824  79.0148211  35.6285763
  43.2669449  79.5747471  35.3735518  42.2685003  77.7261543  35.0183272
  41.3390827  77.7359343  34.4489527  43.3814192  77.5268078  34.0010643
  44.3500996  77.8020954  34.4181705  43.3658695  76.4850569  33.6807108
  43.1838608  78.4608555  32.7630687  42.1610546  78.2662249  32.0337701
  44.0795469  79.2944050  32.5563741  42.2406483  76.5197372  35.9406996
  41.4183140  75.6151152  35.8238435  43.1438303  76.5478945  36.9669747
  43.8319874  77.2870827  36.9793391  43.0339098  75.6558704  38.1881213
  43.1717825  74.6492147  37.7934885  44.1420507  75.8940077  39.2131352
  44.2231464  76.9703436  39.3648839  43.8697433  75.4554319  40.1731348
  45.4249525  75.2901125  38.9210486  45.5529690  74.6884632  37.8106880
  46.3861609  75.4916716  39.6682382  41.6808987  75.7118416  38.8619137
  40.9470701  74.6584702  38.8846397  41.2044573  76.9073343  39.1484976
  41.8206882  77.7028513  39.0618134  39.9434352  77.1646929  39.8205256
  39.9930167  76.6344500  40.7715702  39.8822379  78.6306000  40.1977634
  39.8974967  79.2523098  39.3025827  38.9193988  78.8438463  40.6620598
  40.9726381  79.0077639  41.2099314  41.9558239  78.8596678  40.7632589
  40.9120798  80.0535202  41.5113068  40.9160471  78.0265713  42.7961731
  39.4562125  78.7972927  43.5317087  38.7232590  79.0122604  42.7541018
  38.9757967  78.1176805  44.2355728  39.7872686  79.7083282  44.0302324
  38.7900543  76.7798758  38.9818478  37.8885508  76.1966753  39.5355630
  38.8351345  77.0349693  37.6460195  39.6875787  77.4432659  37.2900248
  37.8227067  76.6406202  36.6962337  36.8461418  76.9808102  37.0407534
  38.0250931  77.2573423  35.3100777  37.9436660  78.3433533  35.3553319
  39.0716863  77.0463133  35.0905085  37.0277691  76.7242193  34.2369986
  37.1533036  75.6582880  34.0469074  36.0343194  77.0358467  34.5595622
  37.3367286  77.3882961  32.8542900  37.7706242  78.5357761  32.8022790
  36.9301033  76.8013096  31.8314981  37.7218914  75.1615477  36.6180825
  36.6546416  74.5683193  36.7033911  38.8775420  74.4823456  36.3929081
  39.7501945  74.9903154  36.3695860  38.8837743  73.0288649  36.3245749
  38.1690693  72.7771616  35.5410290  40.2466917  72.4483442  35.9892702
  40.9636784  72.6639891  36.7814350  40.2625227  71.3644838  35.8748317
  40.9158421  73.0402040  34.8419070  41.1597919  73.9471769  35.0406361
  38.3955884  72.3776579  37.6472831  37.6415181  71.4312553  37.6205087
  38.8062811  72.9144239  38.7595677  39.5700359  73.5752964  38.7540984
  38.2630634  72.5790644  40.0986576  38.5028672  71.5280867  40.2600050
  38.8731170  73.3547544  41.2811518  39.9317026  73.0996418  41.2320614
  38.5379744  74.3795586  41.1212778  38.4843874  73.0588055  42.6964378
  37.4336934  73.3255243  42.8104782  38.7215471  71.6219473  43.1339979
  38.3796215  71.2988710  44.1172647  38.0615449  70.9830952  42.5471687
  39.7605872  71.3319778  42.9777479  39.1420436  73.9117241  43.7665415
  38.5435152  73.8830042  44.6770525  40.1553488  73.5822439  43.9962292
  39.1761541  74.9528599  43.4456396  36.6953921  72.7424479  40.1296902
  36.0704184  71.9432831  40.7266855  36.2018132  73.8205767  39.5368886
  36.8808961  74.4001102  39.0645695  34.8334813  74.1328430  39.1479826
  34.3940473  74.3367529  40.1244116  34.7699690  74.9899101  38.4775352
  34.0935946  72.9973125  38.4169698  33.0256367  72.6495695  38.9827919
  34.6835160  72.4302578  37.3922706  35.4660726  72.9363489  37.0029426
  34.1383266  71.2257004  36.7041945  33.0937123  71.4732742  36.5155220
  34.8054695  70.9492445  35.3450108  35.8834124  70.8329964  35.4573727
  34.5299506  69.9139023  35.1443768  34.4641447  71.8971062  34.1743183
  33.1112409  71.8467903  33.6814213  32.3951983  71.1418819  34.0773845
  32.6547194  72.7660561  32.7366996  31.6284156  72.7510309  32.4007297
  33.5172296  73.7106323  32.2376895  33.0565882  74.5489359  31.3119435
  32.2676110  74.2307043  30.8671379  34.8464775  73.7512398  32.6520228
  35.5026197  74.5517015  32.3435664  35.3406715  72.8338718  33.6245799
  36.3726711  72.8099775  33.9420772  34.0639377  69.9431086  37.6146722
  33.0412436  69.3119955  37.6241541  35.0524688  69.6671915  38.4859967
  35.8497500  70.2740860  38.6129594  34.8561716  68.6826086  39.5554972
  34.6976900  67.7035904  39.1032720  36.1165094  68.6016750  40.4426241
  36.4117646  69.5984554  40.7702780  36.0199809  67.8401470  41.7548847
  36.9485784  67.8718233  42.3248005  35.3092146  68.3448219  42.4092674
  35.6571674  66.8230867  41.6063213  37.2464609  67.9304934  39.7003484
  38.1424642  68.0931091  40.2993774  37.0494914  66.8618393  39.6149516
  37.3785543  68.2040024  38.6535239  33.7124157  68.9561749  40.5372095
  32.8997850  68.0991316  40.8332539  33.5649252  70.1770544  41.0851812
  34.2678547  70.8649921  40.8555412  32.3312449  70.4824591  41.9092798
  32.1659636  69.7576714  42.7064419  32.4842286  71.8265104  42.5571680
  32.5968480  72.5883293  41.7857742  31.5603900  72.1290779  43.0502081
  33.7301278  71.9630623  43.5017872  34.6433425  71.9947958  42.9075384
  33.5064840  73.3604193  44.1350079  32.5445437  73.4265423  44.6433353
  34.3252754  73.4915257  44.8424625  33.6428499  74.0998507  43.3458614
  33.7974954  71.0106325  44.6595716  33.9365220  69.9945736  44.2902374
  34.7632933  71.1739731  45.1377535  32.9070926  71.1353636  45.2757931
  31.0743594  70.3771067  41.0701513  29.9758220  70.0180387  41.6049147
  31.0994315  70.6823874  39.7451735  31.9131970  71.1207867  39.3381238
  29.9861407  70.4402876  38.8092804  29.0524173  70.7362127  39.2874908
  29.9710321  71.2480211  37.5288486  30.2036476  72.3085928  37.6246667
  30.8142567  70.8041096  36.9996834  28.6159062  71.1432934  36.8081093
  28.8209438  71.5115261  35.8028889  28.3849025  70.0801134  36.7418671
  27.1552944  72.0449734  37.4549603  27.7183294  73.7170553  37.5308275
  26.9267869  74.3483067  37.9346728  28.5316658  73.8224411  38.2487965
  28.0627346  74.1153002  36.5764236  29.6581364  68.9560652  38.5096717
  28.4519339  68.5233641  38.5291862  30.7028151  68.1313467  38.3685184
  31.6136622  68.5634947  38.3076739  30.7045102  66.6753626  38.3051515
  30.1297998  66.3141775  37.4522996  32.1422410  66.1958218  38.1667829
  32.4398398  66.5689373  37.1868229  32.8284431  66.7501211  38.8070822
  32.3653102  64.6960449  38.2329059  32.2233081  63.8735104  37.1046638
  31.9130468  64.3457890  36.1842871  32.6140547  62.5322294  37.2037101
  32.5701237  61.9234324  36.3127303  33.0638766  61.9888258  38.4064317
  33.3663678  60.6808901  38.4620953  34.1189861  60.5752850  39.0486240
  33.1739163  62.8457880  39.5088410  33.5254145  62.4967957  40.4685545
  32.8008342  64.1940212  39.4425488  32.9361987  64.8069906  40.3213835
  30.0373888  66.1252022  39.5277786  29.0894341  65.2795219  39.4262004
  30.4929638  66.4964390  40.7108545  31.2330484  67.1818352  40.6597328
  30.0663376  65.9133053  41.9919968  30.1131558  64.8296261  42.0994854
  30.8186316  66.5520573  43.1490803  30.7489777  67.6376867  43.0808210
  30.4144526  66.3586044  44.1427183  32.2734499  66.1492443  43.3800459
  32.7225471  64.8677063  43.0736065  32.0489311  64.1074991  42.7065516
  34.0823221  64.5014811  43.1802130  34.4193816  63.4947395  42.9820585
  35.0321627  65.4104137  43.7379980  36.0552621  65.1108217  43.9109612
  34.4626570  66.6480827  44.1609430  35.0959063  67.4088860  44.5928955
  33.1695747  67.0436907  43.9733076  32.8095222  67.9979038  44.3286228
  28.5423470  66.1208010  42.2131586  27.9199910  65.5556965  43.1218529
  27.9502463  67.0995426  41.5557146  28.4790039  67.7530670  40.9958696
  26.4912462  67.3367262  41.6032887  26.0904408  66.9902849  42.5558805
  26.2900233  68.8136101  41.3784361  27.0628309  69.1759920  40.7005310
  25.2577591  69.0134382  41.0910368  26.5365362  69.5527172  42.6838636
  25.6167269  69.4666862  43.5531187  27.6134109  70.1594877  42.9478168
  27.7138019  70.5603027  43.8694286  28.4265876  70.1903963  42.3495770
  25.9001255  66.4438772  40.4622316  25.0907445  65.5498552  40.7537556
  26.2561131  66.6986370  39.1738486  26.7840075  67.4877930  38.8293743
  25.8638787  65.8814049  38.0381441  25.4117894  64.9466181  38.3696485
  24.8567915  66.7479086  37.3000336  24.0150905  66.8715858  37.9814625
  25.3061914  67.7178574  37.0871091  24.3892789  66.1956882  35.9315920
  23.8024497  67.0283508  35.5437613  25.2939558  66.1004877  35.3310966
  23.5706639  64.9218893  36.0252690  23.3820295  64.5963144  35.0022745
  24.1800261  64.2116594  36.5841508  22.3254418  65.2044010  36.7962575
  21.7162538  65.9549618  36.5035963  22.0597029  64.7450590  38.0093336
  22.7801228  63.8558912  38.6145639  23.6924148  63.5545683  38.3030653
  22.3817778  63.3655691  39.4026041  20.9151173  65.1149416  38.5607791
  20.4759336  65.9217787  38.1409740  20.5242205  64.7829199  39.4308734
  27.0639491  65.5639267  37.1350837  27.6682305  66.4439249  36.5204716
  27.3653269  64.2577553  37.1577382  26.9093394  63.6009216  37.7747822
  28.5389590  63.6745501  36.6079950  29.4244456  64.2597628  36.8560696
  28.7329054  62.2421694  37.2072458  29.5714164  61.7381811  36.7266273
  29.0063620  62.2738028  38.7265372  28.9198709  61.2387514  39.0571141
  30.0028038  62.5656748  39.0582204  28.3212733  62.9222679  39.2726636
  27.5906157  61.3966179  36.9431400  27.7987313  60.5173397  36.6188550
  28.5995531  63.4935284  35.0537348  29.7072983  63.4684467  34.5056987
  27.4884582  63.1587553  34.4382977  26.6922736  63.2062006  35.0579262
  27.3402166  63.0188227  32.9847479  28.1092358  62.3360157  32.6235247
  25.9658360  62.3693371  32.6270747  25.0890422  62.9031992  32.9935837
  25.8828855  62.2016859  31.5532446  25.7773328  61.1291075  33.2368016
  25.4007769  61.2792063  34.1070223  27.5259757  64.2739344  32.1318364
  26.6606617  64.8789787  31.5336037  28.8115525  64.7140741  32.1831656
  29.4768143  64.1251850  32.6635170  29.2862463  65.8923864  31.4431643
  28.5888481  66.7254639  31.5310454  30.6340265  66.2968302  32.0059228
  31.3716626  65.5442667  31.7272830  30.9684777  67.1732330  31.4508009
  30.6855869  66.6483164  33.5075426  30.5428457  65.7989454  34.1755915
  32.0220613  67.3501253  33.8547063  32.7781630  66.6411114  33.5175085
  32.0991588  68.2640409  33.2657075  32.0847678  67.6751995  34.8932123
  29.5665717  67.6511335  33.7447929  29.7662234  67.9341936  34.7782874
  29.6467376  68.4438896  33.0010152  28.5658765  67.2195482  33.7236691
  29.4460225  65.4706287  29.9727559  30.2521729  64.5919228  29.7230077
  28.8271356  65.9851503  28.9412427  27.8227663  67.0622492  28.9950156
  28.3951020  67.9898930  28.9970398  27.1651363  67.0177984  29.8631430
  27.1228957  66.9996881  27.7040243  27.4905181  67.6861858  26.9413495
  26.0714746  67.2551394  27.8357649  27.3137259  65.5724430  27.1779847
  27.2747278  65.4555941  26.0949683  26.5676260  64.9030733  27.6062083
  28.6991096  65.2204752  27.6522398  28.7334418  64.1569710  27.8886271
  29.8229480  65.6082010  26.6782212  29.6633410  65.8409119  25.4632950
  31.0705161  65.6595516  27.1703529  31.1628294  65.4058266  28.1435943
  32.3423648  65.7504272  26.4535093  32.1186566  65.4613924  25.4266143
  32.7771568  67.1741629  26.5299773  33.7813950  67.3312187  26.1363554
  32.1072412  67.8426552  25.9892035  32.8570628  67.7406979  27.9202676
  33.7473512  67.3711300  28.8825607  34.5040441  66.6037369  28.8124061
  33.5854173  68.0640078  30.0748229  34.0951991  67.9057693  30.9322500
  32.5987482  69.0416336  29.8523498  32.0126653  69.9615908  30.7051516
  32.3107409  70.0729513  31.7372155  31.0118198  70.8233690  30.2133560
  30.3977656  71.4454079  30.8477116  30.5539203  70.6844521  28.9076924
  29.7793317  71.3389444  28.5361362  31.0808468  69.6441460  28.1014824
  30.7317901  69.6271896  27.0795870  32.1373773  68.8271284  28.4923053
  33.3118296  64.7512484  27.0510364  34.5435548  64.8216486  26.8928742
  32.7900934  63.7846041  27.7997780  31.7925811  63.8612843  27.9383373
  33.6512661  62.7403307  28.3829093  34.5543075  63.2781506  28.6716413
  32.9574132  62.2404671  29.6192908  33.6461902  61.5676069  30.1301193
  32.8295183  63.1400347  30.2213883  31.5951657  61.4919662  29.3992639
  30.9488821  61.9471788  28.6487985  31.8785286  60.4974508  29.0546656
  30.7268190  61.3464785  30.6578875  31.0357380  61.7804050  31.7856956
  29.5078444  60.8449125  30.5984592  28.9058423  60.7996130  31.4081788
  29.1701150  60.4724169  29.7225118  34.0885162  61.6754627  27.4029684
  34.9697852  60.8083773  27.6698017  33.3913279  61.5409279  26.2468719
  32.5426579  62.0870638  26.2069511  33.6335468  60.4492950  25.2407646
  34.6752810  60.1386738  25.1607347  33.2050705  59.4818020  25.5024147
  33.2695222  60.8351898  23.7525988  32.6761198  60.0018263  23.0732822
  33.6373377  62.0679426  23.4007621  34.2449450  62.5652027  24.0360999
  33.4669876  62.5320387  21.9787884  32.4646688  62.2614765  21.6467428
  33.6863708  64.0372515  21.9792461  34.6644688  64.2365885  22.4170709
  33.6866403  64.2756271  20.9156299  32.5911832  64.8580742  22.6644611
  32.3564792  64.4223452  23.6356211  33.1984472  66.2488317  22.9034901
  32.4156165  66.8902779  23.3082342  34.0119743  66.1382675  23.6204624
  33.5479641  66.7656279  22.0097017  31.3157868  64.9483490  21.8457913
  31.4975929  65.5617714  20.9633160  30.8986568  63.9850330  21.5523314
  30.5289960  65.3710365  22.4706101  34.4213986  61.7479706  21.0365009
  35.6429005  61.8380690  21.2239027  33.8529944  61.1151552  19.9787533
  32.8478599  61.1398745  19.8828328  34.5606208  60.3052616  18.9501882
  35.1972461  59.5247936  19.3669391  33.5846162  59.4950390  18.1528544
  32.8364921  60.1613235  17.7233338  34.1237569  58.9677477  17.3658395
  32.8991055  58.4019279  19.0274739  33.6324525  57.8566551  19.6215892
  32.3278189  58.9484882  19.7778094  31.9406605  57.6575327  18.1384683
  31.0778379  58.2884932  17.9250956  32.3411942  57.3336744  17.1778488
  31.3665032  56.3795662  18.8254964  32.2249413  55.7883692  19.1443563
  30.7816911  56.6661119  19.6995592  30.5988169  55.5448008  17.8943348
  31.2557554  55.2357149  17.1921980  30.1526785  54.8144865  18.4307110
  29.8327684  56.0681152  17.4950731  35.2716756  61.2192059  17.9595280
  34.6637774  62.1151066  17.4365759  36.5549564  60.9118176  17.6807821
  37.0464420  60.1920128  18.1910956  37.3665094  61.9172239  16.9246161
  36.7764544  62.2963333  16.0902214  37.7598691  63.0465555  17.8269708
  36.9123197  63.5533667  18.2884002  38.3412457  62.6327181  18.6508882
  38.4228539  63.8111639  17.4220884  38.6454582  61.1785698  16.4816689
  39.2813945  60.4033899  17.1923792  38.9873481  61.4709187  15.2839458
  38.5633183  62.2975206  14.8876846  39.8731160  60.7374287  14.4658160
  39.5348907  59.7070026  14.5750356  39.7346973  61.1630249  12.9585814
  39.8255491  60.3371143  12.2530866  38.7453318  61.5923929  12.8007782
  40.5313778  61.8579054  12.6929820  41.2867117  60.7749557  14.9738061
  41.9587946  59.7331524  15.0427914  41.7797136  61.9297361  15.4909408
  41.3445807  62.8217745  15.3038037  43.1607914  62.1640921  15.9507453
  43.6055517  61.2130547  16.2436807  43.9690542  62.9659510  14.9657881
  45.0044298  63.1146383  15.2723646  43.9798737  62.3506212  13.5830486
  42.9879522  62.4065351  13.1346405  44.7624683  62.7951479  12.9681933
  44.1534185  61.2745905  13.5946441  43.4342146  64.2762470  14.7149968
  44.0185738  64.7631598  14.1292989  43.1255960  62.9259253  17.3152268
  42.0477438  63.4548664  17.6593733  44.2875147  63.0638885  18.0000639
  45.0503254  62.5845289  17.5435174  44.4441080  63.7081003  19.3297648
  43.6991978  63.2346725  19.9693537  45.8326244  63.4651661  19.9483538
  46.6566277  63.7954521  19.3158734  45.9067869  64.0125179  20.8880401
  45.9942055  61.9240952  20.1716590  45.0622034  61.4897442  20.5333352
  46.0642576  61.4239645  19.2057049  47.2591305  61.6326237  21.0714316
  47.3116446  60.5445814  21.1103106  48.1765127  61.9923878  20.6055140
  47.1794844  62.1400213  22.5641084  46.9958019  63.2126045  22.5014281
  46.3188314  61.7554903  23.1113935  48.4023905  61.8933535  23.3321190
  48.6118603  62.5448418  24.0749454  48.3367729  61.1481667  24.0107107
  49.2398024  61.8037224  22.7746177  44.0798664  65.1542997  19.1125393
  43.1691933  65.5813837  19.8662186  44.7743177  65.8976603  18.2146752
  45.5684376  65.4247427  17.8074646  44.6696615  67.3536015  18.0873108
  44.8274660  67.8003073  19.0689695  45.5568886  67.9731512  17.0413876
  45.3899431  67.5568962  16.0479283  45.4052114  69.0523148  17.0637548
  47.0171738  67.8158283  17.4596727  47.1032238  68.2120705  18.4714484
  47.2239447  66.7626762  17.2693610  47.9300690  68.6957884  16.6296816
  47.5771093  68.8555479  15.6108606  47.9432678  69.6561670  17.1450388
  49.3058634  68.0386448  16.6290581  49.5513391  67.7448320  17.6496065
  49.2885256  67.1850443  15.9514439  50.3829002  68.9377213  16.2376440
  50.2216291  69.2266035  15.2833724  50.4133606  69.7807789  16.7930019
  51.2609673  68.4584427  16.3768899  43.1988764  67.7190113  17.7912295
  42.6790380  68.7035084  18.3368707  42.4736309  66.9029331  17.0285487
  42.8744221  66.0580778  16.6468561  41.0357046  67.0352411  16.6847634
  40.8922863  68.0271530  16.2562299  40.6720924  66.0781431  15.6090760
  41.3637018  66.1875153  14.7737229  40.8354616  65.1313543  16.1238587
  39.2807531  66.2255049  15.2112734  38.7840748  66.0577154  16.1669195
  39.0606236  67.2430229  14.8883188  38.7591100  65.1174498  14.2120910
  38.3206749  64.0808105  14.6692264  38.8929725  65.4003811  12.9707015
  38.4646916  64.7829390  12.2958314  39.2066622  66.2825871  12.5920117
  40.1987982  66.9410706  17.9663014  39.3582439  67.7787304  18.2182145
  40.4018974  65.8843136  18.8135791  41.0087061  65.1387119  18.5037994
  39.6034622  65.5957651  19.9470043  38.5778308  65.5157328  19.5867562
  40.0544691  64.2204189  20.5747867  40.1978588  63.5590696  19.7202945
  41.0087729  64.2284203  21.1014152  39.0419364  63.6275578  21.5152931
  38.9753985  64.1863680  22.4487829  38.0803204  63.7727547  21.0230422
  39.3002081  62.1856403  21.7528534  39.2803121  61.6154146  20.8241200
  40.2212954  62.1523714  22.3347402  38.1810641  61.6053486  22.6107264
  38.3777618  61.9656992  23.6204576  37.2536492  62.1342564  22.3910594
  38.1432939  60.1632023  22.5948501  37.3609018  59.9379539  21.9971561
  38.9153552  59.7462225  22.0946980  38.0704999  59.7716284  23.5230064
  39.5060349  66.7272329  20.9175801  38.3647227  67.0014381  21.4090514
  40.6721878  67.3616552  21.1593461  41.4744854  66.8611574  20.8045030
  40.9033537  68.6731148  21.8153310  40.4603672  68.5103607  22.7978683
  42.4152327  68.9888334  21.8081856  42.8486300  68.9246035  20.8101177
  42.4499512  70.0225925  22.1520448  43.2025814  68.2583570  22.9165387
  42.8258181  68.3536863  24.2686081  41.8957615  68.8275528  24.5458150
  43.7282228  67.8335428  25.2207661  43.5669231  67.9030609  26.2863874
  44.8597670  67.1016741  24.8255277  45.6477976  66.5519190  25.7737112
  46.5508461  66.3938618  25.4888821  45.0085640  66.7630529  23.4614325
  45.7974720  66.1072063  23.1239390  44.2459822  67.3925972  22.5034308
  44.4926262  67.2895479  21.4570332  40.0434017  69.8572016  21.1923122
  39.2998433  70.5303526  21.9528437  39.9198794  69.9343300  19.8548186
  40.3398609  69.2275238  19.2681813  39.0243459  70.8523464  19.2612600
  39.2424703  71.8659973  19.5974731  39.1064405  70.8720446  17.7109206
  38.8546085  69.9363756  17.2117138  38.3263350  71.5774918  17.4247551
  40.4407549  71.5324545  17.1730888  40.5059004  72.5350809  17.5956953
  41.3254642  70.9294271  17.3774195  40.4458570  71.6334009  15.6735432
  39.6161270  72.4153042  15.1805639  41.2940311  70.9918261  14.9600506
  37.5053763  70.5348682  19.5294821  36.7461991  71.4261150  19.7241378
  37.1479273  69.2506313  19.5761502  37.8155017  68.5306597  19.3393242
  35.7879019  68.9415741  19.9044192  35.1084328  69.6612740  19.4478524
  35.5765462  67.4797916  19.5372379  36.2341785  66.8891907  20.1750612
  34.5395803  67.2107792  19.7383153  35.7843161  67.2107410  18.0262363
  36.8514156  67.3726940  17.8740263  35.5880618  66.1715364  17.7623379
  35.0803828  68.1051874  17.0544600  35.1974988  69.1662884  17.2745717
  35.5581045  68.0894899  16.0748446  33.5963225  67.8042507  16.9238091
  33.5486722  66.7404842  16.6909146  33.1672955  67.9642296  17.9129720
  32.8042841  68.6287355  16.0098135  33.2929182  68.7958002  15.1418114
  31.9386053  68.1217146  15.8930588  32.6611590  69.5519447  16.3936019
  35.3896856  69.0932274  21.3707948  34.2200065  69.4515228  21.6533232
  36.2750959  68.8411093  22.3398924  37.1573091  68.4105968  22.1022844
  35.9916997  69.0668297  23.7331605  34.9822903  68.7695789  24.0174794
  36.9435596  68.2833290  24.6712828  37.9631257  68.6126900  24.4709897
  36.6548824  68.5985708  26.1345792  37.1808982  67.9287624  26.8148518
  36.9681168  69.6064806  26.4067888  35.6003237  68.4715223  26.3792634
  36.9384336  66.7165375  24.6180701  36.3035631  66.2805605  25.3894091
  36.4604974  66.3758659  23.6995816  38.3684134  66.1054468  24.7319984
  38.8357449  66.4398289  25.6582212  38.1873226  65.0308561  24.7557259
  39.0179133  66.3460636  23.8903594  35.9325838  70.5483294  24.1087055
  35.0434566  70.9213018  24.9031067  36.7332220  71.4108562  23.4731817
  37.3774076  71.1641502  22.7354383  36.6384077  72.9077530  23.6053681
  36.5303588  73.1329346  24.6663690  37.9393530  73.5510826  23.0830097
  37.8122258  74.6055508  23.3280277  38.7317133  73.2799387  23.7806845
  38.1863832  73.1479120  21.7819691  38.8125205  72.4289751  21.8945694
  35.3573632  73.4275723  22.9102802  34.5711207  74.1159201  23.6117101
  35.0079536  73.0092096  21.6803408  35.6433797  72.4268961  21.1537981
  33.7698746  73.2745409  21.0149717  33.5832858  74.2953587  20.6814790
  33.6328101  72.4294281  19.6853685  34.4424057  72.6931381  19.0048444
  33.7642407  71.3751554  19.9289548  32.3515511  72.6211786  18.8119221
  31.4499664  72.6195383  19.4244957  32.4525857  73.6111403  18.3670962
  32.1800160  71.4629078  17.8054643  31.5639544  70.4493713  18.1831110
  32.8888679  71.4521122  16.7385745  32.5998020  72.9587030  21.9261098
  31.8385220  73.8348055  22.2598267  32.5347185  71.6949272  22.4457216
  33.2557702  71.0307598  22.2026920  31.4212465  71.2452078  23.3222842
  30.5346155  71.3282013  22.6937175  31.6587472  69.7420645  23.5823870
  31.9838953  69.1972208  22.6960874  32.4187374  69.6303415  24.3557119
  30.4884505  69.0526485  24.1279817  30.7565880  68.0274582  24.3833113
  30.1556015  69.5421886  25.0432158  29.3152928  68.9959764  23.1081796
  28.8693500  69.9884892  23.1726003  29.5281529  68.8103104  22.0554137
  28.2855940  67.9262829  23.5574841  28.6154318  66.9654989  23.1622648
  28.2979345  67.7695656  24.6360874  26.8788433  68.0780554  23.1201673
  26.3975930  68.8531446  23.5534477  26.8203282  68.2421780  22.1253109
  26.3198495  67.2844744  23.3991981  31.2723351  71.9979191  24.6692729
  30.2190971  72.4231672  25.1259947  32.4501252  72.1931458  25.3507733
  33.2830548  71.7919683  24.9440980  32.4572778  73.0847263  26.5486217
  31.9014621  72.5842476  27.3415208  33.8717890  73.1112385  27.2355747
  34.6209598  73.3598137  26.4838767  33.9036298  73.9215803  27.9638791
  34.2120886  71.8025017  27.9458070  33.4361982  71.4847517  28.6423206
  34.2609119  71.0054493  27.2039008  35.4702592  71.9598103  28.7495017
  36.3251281  72.3430014  28.1923056  35.3043628  72.7060461  29.5264959
  35.7823277  70.6056118  29.3383789  35.3300333  70.5918074  30.3300142
  35.4312325  69.8065948  28.6853862  37.2409844  70.3592110  29.4192576
  37.8485107  71.1089087  29.7175312  37.3609471  69.5993567  30.0737262
  37.4619508  70.0888348  28.4715390  31.9567561  74.5710468  26.4138126
  31.0259676  74.9211407  27.0902658  32.4749660  75.2494287  25.4129529
  33.1500673  74.7409725  24.8599458  32.2013736  76.6163635  25.0259709
  32.3228621  77.2683716  25.8909726  33.1178975  77.1468401  23.9322114
  34.1162062  76.7122173  23.9830637  32.7466035  77.0051241  22.9172444
  33.4545803  78.6494637  24.2178893  32.4782205  79.1205978  24.3312812
  33.9922953  78.7879133  25.1558638  34.2019367  79.5961714  22.9190111
  35.9398961  78.9715242  23.0661654  36.4790010  79.2897463  22.1738648
  36.3589978  79.2959118  24.0186524  35.8748698  77.8834820  23.0601859
  30.7191777  76.7781782  24.6659493  30.0525784  77.7923965  24.8621988
  30.0946712  75.6934261  24.1893578  30.5759335  74.8103523  24.0962410
  28.6911488  75.6442833  23.6185765  28.3691216  76.6824007  23.5366035
  28.6858463  75.0324917  22.2226858  27.6549220  75.0438452  21.8688941
  29.3595815  75.5889034  21.5710807  29.2338443  73.6634588  22.3493934
  30.1847100  73.7941265  22.3298860  27.6204729  74.9276257  24.5367980
  26.4841223  74.7193193  24.1337466  27.9732251  74.7828722  25.8208299
  28.8699841  75.0637293  26.1910248  27.1119499  74.1114950  26.8622279
  26.0832095  74.0655661  26.5048981  27.5780058  72.7526522  27.3179007
  28.5050678  72.8993225  27.8721070  26.5171933  72.0657635  28.1974387
  26.3113046  72.6379061  29.1020703  25.4959345  72.0259142  27.8185606
  26.9009566  71.1004353  28.5275483  27.7912068  71.8922281  26.2404203
  28.5130405  72.3329782  25.7862210  27.0981312  75.0728893  28.0563712
  28.0922627  75.1727533  28.7557077  25.8840156  75.6669521  28.3883667
  24.6425247  75.7761431  27.5327802  24.3640065  74.8352766  27.0581269
  24.8629332  76.4646912  26.7170429  23.5593677  76.3141346  28.4307265
  23.1604362  75.4595995  28.9772844  22.7210546  76.8380642  27.9715681
  24.3935609  77.1769667  29.4328237  23.9067554  77.2972822  30.4006290
  24.6110392  78.1356001  28.9618444  25.7513189  76.4542198  29.5928621
  26.4683557  77.2751474  29.5999479  25.7203817  75.5570173  30.8105206
  24.9261045  74.6291876  30.9557343  26.6290712  75.7952929  31.7178559
  27.0953846  76.6882086  31.6447067  26.7550397  75.0312757  32.9870152
  26.7562056  73.9614534  32.7782679  28.1385589  75.3034019  33.5984707
  28.2400370  74.6000528  34.4249797  29.2414331  74.9219894  32.6073837
  30.2400756  74.9861574  33.0394673  29.1710210  73.8766623  32.3066664
  29.2661476  75.5585432  31.7229128  28.4171987  76.7727804  34.1615629
  28.2045770  77.5883865  33.4704185  27.9631710  76.9376135  35.1386976
  29.4628453  76.9605827  34.4054198  25.6146574  75.2486086  33.9841700
  25.2189660  74.3237686  34.7431183  24.9390817  76.3812304  33.8857508
  25.3270674  77.1497154  33.3575487  23.6353183  76.6865063  34.5076966
  23.8109660  76.7793703  35.5794334  22.9913163  77.9919672  33.9468622
  22.7858973  77.8821421  32.8820419  22.0405912  78.0704117  34.4741821
  23.8054204  79.2780876  34.2427444  23.1114769  80.1170826  34.2939520
  24.2644858  79.2076302  35.2288485  24.8526216  79.6900845  33.2067108
  25.0585127  80.9087086  32.9945087  25.6462049  78.8283491  32.7792501
  22.5847936  75.5531311  34.3379903  21.7644835  75.2585030  35.1922369
  22.5165153  74.9961901  33.1013870  23.2815289  75.2536440  32.4942851
  21.4815354  73.9145517  32.7891493  20.5701971  74.2759562  33.2655525
  21.2284708  73.7275219  31.2807178  22.2065926  73.4828186  30.8665895
  20.3829098  72.5556469  30.8265781  20.3828740  72.4304056  29.7437954
  20.7886839  71.6294336  31.2334919  19.3681049  72.7304125  31.1839676
  20.5882335  75.0439453  30.7027602  19.6305478  75.1463509  31.2131000
  21.3254642  75.8385706  30.8174729  20.2762866  74.9764872  29.6605325
  21.8892789  72.5801229  33.5015440  21.0315681  71.9251442  34.1190529
  23.1278563  72.2333145  33.4925818  23.8434386  72.7469254  32.9983711
  23.6525226  71.0359573  34.1524243  23.1078768  70.1304865  33.8848662
  25.1019096  70.7666588  33.8460994  25.6925678  71.6808414  33.7869644
  25.6237411  70.2661705  34.6617579  25.3538728  69.8806858  32.5550056
  24.3191814  69.6081686  32.3470426  25.9585190  70.6870127  31.4172697
  26.9940400  70.8985806  31.6838002  25.9677744  70.0985193  30.4998302
  25.4303455  71.6307402  31.2812161  26.0846996  68.6244869  33.1161475
  25.4237008  67.9507399  33.6613488  26.3449097  68.0466890  32.2292709
  26.9599843  68.9461040  33.6805439  23.4752989  71.1688137  35.7036614
  23.2508945  70.1170540  36.3334846  23.5665202  72.3735571  36.2471199
  23.7891817  73.1477737  35.6379342  23.3005834  72.5949192  37.6465106
  23.7981510  71.7909765  38.1889176  23.9400887  73.9357185  37.9290557
  24.8812246  73.8341331  37.3886466  23.3645082  74.7490978  37.4872136
  24.2089343  74.0892220  39.6698666  22.8875971  74.1800356  39.8451281
  21.8009567  72.5815105  38.1731939  21.4797711  72.7453327  39.3388844
  20.8734965  72.1623039  37.2805953  21.1696744  71.9227219  36.3451910
  19.4422662  72.0456648  37.5935149  19.2551768  73.0065489  38.0728984
  18.4981680  71.9040155  36.3733435  18.8326490  71.0683584  35.7586122
  17.4792337  71.6668129  36.6792989  18.3344388  73.2620144  35.5532336
  17.8245211  73.9535570  36.2239408  19.3078589  73.6890507  35.3120017
  17.5880504  72.9812193  34.2299294  17.7044368  73.8054037  33.5261703
  18.2039750  72.1914196  33.7998652  16.1458218  72.5394773  34.4811559
  16.0844684  71.6554117  35.1157904  15.7024550  73.3852291  35.0067353
  15.4104900  72.2245550  33.2505584  16.0820222  71.9078875  32.5658202
  14.6367323  71.5990686  33.4242392  15.1173556  73.1362867  32.9297495
  19.1746044  70.8895731  38.5921073  19.7484624  69.8050117  38.5352373
  18.2097471  71.1832762  39.5155501  17.6641262  72.0227861  39.3827987
  17.8548253  70.4075241  40.6920671  16.8702400  70.6365395  41.0997963
  17.8364682  69.3409681  40.4679346  18.8832450  70.6399059  41.8349981
  18.8751698  69.8261070  42.7663660  19.8431754  71.5874290  41.7110872
  19.8748231  72.1909904  40.9018803  20.8157825  71.9114971  42.7790308
  20.4283047  71.4615679  43.6931038  22.1343923  71.2839937  42.4525547
  22.4573755  71.7805672  41.5375662  22.8342390  71.4952278  43.2610703
  22.1314812  69.8101664  42.1438026  22.0955729  68.8381958  43.1851625
  22.1736360  69.1214037  44.2244434  22.0460844  67.4624205  42.9071665
  21.9185805  66.7702579  43.7263441  22.1561217  67.1132803  41.5508842
  22.1785736  66.0682869  41.2790728  22.2634649  68.0003262  40.4885006
  22.2115135  67.6107359  39.4825602  22.2645688  69.3870306  40.7964754
  22.4008226  70.1350451  40.0294638  20.8729529  73.4229469  43.0143356
  20.4563141  74.2800236  42.1654415  21.5131521  73.8779354  44.1042852
  21.7381597  73.0925798  45.2902460  22.6861072  72.5704288  45.1604080
  20.9092641  72.4374008  45.5581570  21.9759417  74.1419077  46.3973379
  22.8002882  73.7679434  47.0045471  21.0959005  74.4809675  46.9438410
  22.4952126  75.3547907  45.6833982  23.5731292  75.2709246  45.5449724
  22.2537708  76.3270426  46.1129665  21.7766738  75.2699375  44.3479204
  20.8376598  75.8002615  44.5063877  22.5100040  76.0263252  43.2402229
  23.4894514  75.5661917  42.6755905  22.2058249  77.3203897  43.0277300
  21.4341664  77.7006578  43.5569191  22.7326941  78.1096315  41.9107294
  22.4475193  77.5834942  40.9997082  22.0864630  79.4919634  41.8902636
  22.6890588  80.2072239  41.3304615  21.0780478  79.3948793  41.4880514
  22.0582581  79.8401213  42.9227781  24.2546415  78.3995771  41.9794750
  24.8741770  78.2316160  40.9136820  24.8421597  78.6671209  43.1345844
  24.1724706  78.7203264  43.8887596  26.2234640  78.9897251  43.5072994
  26.3641119  80.0100040  43.1504440  26.5287137  78.8883591  45.0590611
  25.9815001  78.0209160  45.4281235  27.5882792  78.6392641  45.1171398
  26.2413764  80.0288486  45.8987236  26.8091822  79.9519920  46.8259716
  26.7054605  80.8741474  45.3905869  24.7662187  80.2286816  46.2044621
  24.1374302  80.6939125  45.1857567  24.2419529  80.0173187  47.3428774
  27.2978330  78.1764364  42.7166271  28.2422042  78.7746143  42.3249054
  27.2362137  76.8588591  42.4293232  26.4653063  76.2922287  42.7529430
  28.2551479  76.0695839  41.6201925  29.2396784  76.2224054  42.0622873
  27.9128504  74.5989132  41.7172050  26.9678664  74.3518591  41.2333918
  28.7420607  74.0923357  41.2233496  27.8179669  74.0883780  43.1361532
  26.5456390  74.0079212  43.7968111  25.6624508  74.3363285  43.2690430
  26.3946629  73.4893990  45.0665379  25.4144168  73.5681391  45.5129862
  27.5096893  73.0145884  45.7281637  27.4750614  72.6070213  46.7277098
  28.7931395  73.1390905  45.1033354  29.6820998  72.7541447  45.5807972
  28.9640069  73.6253929  43.7547016  29.9259162  73.7628984  43.2832956
  28.3202386  76.3683796  40.0849819  29.3577147  76.2819576  39.4771457
  27.1958351  76.8096733  39.5691061  26.3993025  76.9197416  40.1802731
  27.1034813  77.4328899  38.2756591  27.6425934  76.9340611  37.4702859
  25.6634831  77.4535561  37.7495193  25.6620789  77.7700186  36.7064667
  25.1533365  76.4963245  37.8570318  25.0725102  78.0428791  38.4506249
  27.6587605  78.8579798  38.2092714  28.2495809  79.2105770  37.1331787
  27.5339794  79.6660042  39.2338896  26.9092798  79.4136953  39.9863458
  28.2261491  81.0136509  39.3741202  28.0960059  81.6640282  38.5091472
  27.5588679  81.7372417  40.5027676  26.5033054  81.8140888  40.2420330
  27.5071096  81.0977268  41.3839245  28.1040883  83.1716442  40.8769464
  27.3725891  83.4983826  41.6160345  29.0487075  83.0188942  41.3989258
  28.3515716  84.3655396  39.5605302  26.7122102  85.1348686  39.5367908
  25.9781122  84.3297482  39.5681024  26.3920093  85.7193470  40.3993177
  26.6866446  85.7290173  38.6233187  29.8005462  80.9344959  39.6375155
  30.4902411  81.7988300  39.0910578  30.2890253  79.9808741  40.4095507
  29.5871091  79.5395756  40.9863281  31.6342044  79.6391344  40.6400824
  32.1548462  80.4120159  41.2054920  31.6314340  78.2932377  41.4574051
  31.2164044  78.4569788  42.4519062  30.9630489  77.5532246  41.0172367
  32.9871225  77.8367186  41.7235041  33.7132907  77.0364285  40.7724524
  33.3082771  76.5058422  39.9234271  35.1187038  76.9269419  40.8630943
  35.6313014  76.3891268  40.0792503  35.8278465  77.3905087  42.0349312
  37.1837974  77.1906042  42.0832157  37.3951101  76.7403936  41.2620831
  35.1081777  77.9903603  43.0959129  35.6272101  78.2507801  44.0065145
  33.7123299  78.2234621  42.9195833  33.1366229  78.6859560  43.7076616
  32.4238634  79.4764423  39.2722130  33.4353566  80.0582886  38.9688277
  31.8569636  78.6724901  38.3208847  30.9726548  78.2622623  38.5851073
  32.3708153  78.5656214  36.9333768  33.4417295  78.3682346  36.9811869
  31.7142653  77.4138880  36.1673617  30.6813717  77.3455811  36.5087795
  31.5653682  77.6372147  35.1109266  32.4030542  76.1063433  36.3736486
  32.4453497  75.9565020  37.4524713  31.6551256  74.9493933  35.7215166
  30.6201363  74.9809456  36.0619593  31.7259741  75.0754642  34.6411490
  32.0971942  74.0244246  36.0918069  33.8278818  76.0190773  35.7424092
  33.7277269  76.2916899  34.6918082  34.5546126  76.6826057  36.2111187
  34.3241715  75.0500202  35.6902337  32.2422791  79.9380493  36.1680746
  33.2180262  80.2818584  35.5417275  31.1122942  80.6005383  36.2437296
  30.3479886  80.2888775  36.8257952  31.0292721  81.8929958  35.5745769
  31.2744141  81.7711067  34.5195198  29.6268463  82.3677921  35.7886481
  29.1380715  82.0127201  36.6959071  29.6532512  83.4571552  35.8151460
  28.6719990  82.0910454  34.6957159  28.7805271  82.6528835  33.6411858
  27.5774884  81.3188457  34.8501801  27.0033574  81.3261032  34.0192652
  27.5066781  80.6553936  35.6084132  32.1348286  82.8579426  36.0635328
  32.7799869  83.5615253  35.2534604  32.2915006  82.9470062  37.3638582
  31.6318464  82.4135685  37.9119444  33.3535314  83.7933636  37.9624963
  33.1590176  84.8316669  37.6938415  33.2872581  83.6965942  39.5640826
  32.3325586  84.1513920  39.8282957  33.4058619  82.6832962  39.9478149
  34.3758798  84.4468307  40.2641153  34.3333125  85.8558559  40.4622459
  33.4319639  86.3043118  40.0712729  35.2562857  86.4472389  41.3122129
  35.1222706  87.4705219  41.6305256  36.4202929  85.7394886  41.7577362
  37.3942256  86.4026737  42.4412632  37.3174071  87.3278236  42.1967411
  36.4938569  84.3354225  41.5091753  37.3055577  83.7651730  41.9362116
  35.5384564  83.7249279  40.7325506  35.5148554  82.6674461  40.5144310
  34.7555995  83.5005188  37.5196099  35.4105854  84.3447781  36.9576335
  35.1299214  82.2218037  37.5684261  34.5877528  81.5447807  38.0859232
  36.4262104  81.7752552  37.0478153  37.2411370  82.3331833  37.5090241
  36.6575122  80.3117657  37.5365281  36.0209417  79.6744871  36.9227290
  37.6802588  79.9993134  37.3256636  36.4170218  80.3585339  39.3515038
  35.1898193  79.8328686  39.3011165  36.5909958  81.9543934  35.5254984
  37.7883101  82.1296692  35.1674032  35.5021000  81.8245888  34.7417712
  34.6657348  81.3836575  35.0969887  35.5946946  82.0549107  33.3064198
  36.3160110  81.4278126  32.7824450  34.2159319  81.7850685  32.7052665
  34.0347242  80.7405186  32.9586387  33.4619904  82.5177956  32.9929709
  34.2287183  81.8636990  31.1774063  33.9804959  82.8634453  30.8210421
  35.2042985  81.6168022  30.7586169  33.1608629  80.9146500  30.5416822
  32.1609259  81.2578106  30.8071446  33.2069612  81.1029530  29.4690609
  33.2108498  79.4677162  30.7932091  32.3058653  79.0910244  31.0365319
  34.2606115  78.6769629  30.9031391  35.5065227  78.9722633  30.5104995
  35.6894970  79.8251534  30.0013804  36.2431574  78.3611059  30.8329272
  34.2311263  77.5999260  31.6101074  33.3945847  77.1987820  32.0093369
  35.0578141  77.0501232  31.7956209  35.8896351  83.4910107  33.0454850
  36.5199590  83.7861633  32.0204020  35.4970980  84.3305588  33.9781713
  34.9091792  83.9367104  34.6988201  35.7240963  85.8047104  33.9278746
  35.7419586  86.0629463  32.8690553  34.8543930  86.2963581  34.3637657
  37.0484424  86.3623333  34.4503760  37.4347806  87.4515247  33.9996338
  37.7318621  85.6449223  35.3335905  37.3902726  84.7691345  35.7029510
  39.0893006  85.9773922  35.7719564  39.1754723  86.8213749  36.4563346
  39.5365524  84.8326874  36.6912913  39.2906833  83.8609791  36.2629938
  40.6241751  84.8822117  36.6390848  39.0082192  84.7734451  38.1243944
  37.9205847  84.7774410  38.0527306  39.3369460  83.5470676  38.8350844
  38.7145901  83.3801556  39.7142386  39.3249416  82.7114391  38.1353140
  40.3882027  83.5547447  39.1230083  39.3526936  86.0106945  38.9368296
  40.4199696  86.2106800  38.8418055  38.9306211  86.8900871  38.4503937
  39.0277743  86.0503387  39.9765182  40.1187134  86.0121155  34.5800376
  40.2767324  84.9866867  33.9366698  40.8236742  87.1697330  34.5799255
  40.5952787  87.8768253  35.2639937  41.9568729  87.6015377  33.6811328
  41.6165066  87.6098156  32.6456690  42.2911596  89.0968609  33.9563298
  41.4531422  89.7336292  34.2397857  43.0021620  89.1324329  34.7817445
  42.8616619  89.7586060  32.6928711  43.9131927  89.4897366  32.5924516
  42.3439789  89.3203259  31.8396330  42.6168346  91.2685680  32.8212452
  41.5355921  91.3973141  32.7718210  42.8118086  91.7271519  33.7906671
  43.1622076  91.9302940  31.6190934  42.7551174  91.7391682  30.7147408
  44.2211914  92.6317406  31.5606689  45.1499653  92.5805569  32.4648786
  45.2081156  91.9539356  33.2548547  45.8616590  93.2965374  32.4337578
  44.3335247  93.4588528  30.5383325  43.5603714  93.6152840  29.9075699
  45.1741743  94.0052032  30.4162645  43.1538963  86.7185974  33.8036489
  43.2375908  85.8042526  34.6519113  44.1183662  86.8399048  32.8443122
  44.0381575  87.5240326  32.1056414  45.3588963  86.0216427  32.8421044
  44.9784851  85.0006676  32.8104806  46.1062956  86.3644505  31.5942192
  45.4784775  86.0883045  30.7470560  46.1220551  87.4543285  31.5889072
  47.4597740  85.7546425  31.4539886  47.5348091  84.3376255  31.4717221
  46.6364908  83.8099480  31.7563057  48.7873602  83.7033653  31.2811160
  48.8428307  82.6248741  31.2677574  49.9285507  84.4845200  31.0152316
  50.9315157  84.0849018  30.9874749  49.8125982  85.9094620  31.0496664
  50.7058859  86.4889050  30.8688760  48.6112738  86.5418339  31.3652158
  48.4866142  87.6096439  31.4684677  46.2211943  86.0736370  34.0572929
  46.7789316  85.0487328  34.5094156  46.4159489  87.2381496  34.6181655
  46.0525560  88.0616856  34.1600895  47.3491621  87.4709797  35.6942630
  48.0372524  86.6293144  35.6153107  48.2245398  88.6730957  35.4947424
  48.9935255  88.5781956  36.2613940  48.6849785  88.5764790  34.5115042
  47.5725031  90.0836754  35.6512570  47.3278379  90.0569439  36.7131066
  48.2807779  90.8866692  35.4471660  46.2912226  90.3744793  34.8188496
  45.4367971  91.1545467  35.3093410  46.1542702  89.9284554  33.6465263
  46.6418171  87.3073959  37.0268393  47.3672915  87.0438766  37.9413843
  45.3229809  87.5284004  37.0556831  44.9494457  87.4884701  36.1181474
  44.5361614  87.8668213  38.2185817  44.8969460  88.7612438  38.7264776
  43.1402540  88.2320690  37.6340675  43.3559084  88.8988590  36.7992091
  42.6925993  87.3574924  37.1620274  42.1607113  88.7446690  38.6756492
  41.7522669  87.9079723  39.2424083  42.6766443  89.3292427  39.4373560
  41.0020018  89.5580006  38.0204892  40.3796101  90.3708553  38.7202573
  40.7128668  89.3353558  36.8208742  44.4185781  86.8609619  39.3570566
  44.4212294  85.6414986  39.1686869  44.3376970  87.4226665  40.5416441
  44.3397951  88.4196854  40.7030344  44.0399122  86.6506672  41.7287827
  44.7524929  85.8311939  41.8226051  44.6724892  87.4439716  42.9118967
  44.1992664  88.4145641  43.0605745  44.5743370  86.8611431  43.8277483
  45.7098198  87.7347851  42.7461529  42.5129128  86.3404751  42.0560741
  41.7441607  87.2746468  42.1836710  42.1268082  85.0796795  42.1303320
  42.6991463  83.8806629  41.5067244  43.4862137  83.5334015  42.1760702
  42.9113340  84.0158844  40.4461575  41.7077637  82.7621078  41.6726303
  42.1218538  81.7647743  41.8207598  41.0400534  82.6468277  40.8188295
  40.8421564  83.2133293  42.8235722  41.2654781  82.9668236  43.7972927
  39.8101044  82.8626823  42.8193617  40.7898045  84.7157860  42.7350140
  39.9832273  84.9786949  42.0506048  40.7191944  85.4305840  44.1635656
  41.6040611  85.3044605  44.9957561  39.5170021  85.8850861  44.4697618
  38.7943912  85.9177876  43.7648773  39.1640258  86.0910511  45.8402348
  40.0287580  86.4435291  46.4024544  38.1060076  87.2036362  45.9440613
  38.3822131  87.9646492  45.2142239  37.1222568  86.8149757  45.6808567
  37.9459977  87.6976967  47.3820162  38.4548140  87.1940136  48.3827400
  37.2775745  88.7565899  47.4998808  38.7179995  84.7681427  46.5529108
  37.5469899  84.5456505  46.8053818  39.6905971  83.8606358  46.8933058
  40.6613207  84.1356277  46.8467522  39.3572617  82.5983715  47.6438284
  38.8503027  81.9052696  46.9724751  40.7754850  81.9552326  47.9251957
  41.1713076  82.4321079  48.8218689  40.6991577  80.8976460  48.1777716
  41.8959808  81.9983196  46.8953371  42.0265722  80.8854961  46.0139322
  41.3944578  80.0139523  46.0990143  42.9942656  80.9588146  44.9795771
  43.0487013  80.1349831  44.2833471  43.8426304  82.0827389  44.8599815
  44.7140980  82.1644020  43.8524342  44.8887539  81.3082027  43.4549189
  43.6884928  83.1356239  45.7696009  44.3516636  83.9878941  45.7539940
  42.7200270  83.1114483  46.7670155  42.6862669  83.8928318  47.5118017
  38.4926319  82.7436733  48.9656210  37.6863480  81.8129730  49.1288567
  38.6157537  83.7864113  49.8244715  39.3672323  84.4227505  49.5998526
  37.7118921  84.2103481  50.8795500  37.7157092  83.5076046  51.7127609
  38.1327462  85.5549240  51.4751005  39.1910768  85.5239010  51.7340851
  38.2657027  86.3224316  50.7126331  37.2788787  85.9110928  52.7047300
  37.2033024  84.9658680  53.2422686  37.9105854  86.6331768  53.2220745
  35.6059670  86.5421295  52.5700569  36.1562824  88.2020760  51.8744612
  35.3032017  88.8534641  52.0643282  37.0610785  88.4835720  52.4131775
  36.4739370  88.0531406  50.8424664  36.2524366  84.2491055  50.4595232
  35.4529071  83.4279537  50.9310627  35.9457994  85.1668358  49.5095634
  36.7159700  85.7932758  49.3237734  34.6999121  85.3610802  48.8941526
  34.0295148  85.5104065  49.7405434  34.7075701  86.5161514  47.9110289
  34.7951698  87.5057888  48.3594275  35.5705142  86.3450432  47.2674894
  33.5419059  86.6126919  46.9081593  32.2436666  86.7978954  47.4536228
  32.0902801  86.7345810  48.5207987  31.1366129  86.8964386  46.5282536
  30.1010966  87.0146179  46.8113422  31.3688993  86.8599892  45.1229858
  30.3390074  87.0958519  44.2740583  30.7117391  87.2476101  43.4024858
  32.6608515  86.5161991  44.5934105  32.7668691  86.2502384  43.5520506
  33.7662768  86.4407921  45.5209255  34.7670102  86.1978531  45.1954746
  34.0252590  84.1151237  48.2626247  32.8876519  83.8666248  48.6157417
  34.7846341  83.3538532  47.4916267  35.7267761  83.6736012  47.3177671
  34.3707585  82.0964241  46.9112444  33.5110855  82.3166656  46.2783480
  35.5172968  81.3531208  46.0662937  36.3445997  81.3428497  46.7759275
  35.0918007  80.3885555  45.7893944  36.0037470  82.1349430  44.8695660
  36.2091970  83.1613731  45.1734209  37.2596121  81.4774323  44.2152357
  37.6581573  82.1430588  43.4495926  38.0403996  81.2879562  44.9518299
  36.8616867  80.5668736  43.7673044  34.8495269  82.2009468  43.8840485
  35.1634002  82.5818920  42.9122066  34.3356919  81.2602997  43.6858797
  34.2000008  83.0220032  44.1874838  33.9359474  81.0786629  48.0642986
  32.9131198  80.4608631  47.8994608  34.7667050  81.0153484  49.1636705
  35.6421614  81.5190125  49.1649103  34.4278860  80.1749516  50.3672981
  34.1385317  79.1733027  50.0493765  35.6258464  80.1902199  51.3942814
  36.0329819  81.2001610  51.3457012  35.2230477  79.9390936  52.3755026
  36.6668582  79.1834593  50.9076309  36.0810995  78.2669210  50.8373260
  36.8767357  79.6091080  49.9263716  37.9323530  79.0232229  51.7767286
  37.6844049  78.6083364  52.7537107  38.5244823  78.2579851  51.2748337
  38.7178731  80.3002262  51.8945217  38.2529211  81.0909748  52.3171902
  40.0073433  80.4910660  51.5898895  40.8341074  79.6014214  51.1251450
  40.5952597  78.6446190  51.3432693  41.8086386  79.8642445  51.0889530
  40.4965305  81.6487312  51.9235420  39.9302649  82.2167206  52.5374126
  41.4730501  81.8700123  51.7910576  33.1636810  80.7149696  51.0030127
  32.2830486  79.9243593  51.3117218  33.1179786  82.0128918  51.3314724
  33.9175272  82.5584126  51.0429668  31.9054222  82.5938702  51.9780684
  31.9051814  82.1465302  52.9720402  32.0913458  84.0518284  52.2247839
  33.0446577  84.0831661  52.7523422  32.2411680  84.6319771  51.3142490
  30.9330583  84.6165276  53.2198286  30.0990176  84.9600983  52.6079130
  30.5783367  83.7524128  53.7815952  31.4644504  85.7400703  54.2002535
  32.2380447  86.5703392  53.8364029  31.0561562  85.7314777  55.4491377
  31.4691544  86.4624691  56.0105467  30.2585554  85.1932430  55.7561111
  30.5157447  82.2598171  51.3572454  29.5245790  81.9449043  52.0238876
  30.4467416  82.4498558  50.0408840  31.1626720  82.9477215  49.5312881
  29.2805195  81.9895363  49.2993498  28.4418178  82.6609230  49.4835043
  29.5400190  82.1299362  47.8051519  30.4416347  81.6351032  47.4441433
  28.7838054  81.6123009  47.2149897  29.5057511  83.6263561  47.2341204
  30.0259113  84.2951870  47.9198360  30.2366042  83.7313461  45.8964682
  30.2568889  84.7993946  45.6797791  31.2366033  83.2978630  45.8824205
  29.5514870  83.2388401  45.2064276  28.0473042  84.1553402  46.9917536
  27.4249077  84.0372658  47.8787708  28.0337024  85.1437378  46.5324402
  27.6049685  83.4565926  46.2816906  28.8840055  80.5422688  49.6589088
  27.7288866  80.3088474  50.0625563  29.8134494  79.5849752  49.5855188
  30.7510829  79.8634052  49.3336725  29.4884515  78.2341862  49.9194145
  28.6094975  77.9306936  49.3506956  30.6363630  77.3551273  49.5254326
  31.5783668  77.7640629  49.8908138  30.5466676  76.3732958  49.9902678
  30.8169055  77.0311832  48.0595016  31.9973087  77.4188662  47.4267864
  32.7695656  77.8169012  48.0683374  32.2497320  77.2153997  46.0888004
  33.2151389  77.4165297  45.6484127  31.3117456  76.5440941  45.3254843
  31.4192557  76.2344170  44.2964363  30.0344014  76.2231112  45.8345222
  29.2564201  75.7332563  45.2677917  29.7783232  76.4650679  47.2280788
  28.8059711  76.2282038  47.6340628  29.2231703  78.0017281  51.3477087
  28.3395815  77.2477198  51.7510033  29.9591541  78.6555386  52.3126221
  30.6996155  79.2491007  51.9669342  29.6977592  78.7427568  53.7182093
  29.6651435  77.7374029  54.1380978  30.7336807  79.6498346  54.4473743
  30.7966161  80.6162262  53.9471483  30.4336381  79.8828793  55.4690218
  32.1065331  78.9154530  54.3701267  31.9993806  78.0476379  55.0209045
  32.4069142  78.5133410  53.4025621  33.2673454  79.7899818  54.7443342
  33.3949947  80.5557728  53.9792395  32.9026413  80.3671074  55.5940485
  34.5259905  79.0614271  55.0612211  34.4697785  78.0626583  54.9219465
  35.7379794  79.4435263  55.4723978  36.0532260  80.6996346  55.7818222
  35.3625202  81.4087486  55.5813551  37.0314264  80.8524227  55.9815264
  36.7136383  78.5496378  55.5913877  36.5180516  77.5705814  55.4387617
  37.6014805  78.9048719  55.9164143  28.2595468  79.2195892  53.9169025
  27.5285125  78.5457277  54.6713305  27.7653432  80.2495861  53.2323694
  28.4776092  80.7564640  52.7265406  26.4115548  80.8156109  53.3980322
  26.2083507  80.9615612  54.4589329  26.3695335  82.2068310  52.7615356
  26.7312264  82.1821404  51.7335892  24.9129486  82.6701927  52.7667522
  24.7857547  83.6898327  52.4030972  24.1794944  82.1742249  52.1310186
  24.4851184  82.4862385  53.7522507  27.1010017  83.2077217  53.6094332
  26.5877700  83.4131145  54.5488501  28.0598664  82.7997017  53.9291143
  27.3798990  84.5616531  52.9210663  26.4119291  85.0341511  52.7540779
  27.8977060  85.2307415  53.6083126  27.8555965  84.3685150  51.9595528
  25.3569102  79.8082256  52.9174232  24.3624115  79.5617056  53.6013079
  25.5806756  79.2045689  51.7293072  26.2999845  79.6076584  51.1460304
  24.7934341  78.0985212  51.2903833  23.7724662  78.4784269  51.2529945
  25.3509784  77.8121758  49.8622227  25.1961446  78.7056541  49.2573833
  26.4105272  77.5724220  49.9515247  24.6807289  76.6206503  49.2398834
  24.8957086  75.7704163  49.8871803  23.1655955  76.6961336  49.1064262
  22.6831961  77.0902395  50.0008965  22.9705691  77.3049450  48.2235861
  22.7887940  75.7473898  48.7243128  25.4048657  76.5535927  47.9008293
  26.4849520  76.4476013  48.0022383  25.2191067  75.6055260  47.3960924
  25.0321484  77.3368645  47.2407818  24.6771193  76.9693613  52.2548866
  23.5099387  76.5863228  52.5212717  25.7777119  76.5059423  52.9224491
  26.6602540  76.9325256  52.6790380  25.8756423  75.4959154  53.9531469
  25.4846883  74.5596838  53.5547400  27.3712921  75.1771307  54.1758633
  27.9469085  75.1526070  53.2505703  27.8753090  76.0149813  54.6576118
  27.6715875  73.9941072  55.0555658  27.4280500  72.7473879  54.4557953
  26.9994283  72.6309443  53.4713554  27.8614688  71.5657854  55.0187874
  27.7170563  70.6982756  54.3919134  28.3712769  71.6137409  56.3305855
  28.7748218  70.7806444  56.8869209  28.6119986  72.9347801  56.9358778
  29.0704012  72.8380489  57.9089689  28.2763886  74.1399622  56.3431931
  28.5690498  75.1145601  56.7049980  25.0519061  75.7514143  55.2663326
  24.2526984  74.9330091  55.6576443  25.0987935  76.9583178  55.8182764
  25.7604933  77.5810623  55.3773117  24.3349266  77.4758196  56.8998575
  24.3073940  76.7592001  57.7207136  24.9727368  78.7526512  57.3793268
  25.2498960  79.3930864  56.5419960  24.3724322  79.3957901  58.0228376
  26.2383771  78.4766722  58.2379675  26.9753551  77.9102898  57.6686049
  26.7656898  79.4195795  58.3827543  26.2021375  77.7759409  59.5994949
  26.0380793  76.6985750  59.5777035  27.1961999  77.8919506  60.0313282
  25.1971102  78.3894634  60.4967308  24.7030735  79.1579914  60.0661612
  25.1403642  78.2506609  61.8046618  25.6865430  77.1486139  62.3091793
  25.9552312  76.3651848  61.7311335  25.5770230  77.0099354  63.3035994
  24.5494676  79.0393496  62.6011610  23.9215732  79.7081232  62.1785450
  24.4376397  78.7883806  63.5730696  22.8433967  77.7673960  56.5157604
  21.9961095  77.5583982  57.3726940  22.4651718  78.2454157  55.3154325
  23.1998301  78.5226345  54.6801996  21.0532594  78.3274460  54.8595476
  20.4542351  78.9004564  55.5673122  21.0147452  79.1195583  53.4609509
  21.4679432  78.5352945  52.6601076  19.5590484  79.3640518  53.0214691
  19.6071482  80.0355911  52.1642494  19.0889025  78.3938408  52.8609896
  18.9601195  79.8619318  53.7840319  21.6901135  80.3503895  53.5223818
  22.6456928  80.2593803  53.5087252  20.3417110  76.9784403  54.6403885
  19.1184938  76.8225813  54.8918390  21.1051226  75.9581232  54.2182922
  22.0244884  76.1778641  53.8625097  20.6872416  74.5971203  54.4323015
  19.6674192  74.4873238  54.0635157  21.5575004  73.6284494  53.5801935
  22.6321244  73.7705231  53.6946535  21.3248825  72.5931311  53.8293982
  21.2738395  73.7218952  52.1033955  21.0952187  74.7626543  51.8331861
  22.3482585  73.2177448  51.1610365  21.9769382  73.2574654  50.1370001
  23.3222723  73.6930704  51.2770844  22.5201154  72.1951532  51.4969921
  19.9687123  72.9327917  51.8275023  19.1916513  73.2497787  52.5230551
  19.5331395  73.2048845  50.8660746  20.0902772  71.8495893  51.8281174
  20.5654716  74.0921736  55.8178520  19.8948574  73.0791903  55.9150410
  21.1099219  74.7321177  56.8660116  21.5675783  75.6034613  56.6392660
  21.0543466  74.2376900  58.2673454  21.2974572  75.1181746  58.8621092
  19.6317542  73.9950943  58.7390757  19.1438282  73.1492805  58.2546902
  19.7049224  73.6489677  59.7700691  18.6777627  75.1328850  58.6652994
  18.8581729  76.0972023  59.3839073  17.6400268  75.0433874  57.8518009
  17.0406282  75.8555555  57.8171110  17.5821948  74.3391418  57.1301365
  22.0798588  73.0778551  58.5966682  21.9889855  72.4580479  59.6425676
  23.1084037  72.9818773  57.7357626  23.1139946  73.7288523  57.0559835
  24.2032456  71.9605017  57.7858305  23.7145066  71.0272980  58.0657864
  24.7470713  71.6805935  56.3500261  25.2500987  72.5620508  55.9524155
  25.5034876  70.8962154  56.3762665  23.7877822  71.2081051  55.2773523
  23.9955616  71.2356424  53.8402462  23.1541657  70.3710699  53.3297062
  23.1459165  70.0766420  52.2906446  22.4561858  69.7679853  54.3098354
  21.8467140  68.9736700  54.1767454  22.8165627  70.2878189  55.5282640
  22.5375175  69.9275112  56.5074015  25.2233768  72.1601772  58.9473963
  25.5072999  73.3225536  59.2321062  25.8383942  71.0898829  59.4720316
  25.3658986  70.2187920  59.2769527  26.8905091  71.1436081  60.5327892
  26.9893265  72.1884346  60.8272028  26.3534904  70.3681183  61.7498922
  26.1261320  69.3640232  61.3918352  27.0772529  70.3832054  62.5647831
  24.9769187  70.7924366  62.3122215  25.1473975  71.7944813  62.7058506
  24.2430544  70.8418560  61.5077972  24.4508576  69.7937775  63.4197998
  25.2239156  69.2594671  64.1952038  23.1344962  69.7553539  63.6575079
  22.6925325  69.1512251  64.3355942  22.5657344  70.3065491  63.0307770
  28.2160497  70.5383396  60.1278019  28.3266711  69.3636227  59.7670555
  29.3285942  71.3472939  60.2382183  29.2633796  72.2872257  60.6020498
  30.6292629  70.7678604  59.8437548  30.4832578  70.1801968  58.9374256
  31.5729022  71.9265795  59.3684959  30.9590864  72.7376699  58.9767599
  32.0128059  72.3505116  60.2711964  32.6535368  71.5790462  58.2848215
  33.6216402  70.5941153  58.4827757  33.5345435  69.8979092  59.3038177
  34.6962833  70.4548502  57.5788355  35.3612137  69.6043301  57.5491142
  34.6854973  71.2405205  56.3575840  35.6824207  71.0479116  55.4749584
  35.3537869  71.3980961  54.6437073  33.7607980  72.3050785  56.2307262
  33.9032364  73.0145693  55.4290199  32.7166605  72.4366426  57.1565676
  31.9637990  73.1712246  56.9116354  31.1868382  69.8412085  60.9545612
  31.8923235  70.2648258  61.8475914  30.7610893  68.5873747  60.9411669
  29.9542761  68.4168482  60.3580093  31.3252425  67.5541115  61.8294001
  32.0197153  67.9155350  62.5878096  30.1474881  66.9612122  62.5979424
  30.5416393  66.0910130  63.1228256  29.7737169  67.6402187  63.3643293
  29.0205479  66.5114546  61.7128420  29.1543031  66.2264252  60.4996777
  27.8170061  66.3961506  62.0874166  32.0901585  66.4754248  61.1213970
  32.4770284  65.4157877  61.6823101  32.4301600  66.7158651  59.8279572
  32.0316625  67.5918102  59.5213270  33.1427622  65.8699989  58.8509512
  33.2156777  66.3650465  57.8825951  34.6716809  65.6231451  59.2066574
  34.8338866  64.8208141  59.9264193  35.0696206  65.2119207  58.2789516
  35.5459523  66.7453384  59.6602249  36.3714242  67.4042273  58.7849665
  36.2647271  67.2065020  57.7285910  37.3093987  68.3498240  59.2245007
  38.0133080  68.7803793  58.5276985  37.4525857  68.7271214  60.5970192
  38.4139323  69.6403503  61.0157633  38.2862115  69.9643803  61.9103527
  36.6802335  68.0007648  61.5005398  36.7144251  68.1924963  62.5628328
  35.7097459  67.0792150  61.0328007  35.0145006  66.6645527  61.7477083
  32.4298620  64.5324087  58.6716032  33.0990839  63.5787010  58.2926846
  31.1204529  64.4723320  58.7617350  30.6834507  65.3368044  59.0477753
  30.1416183  63.3769417  58.3872366  30.5601668  62.4132681  58.6775064
  28.7688470  63.3595228  59.1112185  28.2248545  64.2337370  58.7535572
  27.9518080  62.0434999  58.9240694  27.0404553  62.0568705  59.5218611
  27.7381039  61.7833614  57.8873587  28.6064291  61.3101482  59.3950033
  28.9478278  63.6410856  60.4608202  29.0635300  64.5823383  60.6099844
  29.9886703  63.3658123  56.8378782  28.9285445  63.5895491  56.3354206
  31.0518789  63.0226707  56.0879326  31.9586682  62.9500294  56.5267467
  30.9664202  62.7827263  54.6574020  30.4720688  63.6711836  54.2645121
  32.4357271  62.6619482  54.1276026  32.8085232  61.7594290  54.6119452
  32.3486495  62.5416803  53.0477619  33.3850884  63.8429880  54.3905687
  33.2459188  65.0062609  53.6083174  32.4577928  65.1060772  52.8766775
  34.1867018  66.0283852  53.6310482  34.0858436  66.8908453  52.9888773
  35.2470994  66.0024071  54.5622635  36.0090685  66.7537975  54.7079325
  35.3556895  64.8798609  55.3978825  36.2267184  64.7669744  56.0263443
  34.3969631  63.8232088  55.3357029  34.6155667  62.9117060  55.8721495
  30.1562190  61.5383959  54.3087626  29.9993896  60.6881666  55.1898527
  29.7265244  61.3224506  53.0599213  29.6709633  62.1358013  52.4637079
  28.9643073  60.1006126  52.6175690  27.9680562  60.0566053  53.0576277
  28.7788486  60.0750399  51.0328197  29.6343780  60.5352736  50.5384922
  28.6426663  59.0621901  50.6537580  27.6042438  60.8553267  50.6323290
  27.5632596  62.0520592  51.0385656  26.6758227  60.3504229  49.9781704
  29.5761538  58.7976599  53.0336857  28.8873363  57.8962040  53.5308790
  30.9365129  58.6277533  52.9341936  31.3987303  59.4052505  52.4848032
  31.6930246  57.3855495  53.2413816  31.1649585  56.5241718  52.8323841
  33.1115103  57.4876118  52.5778437  33.7207961  56.6352320  52.8783798
  33.1261683  57.5197363  51.4884186  33.9300632  58.6685991  53.0662870
  34.4976783  58.6460829  54.2691946  34.5489645  57.8149700  54.9569702
  35.1563382  59.8796940  54.4120026  35.8402896  60.0651503  55.1316643
  35.0659537  60.6935024  53.2963133  35.5368519  61.9891310  53.0343437
  36.2031198  62.4327517  53.7593889  35.2924562  62.5534439  51.7630816
  35.6911254  63.5179567  51.4852619  34.3083739  61.9540071  50.9428835
  34.0074921  62.4231052  50.0177765  33.8819170  60.6088543  51.2164879
  33.2020521  60.2309084  50.4672623  34.2593932  59.9614286  52.3677588
  31.7196345  57.0949650  54.7745657  32.0794249  56.0522747  55.1461792
  31.4859152  58.0478573  55.7036829  31.1060619  58.9298630  55.3908396
  31.6733122  57.8532505  57.1594524  32.5995922  57.3344326  57.4062967
  31.8305182  59.2097235  57.9295206  31.9621706  58.9992237  58.9908743
  32.9538703  60.1155663  57.4792957  33.0124450  60.9760571  58.1457996
  33.8855028  59.5704222  57.6308966  32.7311826  60.5074978  56.4868736
  30.6625152  60.0405073  57.9480219  30.3706741  60.1898336  57.0457315
  30.5906892  57.0310307  57.7705383  30.7523775  56.5303135  58.8820505
  29.4360638  56.9764757  57.1205854  29.4879770  57.4199057  56.2146187
  28.2511544  56.2555122  57.4838829  28.1854057  56.2580967  58.5718966
  27.0872450  56.8798542  56.8471050  27.2194028  56.8160343  55.7670307
  26.2080836  56.2969351  57.1216631  26.9539571  58.3696651  57.3775768
  26.9582653  58.1842136  58.4516764  27.8212166  58.9928627  57.1594286
  25.5401969  59.3466043  56.7383766  25.9049201  59.4652557  54.9466372
  26.8994427  59.9102163  54.9144840  25.9070086  58.4789085  54.4827175
  25.1592302  60.1826620  54.6040297  28.3944488  54.8023701  57.0236397
  27.9595637  53.8931370  57.7348518  29.0879440  54.4881868  55.9146929
  29.6536446  55.2196407  55.5084085  29.3558383  53.1243610  55.4170370
  28.4492111  52.5272131  55.3193712  29.9222136  53.1875706  53.9980412
  30.7104754  53.9380550  54.0573072  30.3657889  52.2189093  53.7677097
  28.8681340  53.5034084  52.9775620  28.3571386  54.4574881  53.1069088
  29.4919300  53.5807657  51.5278912  28.7448382  53.9376879  50.8189821
  30.3219366  54.2854452  51.5790701  29.9323106  52.6083851  51.3073492
  27.8040075  52.3559332  52.8606033  27.3751140  52.5673103  51.8810749
  28.2099938  51.3530111  52.7286100  27.1287227  52.4981880  53.7043190
  30.3641605  52.3678255  56.2698030  31.0820508  52.9343128  57.0859575
  30.3692889  51.0638428  56.1332226  29.7051215  50.6445360  55.4982758
  31.1887598  50.0833225  56.9323921  31.9422531  50.5674410  57.5536633
  30.3041124  49.3451548  57.9725742  29.3857360  49.0203667  57.4834919
  30.8826494  48.4555721  58.2216597  29.9412417  50.2433777  59.2095184
  30.7747245  50.8786440  59.5092535  29.1216803  50.9101439  58.9414740
  29.5854402  49.4340086  60.4814196  30.3408957  48.7212229  60.8120584
  29.2426777  50.0910950  61.2806988  28.3806515  48.5252094  60.0834179
  27.4034858  48.9956856  60.1924992  28.4861469  48.3703852  59.0096378
  28.3623219  47.1873093  60.8388186  29.1851091  46.6311502  60.6549406
  28.3276391  47.3386097  61.8368244  27.5631189  46.5943909  60.6661224
  32.0118690  49.1513538  56.0152292  33.1891418  49.2056799  55.9632635
  31.2641621  48.2490540  55.4261684  30.3189135  48.1422520  55.7655764
  31.7641044  47.2005987  54.5913649  32.8212500  47.3527050  54.3736315
  31.6843414  45.7711792  55.2675915  30.6685472  45.4311657  55.4692268
  32.1550035  45.0403452  54.6099758  32.2819352  45.6835032  56.6688585
  33.3516526  45.7386827  56.4669561  32.0214629  46.5242386  57.3118353
  32.1233463  44.3005562  57.3744202  31.3726807  43.4210014  56.8956137
  32.7449751  44.0751696  58.4835815  32.5783038  43.1885386  58.9376783
  33.3708644  44.7680807  58.8685989  31.0729933  47.1600723  53.2027674
  29.8043299  47.1561718  53.0980968  31.9098878  47.3281097  52.2456598
  58.4328604  45.9120035  65.4838705  57.2066975  46.7700243  65.8045864
  57.0893383  46.9587183  67.3334265  56.9987726  45.5619001  68.0217457
  57.7133465  44.5528555  67.4499464  58.4765148  44.6208143  66.3270426
  59.2287779  45.2655315  61.9113350  58.0089903  44.5868015  62.0292616
  57.3705006  44.8125553  63.4118080  58.4523106  45.6325626  64.0263081
  59.4901228  45.9722281  63.1692410  59.3586016  44.6270704  59.6533871
  58.1746101  43.8879871  59.8291874  57.3791027  43.9947891  60.9740829
  59.8356724  45.4591894  60.7092762  60.4498816  46.6353989  63.5332870
  56.1243916  43.4730911  61.0963249  59.1444349  43.6623812  65.9420443
  56.2339020  45.4570198  68.9706182  59.2960358  46.4686346  65.8692265
  57.5166273  43.6284685  67.8146124  59.8745823  44.5529032  58.7006760
  57.7805948  43.3975029  58.9439917  60.7161045  46.0867834  60.6075191
  57.2266340  43.8775301  63.9671803  56.4554119  45.4175138  63.4051466
  55.8511686  43.0491590  61.9736910  55.6539059  43.1136990  60.2755785
  56.3532066  46.2828350  65.3171301  57.3298216  47.6886415  65.2177429
  56.1811256  47.5324535  67.5556755  58.0204105  47.4562883  67.6316547
  47.8732777  62.1526718  69.3879652  48.6854458  64.6552753  25.0853539
  65.1587009  74.0378141  48.7013102  82.0612812  87.0410824  44.9338150
  28.7196064  58.4393406  35.9964633  45.3229141  68.0564260  64.0741587
  15.8421492 109.1054206  17.3933429  16.2621283 108.9764314  18.2437533
  15.8897184 110.0496201  17.2434825  52.9901384  95.5336289  51.7176837
  53.5462736  94.7545843  51.7243499  52.5699114  95.5352836  52.5776977
  40.3146589  15.5378729  57.7808303  40.0080383  14.9616771  57.0806807
  41.0096061  16.0572773  57.3764914  83.6400427 100.7702308  12.4074191
  83.3762230 100.2984099  13.1973762  82.8184904 101.0871224  12.0321006
  18.2931459  29.6497160  38.5818404  17.7999532  30.4666715  38.6565513
  17.6343143  28.9623457  38.6802978 115.2891638   0.2649790  36.7588538
 114.5912864   0.5596023  36.1737079 116.0830715   0.6669288  36.4061755
  14.9490679   9.8062235  36.2177676  15.1155079   8.9958244  36.6992110
  14.0638531   9.7003132  35.8693332 110.0338186  88.8029032  18.3674640
 110.3261675  89.6438413  18.7190169 110.1219000  88.1933384  19.1002006
  43.8480270   5.4282623  32.6146621  44.7841633   5.2519184  32.5209159
  43.4224022   4.6183305  32.3334521   7.8807139  70.9790187  29.9279899
   7.4313807  71.7741470  29.6414489   7.4731421  70.7625859  30.7666129
  36.8700491 104.8346710  94.2998600  35.9251105 104.7019994  94.3754673
  37.2485529 104.2312675  94.9392891  56.3452507  74.9516134  55.5645389
  57.1667446  74.6449881  55.9484118  56.1422194  74.3068759  54.8868007
  88.3717788 109.4153123  20.4853171  89.1961397 109.5003610  20.9643096
  87.7334799 109.8854833  21.0217399   7.6325119  19.0167862  12.8825587
   8.3464611  18.4348684  13.1430930   7.6373661  19.7115188  13.5410041
  98.4882415  89.2899351  11.6704959  99.2541374  88.9677839  12.1457499
  97.8058304  88.6429601  11.8492908  17.1637034 104.1759162  40.4677981
  16.7230486 105.0254540  40.4491157  17.6567816 104.1437726  39.6480006
  19.8712515  76.1643248  39.6736926  19.3630480  76.7799811  40.2018279
  19.9812674  75.3988581  40.2377719 111.3188280  78.8528352  26.3426417
 112.2382082  78.7146525  26.5703982 111.2907995  78.7564855  25.3907126
  42.3971342  85.7373958  19.7225303  42.8972792  84.9904113  19.3937510
  42.0718931  86.1732488  18.9348239  88.0466175  57.2731256  80.1921272
  88.7125587  57.0086622  79.5574522  88.3905220  56.9805002  81.0361290
 109.3718971  64.0978192  11.2204093 109.6435035  63.5660492  10.4722899
 108.8714517  63.4968560  11.7723388 116.2425579  94.4303446  27.7185172
 117.0645536  94.8888760  27.8926009 115.6669916  95.1014428  27.3516673
 116.4126314 102.0173554  25.6152362 115.7782758 101.7495875  24.9503154
 115.9138693 102.0265393  26.4321631 100.0080694  85.4934149  48.3136481
  99.4838632  84.7123461  48.1365317  99.6261514  86.1700349  47.7545852
 106.9282545 103.3621364   9.9947280 106.1044420 103.8276296   9.8502177
 106.6636432 102.4665933  10.2050036  23.1904768  96.6560512  16.2963218
  23.4926962  96.0813718  15.5930156  22.7630400  97.3834758  15.8442325
  48.3719349  34.3735361  94.0098763  48.2371092  34.8487353  94.8297787
  49.3161297  34.2203927  93.9742851 104.9662603  84.3555360  59.7125834
 105.6364120  83.6887889  59.5623321 104.1368784  83.8913827  59.5989245
  70.7761049   1.3222590  92.7571583  70.9605598   1.4788775  91.8310452
  71.5621328   0.8873841  93.0877209  99.5533527 106.6949754   1.7079467
  99.5359100 106.4221816   0.7906074 100.4579986 106.5483527   1.9842738
  35.9489906   8.1896787  36.0425776  35.7740152   8.9268261  36.6275805
  35.3568208   7.5000530  36.3425464  51.4840794  16.5631211  94.3170929
  50.7912207  16.4113677  93.6743259  51.9279194  15.7186031  94.3947315
  80.6059361  17.1209300  92.4750805  79.6740103  16.9705212  92.3165607
  80.8994198  16.3371658  92.9396343   3.7671541  87.0675473  45.3814239
   3.0511641  86.9585185  44.7555655   4.5424627  86.7547684  44.9152774
   6.4032829  13.4898859  36.7642135   7.2194374  13.0148369  36.6078395
   6.4697778  13.7881475  37.6713199  28.3015036 108.8509612  19.0441627
  28.9702105 109.5333486  18.9857596  28.7685370 108.0861001  19.3804568
  91.6990865  82.6783495   6.2183684  92.6513160  82.6025157   6.1572570
  91.5537370  83.3056741   6.9265861  78.8627828  96.7618422  44.6406287
  78.6648358  95.8427720  44.8205203  79.5746673  96.7328458  44.0013999
  12.8020643 102.3925166  13.6926669  12.7650045 103.1357341  14.2947310
  13.0781817 102.7731948  12.8589553  75.8815755  97.1242480  20.8641070
  76.4368046  96.6970639  21.5163821  75.2876438  97.6722627  21.3770884
  21.5204500  81.7726521   2.8112620  22.1930670  81.7709212   2.1302241
  21.8497252  82.3824244   3.4715575  77.5798321  39.8994422  85.5322647
  77.1902704  40.6872988  85.9114075  78.1578064  40.2260733  84.8427105
  95.1403488  75.3355484  27.5166053  95.6057848  74.7680573  26.9021529
  95.6534303  76.1434679  27.5321979  89.6257591  21.4182043  84.8858929
  89.0795517  21.5701056  84.1146469  90.1285744  22.2264957  84.9862480
 108.1197418 101.7795138   2.1625251 108.4556020 101.1942344   1.4836425
 108.2117332 101.2817149   2.9749030 100.8765615  82.2024660  28.5475177
 100.6329168  81.5949755  27.8490657 101.4875711  82.8115349  28.1328601
 114.7632469  93.1822209  19.1072768 113.8445963  93.4302835  19.0034694
 115.0464834  92.9381638  18.2261199  98.0541134  43.2856798  92.4745083
  98.1762791  44.1994333  92.7321243  98.8554955  43.0609131  92.0017624
 106.6307176  70.6280749  27.2761458 106.6433681  71.5231233  26.9370955
 107.5526966  70.3738468  27.3155993 100.1962627  65.6029074  41.1398906
 100.7581390  65.2804081  41.8445319 100.1213802  66.5428786  41.3044471
  62.2356319   2.4834929  86.7417431  62.3395586   1.8290949  87.4325275
  61.3194895   2.7538061  86.8037510  10.8763575  83.4371524  27.5556773
  10.9128832  83.7263565  26.6439361  11.7295336  83.6769443  27.9173678
  98.0349077  62.1484058  43.9412230  97.5799192  62.4523334  44.7266120
  97.8910364  62.8420882  43.2975310 113.2673944  80.3412275  19.5050353
 113.2628263  79.5470195  18.9707679 114.0977157  80.3056483  19.9799460
  79.0840973  84.4642143   7.5392932  79.4816459  85.2607088   7.1874637
  78.4606279  84.7770934   8.1947535 111.0027422 101.6864924  15.4057998
 110.4833378 102.0641141  14.6959800 110.6745304 102.1144347  16.1966056
   6.5432428 100.7237964  42.0331878   5.7225489 101.2024598  42.1496982
   6.9381308 101.1119370  41.2523860  71.1009468  76.6180615  12.8905696
  70.5821503  76.2300448  13.5952205  70.7741893  76.1995010  12.0941562
  13.7155712   3.1201559  26.1060828  13.6814487   3.7128978  26.8569011
  14.5006597   3.3854109  25.6270045  53.9378536   2.1995979  35.9093493
  53.9957989   2.7099806  35.1016444  53.1895912   1.6185861  35.7723731
  29.6184814   3.9060407  20.1153964  29.0309227   4.1064220  20.8439940
  29.8621929   2.9901081  20.2491683 102.1043028  81.8938117  34.0212172
 102.2498096  82.1797614  33.1193942 101.1588491  81.9729953  34.1479987
  10.5894064  94.1904812  26.6393870  10.4913591  93.7001281  25.8231849
  10.3473162  93.5668616  27.3240108  28.9123142  17.1577984  52.2360152
  29.7037304  17.0049053  52.7522582  28.7217987  18.0877023  52.3593825
 111.9397176  78.6453037   9.1708201 111.3586153  78.6589770   8.4103126
 112.2092260  79.5569329   9.2827434   0.0149702  95.4798083  34.4642848
   0.6031488  95.6116252  33.7207049   0.4673838  95.8875184  35.2027434
  32.3555398  20.4803085  83.7182903  33.2830882  20.6131697  83.9138222
  32.1264267  19.6740174  84.1804886   0.6125473  90.4923086  26.3630504
   0.0371861  89.9489598  26.9015330   1.0121798  91.1039429  26.9814605
  27.7963007  17.5173526  35.4649657  28.1643760  16.6421133  35.5862445
  28.5482443  18.1053644  35.5360335   7.8151392  74.4125276  12.0570010
   7.8414797  75.2818232  12.4568385   6.8971418  74.2871826  11.8165988
 112.6315607  94.2630105  65.2209777 111.8190302  94.3229418  65.7234115
 113.2567943  94.7959070  65.7122344  49.7925747  23.3037668  11.2481135
  50.3481949  23.7509781  10.6097430  49.3274200  22.6407629  10.7379264
  22.0452665  51.2167870  46.4756125  21.6506456  51.4840730  47.3057097
  22.9881453  51.2479405  46.6376323  83.7535274   4.3532520  25.6840152
  84.1591060   4.5509201  24.8398227  83.6026848   5.2098375  26.0836905
  80.1304340  29.2395544  94.3716526  79.6450329  30.0626445  94.4276524
  80.5914974  29.2898989  93.5343170  63.6013735  90.2252941  26.1323279
  63.3067001  89.3470173  25.8914393  63.9727153  90.5829363  25.3258342
  11.2654661  83.3680515   0.0723571  12.0251345  82.8427725  -0.1790601
  10.5426287  82.7416282   0.1089210  22.5462221 108.9163403  80.3275603
  23.0507731 109.6838813  80.0582046  22.4266600 109.0272336  81.2707633
  78.0679930  84.3748884  22.0637626  78.4150304  85.2567153  22.1985835
  77.3787011  84.4862823  21.4090079 104.5467390  63.7094485  11.3447684
 104.2761482  62.8683405  11.7129344 104.6393503  63.5417174  10.4069442
   2.0272373  95.8427863  27.8198070   2.9691671  95.7072597  27.7167338
   1.9490599  96.7357640  28.1555289  43.8331592   2.9123836  10.9336776
  43.0940330   2.7180629  11.5100020  43.9663017   2.1063476  10.4348678
  28.3118319 108.4357219   2.9864902  28.4116625 108.1159501   3.8831538
  28.9198183 107.9035239   2.4733180 114.1885723  66.4258962  40.9101886
 113.3025135  66.0870855  40.7823676 114.6773065  65.6873743  41.2734431
 113.6881317  74.5580153  48.5930175 113.7393297  74.9410920  47.7173060
 113.7799801  73.6162965  48.4482306  95.3229011  79.9433475  30.5531329
  95.4472841  78.9947586  30.5838222  94.6086324  80.0711756  29.9288577
  61.6597618  86.7047124  30.9372443  61.6919626  87.3489599  31.6444510
  61.2465466  85.9366183  31.3315982  41.6765011   5.2230030  11.9147891
  41.9549644   5.9845405  12.4234599  41.7728222   4.4848209  12.5164908
  91.6404880 104.9413400  38.3497161  92.2490276 105.4248528  38.9083976
  90.8547271 104.8362880  38.8861579  68.1294823  25.7896209  88.2928658
  67.7658033  25.4414535  89.1069603  68.0016613  26.7359495  88.3588791
  64.6162046 102.6725821  30.3140658  65.2678837 102.6569276  31.0149974
  64.6224893 103.5772328  30.0013465   2.9633879  90.0033050  15.7015628
   3.5809015  90.4208140  15.1010722   2.2879957  90.6653552  15.8491153
  19.5447897  58.0310248  25.7087916  18.7103914  58.2078345  25.2743358
  19.8952078  58.8973291  25.9160537  20.6823896  93.6265092  16.3121623
  20.9368872  93.3685594  17.1981162  19.7288584  93.5432701  16.3030547
  24.9117077  12.9729658  30.1410884  24.8843372  13.8531452  29.7659034
  24.3206346  13.0145603  30.8928412   0.4024242 106.2440257  30.8773822
   0.9851574 105.7699113  30.2841872   0.3195356 107.1140819  30.4870337
  73.2229316   2.2299200  60.0019568  73.7635887   2.5115495  60.7399291
  73.0661953   3.0301862  59.5007152  84.9767317 105.7519155  37.6405257
  84.9096597 106.0120015  38.5592669  84.1474594 106.0300593  37.2517032
  73.4823978   3.1622034  24.0064830  74.0251816   3.2399326  23.2218951
  73.7563122   2.3368173  24.4064158   7.8230261 108.1857638  18.2904643
   8.2721495 107.7499490  17.5661868   7.9426741 107.5968842  19.0355414
  15.5904554  91.2495666  24.8220080  15.6644796  91.8336515  25.5767268
  14.9911188  91.7009883  24.2276591  34.8701942   0.1996666  25.5133838
  35.4938114  -0.4523606  25.8330459  35.4039848   0.8159500  25.0118941
  58.5410965  11.8234497  15.6563205  58.8532436  10.9243398  15.7582778
  57.9871643  11.9730192  16.4224929  22.5998295   3.1144005   9.3085402
  22.8849209   3.1556373  10.2213687  23.2631910   3.6094862   8.8278407
  76.5723991  12.7623165  90.0399017  76.3193178  13.6466861  89.7751904
  76.4630604  12.2349393  89.2486000  57.5556267  10.7515340  40.7840842
  57.4465454  10.9062725  39.8457927  56.8114174  11.1974531  41.1884803
  43.8374304  84.8111086  14.7049922  43.3747553  84.7551351  15.5410689
  43.8224100  83.9173536  14.3626327 113.7629141  87.9360704  28.8076800
 113.4404672  87.1096711  28.4480685 114.0078081  87.7258043  29.7088164
  19.0064119  79.2196660  14.6849650  19.9427008  79.3022280  14.8659915
  18.6639475  80.1079326  14.7846431  41.8595480 102.1312957  42.1637649
  41.2923502 101.3610988  42.1274775  41.5680956 102.6069455  42.9416102
  28.6716450   7.6621395  40.0206489  28.0661237   7.1998745  39.4410914
  29.4213951   7.0727926  40.1029605 115.8482803 100.2724748  18.2636851
 115.7809461 100.2952676  17.3091334 115.9489502  99.3442397  18.4745997
  82.7098240  90.5800371   6.5470904  83.5822834  90.8535771   6.8303317
  82.1332134  90.8353786   7.2671908  29.6760023  26.6413122  37.3110694
  30.2338875  27.1987444  36.7686099  29.5146454  25.8669573  36.7720241
   7.2107290  98.1695228  42.9550380   7.0899080  98.9378791  42.3971290
   6.4566301  98.1805568  43.5444850  88.0646801  22.4374914  82.6058292
  87.9148197  22.6518273  81.6850471  87.2940445  21.9309688  82.8623199
  44.9356270  55.0405645  87.8177834  44.2781115  55.7134485  87.9942417
  45.1965189  55.1929712  86.9095230  11.7878031  89.2176275  15.5056972
  11.4469027  88.3232765  15.4931754  12.6661848  89.1443877  15.1324481
  19.2706751  68.0653684  14.3745154  19.3441938  68.0357759  13.4206027
  19.2997431  68.9979689  14.5881671 108.0846704  94.3839197  27.2727221
 107.1392645  94.3017201  27.3979491 108.4254516  93.5047703  27.4376315
  44.2547773  91.9663839   8.7314910  44.9012922  91.9096379   8.0279082
  44.5293211  91.3017302   9.3632239  65.8532976 108.7177949  29.9682921
  66.2342905 107.9877143  30.4562110  66.1510920 108.5857015  29.0682334
  42.5005806  26.2552744  17.6140994  42.4892605  25.3740507  17.9876727
  42.1518696  26.1449247  16.7295283   5.9085344  64.4376157  66.5716285
   5.2389788  64.1148506  65.9685058   6.5664267  64.8411589  66.0054511
 115.5192198  92.3814540  16.3929671 116.4214767  92.4384527  16.0784549
 115.0528253  93.0617099  15.9072131   7.7076887 100.6109385  11.6134185
   7.0801615 101.1837010  12.0543021   8.5399603 100.7837110  12.0535487
  43.3088863  35.2764707   2.1736926  42.4444473  35.6183630   1.9454497
  43.5686004  34.7553449   1.4139480  94.8464550  99.8896413  11.7960185
  93.9242328  99.6447616  11.8719787  94.8434843 100.8463626  11.8260306
  11.3253283  99.4366507  56.5322131  12.1950125  99.2670016  56.8943042
  11.4461302 100.1990037  55.9661120   5.8171057  79.5018487  22.4776954
   5.0640749  79.1909056  21.9752044   6.5410971  78.9433603  22.1945781
 103.4809971  78.1058550  88.3485413 103.1303883  77.4128914  88.9081001
 104.2733860  77.7278280  87.9671669  22.9746317  89.9139385   2.8306216
  22.0468592  89.6965651   2.7399844  23.3159231  89.8846679   1.9368190
  78.1897558  93.9617472   6.7632026  79.1218818  93.9337044   6.9790381
  78.0392326  94.8596745   6.4677352  68.9534950  39.1815066  89.6527767
  69.6024466  39.5925617  89.0816975  68.3057117  38.8124228  89.0524483
  96.9405760  95.4052262  -0.1508218  97.1104587  95.1360183   0.7518882
  96.8677677  96.3586383  -0.1067620 102.9040111 108.7662034  16.7729110
 102.1199669 108.7022834  17.3182696 103.4923233 109.3385415  17.2653979
 111.4841140  96.4336019  37.0945186 111.0460294  97.0882659  37.6383227
 112.1811689  96.0871367  37.6515693   4.0973604   1.7510563  44.1600722
   3.7961757   0.9144645  43.8056296   4.8084629   1.5164667  44.7563380
  98.9756263  88.5166054  20.6895560  99.0297998  89.0649872  19.9068850
  98.5608352  89.0763526  21.3459605 111.5764631  86.1014204  37.3976439
 111.8700803  87.0121293  37.3725146 111.0620941  86.0377221  38.2023734
  14.9147581  89.8707299  35.7546252  14.7458147  88.9508657  35.9584445
  14.9014448  90.3107338  36.6045970  53.2732380  17.9107338  17.5802249
  52.8961075  18.3864313  16.8401450  52.5268543  17.4716764  17.9881305
  11.8625807 105.9157996  28.0824584  12.5846552 105.7540660  28.6896438
  12.1729349 106.6302066  27.5260943 115.0247348  90.0865488  34.8722762
 114.5096315  90.0106387  35.6754798 115.0459541  91.0258441  34.6892280
  15.8101915 102.3310857  42.3779124  16.0367464 102.8092771  41.5802688
  15.1085829 102.8469043  42.7752894  87.1761608  67.2121525  92.0787239
  87.5402451  66.5720606  91.4672089  86.2415314  67.0080185  92.1108437
 114.6444381 105.1983790  22.5123137 114.6470226 104.4099717  21.9695014
 114.5875610 105.9201055  21.8861312  14.6305632  98.6607985  20.9614104
  15.0293421  98.2862525  20.1759738  15.0792860  98.2277780  21.6876143
  68.0515278   7.5642925  26.9020003  67.8749264   7.1529728  27.7480811
  68.5671509   8.3416706  27.1165771  93.7341369  94.5336227  24.4062156
  94.6295942  94.4499927  24.0785140  93.2724537  95.0168328  23.7209529
 112.2940315 103.7218099  41.5197009 112.7946771 104.4946723  41.2584132
 112.4266065 103.6590772  42.4656028  10.3247904  64.2889153  40.9742850
  10.1778292  65.2335422  40.9261531  11.1392092  64.1981153  41.4689654
  97.1791567  99.9395232  24.1086310  96.9970669  99.0525918  23.7981051
  96.9478620  99.9203639  25.0372714 109.9503578  98.0815845  10.5267161
 110.4900564  98.2783370  11.2923831 109.2622436  97.5058513  10.8602733
  89.4965185 107.6840119  18.6065120  89.0067972 108.1527142  19.2823237
  88.9370502 107.7283626  17.8311080  21.1602949  96.2189107  31.5236873
  21.2207483  97.1624379  31.3742465  21.9890379  95.8707385  31.1947459
  86.7479027  16.9837480  31.0787696  86.9443405  16.8830877  32.0101661
  87.1399868  17.8238826  30.8407229  22.1904444  82.8135281  15.1778048
  23.0425428  83.1736832  15.4236335  21.6088842  83.0625896  15.8961314
  11.8771242  61.8456851   2.3578757  11.1524462  62.4066602   2.0814914
  12.6182627  62.1312063   1.8236369 113.7738861  77.2148375  62.9286784
 113.4817566  76.4953499  62.3690146 113.1974519  77.1739559  63.6917609
  27.2828650  86.5686541  68.2004279  27.3454165  85.9334426  67.4871177
  28.1912111  86.7962818  68.3987731  64.0789211  35.8200555  26.6337317
  63.6226928  35.4143911  27.3709697  63.3840931  36.2291532  26.1178893
 105.4479946  82.5639372  31.9667548 105.1955570  83.3411102  31.4682502
 105.4252876  82.8477578  32.8806323  40.0223387  13.5729891   6.9113273
  40.8402002  13.9503198   6.5873546  40.1679552  13.4557968   7.8500957
  29.5648086   2.6847702  13.3296889  28.7561119   2.3497348  12.9424018
  29.7730625   2.0616775  14.0258330  65.6181288  12.6066077  82.9318333
  64.7144127  12.7865350  83.1909657  65.7558203  13.1457257  82.1529675
 114.1823734  89.5131760  15.3438109 113.4817136  89.2563682  15.9432715
 114.0823377  90.4605298  15.2502936  22.4719513  23.8542276  11.4928073
  22.3017156  24.4827133  12.1944255  22.2532118  24.3268018  10.6896514
  84.5511139  16.7135626  33.5514277  84.1942680  17.1698862  32.7894134
  84.3149555  15.7962566  33.4135646  84.8054016  14.4714266  51.9989985
  84.8114765  15.4091268  51.8068713  85.7086838  14.2713981  52.2445601
  72.9224170  66.4233654  17.2424048  72.9668916  67.3787944  17.2048778
  73.8093628  66.1337285  17.0287055   4.2851519  97.1150498  23.1131572
   3.7900614  96.3261561  22.8923434   5.0020384  96.8014388  23.6644763
  44.2025364  10.4348236  43.5075397  45.1572979  10.3688961  43.4897822
  43.9029587   9.5363670  43.6463088  98.7551880  28.0934095  85.5335236
  99.1606426  28.3821607  86.3511276  98.8523293  28.8392830  84.9415207
  14.0209078  82.7990322   6.6662520  13.3177160  82.8494577   6.0187835
  14.7018599  83.3793359   6.3259906   9.2546629 108.2922034  38.1177539
   8.6476301 107.8443961  37.5285071  10.1149534 107.9416995  37.8869456
  48.8021826  95.0993400  21.1740607  48.8775896  94.1507893  21.2779731
  48.4734892  95.2172666  20.2828330  96.6505527  49.7173071  79.5674753
  97.2871113  50.2066422  79.0463400  96.9611740  48.8124180  79.5371389
  45.5505455  10.7105070   5.5547732  44.9874676  11.4334970   5.8312911
  45.5298794  10.7431083   4.5983523 114.5955753  58.2232952  72.2817230
 114.1742229  58.9700222  72.7072716 115.4343987  58.5656309  71.9728279
 101.8156433  57.8753567  93.9509010 101.4394760  58.1980371  94.7698021
 101.2881851  58.2870626  93.2664204  28.6121058  79.8568969  26.2102241
  28.3193182  80.2760177  25.4009932  29.0034746  79.0314488  25.9243983
   8.1354021  75.1123195  30.6378859   8.5153555  75.9611635  30.4113215
   8.2376360  75.0499539  31.5875644  43.4071338   8.2063633  51.2085265
  44.0368068   8.9243990  51.2731093  42.7228725   8.5393482  50.6278914
 104.9821485  99.6305757  26.0428828 104.5998062  99.7504477  25.1735896
 105.9147276  99.4922643  25.8773726  30.2936815 100.0695090  14.5864409
  30.2117800 100.1295238  15.5382365  29.5612120  99.5150857  14.3174952
  44.0079784  57.8424644  83.9156437  44.0322018  56.9883633  83.4841919
  44.2971230  58.4589338  83.2428932  27.9723011  98.1466948  88.9658833
  28.1574189  97.2076666  88.9795971  27.4875437  98.2833897  88.1519032
 109.7993435  49.0746342  22.2988528 109.7824920  48.3118736  21.7208022
 110.0297178  49.8051416  21.7248172  68.2066536  25.7101059  94.1553783
  67.9752016  25.0059557  93.5497093  68.8879824  25.3329849  94.7119713
  20.8151793  52.5559485   4.9237746  20.0000834  52.9472547   4.6095580
  21.3449644  53.3011239   5.2070922 105.5839981  72.1910589  18.9466590
 106.1812223  72.4728017  19.6396083 104.7531141  72.0347481  19.3954677
 110.1725292  18.8528693  93.2781410 110.0227451  17.9160643  93.4053993
 109.6645355  19.0727341  92.4972248  12.0288157  76.8169265  25.8637637
  11.4293169  77.4531751  26.2536639  12.8795122  77.0196729  26.2529201
   0.6344615  94.5685291  86.4743519   1.0845410  95.3955840  86.3021946
  -0.2482451  94.6996247  86.1281204  23.5461592  37.7406757   0.1591605
  23.1308054  37.1713023   0.8068675  23.1628012  37.4728935  -0.6760388
   0.7098984 102.3497443  18.9540500   1.5544485 102.2448163  18.5159224
   0.1747202 101.6308646  18.6178607  89.0139974  73.1695812  32.8061217
  89.7554363  73.6856596  33.1226081  89.3833889  72.6171272  32.1172255
 101.2142481  70.0193112  22.2296924 101.3223184  69.7291880  21.3239402
 101.1242593  70.9702377  22.1674746   5.3910326  79.1224580   6.2478084
   6.2565493  78.9439731   6.6155833   5.3635954  80.0743513   6.1509818
 111.0452427  78.7876873  34.0173263 111.8197120  79.3480449  34.0666217
 110.4832710  79.0925770  34.7296828 110.9814323  67.4164991   9.0994472
 111.6722263  66.7668788   9.2299384 111.3190712  67.9903083   8.4117145
   0.8533072  87.4332099  22.0758170   0.4121422  87.3011451  21.2366790
   0.4481100  88.2211451  22.4380511   2.7687811  66.4406602  26.1059875
   3.6257242  66.0376244  25.9665603   2.9651617  67.2911661  26.4987964
 116.3383211  62.0867269  34.0069789 115.7245172  62.2632258  34.7199458
 116.3014854  61.1375802  33.8886756   3.5049795  54.9944443  15.6544703
   3.3912157  54.1120381  15.3014201   3.9041590  54.8589512  16.5138453
 107.0085014 105.4187684  26.7643088 107.0707430 104.5534472  26.3598556
 106.8433393 105.2392106  27.6898974  76.2154759  27.6292520   9.6947974
  76.2332381  28.2965903   9.0088099  75.3157748  27.6451402  10.0211638
   6.4938031   6.6785306  76.6379166   6.2971268   7.3123616  75.9481287
   5.9290371   5.9304446  76.4439106  98.8953127  77.3455291  12.5354976
  98.8746895  78.1409602  12.0034331  98.9049543  77.6618271  13.4388751
  95.2811527   8.7916118  80.4057598  95.0906658   9.5758730  80.9204197
  96.0104465   9.0471101  79.8408890  34.4673479   4.5899349  17.1155757
  34.6307600   5.5300480  17.1911830  34.3450392   4.4427591  16.1776942
 101.9497789  80.7205348  24.0032405 102.2270454  80.7426290  23.0873412
 101.7200245  79.8049645  24.1619128  85.9890045 100.5565886   7.4604815
  86.4813579 100.7158952   8.2657451  85.8460344  99.6101766   7.4504298
   6.7686247  45.3270863  58.8856811   6.0355066  44.7181313  58.7966174
   6.7472338  45.8468585  58.0821818 109.1522707  62.3685716  59.5733279
 109.6855463  61.9982164  58.8699931 109.6587719  63.1167852  59.8893374
  30.5843139  20.2943182  81.6929054  31.0922766  20.1262641  82.4866104
  29.7170734  20.5439925  82.0119476   9.0396380  94.2631845  22.4207992
   8.5227751  93.4666614  22.2998065   8.3899950  94.9638038  22.4784583
 102.0000948  66.3858359   0.0741214 102.3691572  66.1127393   0.9140319
 102.6509250  66.1142855  -0.5731088  34.3495107  16.1610973  84.8271656
  35.0630426  16.1863208  85.4647064  34.7566104  15.8342433  84.0248775
 101.2505258  31.5200644  16.1103553 101.4799036  31.2586479  15.2185744
 100.2955831  31.4609508  16.1391372 112.6797975  32.8096013  15.8922690
 113.0033935  32.4516444  16.7189425 113.0447973  33.6936884  15.8548755
  97.6947321  87.8357344  25.8524722  97.1950735  87.4930911  25.1114100
  97.0544828  87.9073553  26.5604133  18.9761709  50.1339220  29.9355811
  18.2171034  50.6800814  29.7312087  19.6827864  50.4962318  29.4011229
   4.7567629 101.6956572  11.2097281   3.8326716 101.4503341  11.2555903
   5.0576471 101.6666131  12.1179408  18.7317633  59.6504788  40.9733886
  17.8475069  59.3495564  41.1825866  19.2070746  59.5917709  41.8021697
  83.7785816   6.7148304  74.7937107  82.9652119   6.2242699  74.6753550
  84.4706345   6.0752064  74.6258688  80.4971981  17.5699627  85.4430866
  80.8820248  16.8105853  85.8806801  81.2367153  18.1578696  85.2890682
  94.2688097  67.6493363  33.3000392  94.4756235  67.4435430  34.2116946
  95.1218237  67.7582769  32.8796405  96.2100519 101.4412217  22.2194213
  96.3763298 100.8838801  22.9796618  95.6660904 100.9042840  21.6432017
  27.1894716  57.5777973  26.0287303  26.2541174  57.5184281  25.8342570
  27.5939821  57.8071372  25.1920623 112.8653444  45.1703458  17.8656596
 113.0337633  44.2291229  17.9100055 111.9232191  45.2523177  18.0136794
  58.2640732   0.5082946  15.4682654  59.1745174   0.7302480  15.2731723
  58.2981384   0.0931221  16.3300628  99.0626621   4.3098050  81.4430332
  98.6535263   3.4618044  81.2705994  99.0245152   4.7691518  80.6041241
 110.9399713  68.3481662  15.6581515 110.6931318  68.6518972  16.5316791
 110.1095022  68.2676141  15.1890296  56.0859060  10.0970972  85.6528091
  56.7995548  10.7343674  85.6815434  55.3949738  10.5335581  85.1544571
  80.2169323  32.9941726  89.4734478  79.6796322  33.7201118  89.1563511
  80.4514790  33.2425380  90.3676128  38.4496569  75.2744465   0.6440085
  39.1657995  75.6535225   1.1535853  37.6557421  75.5747251   1.0864562
  15.4893469 100.8928828  18.6349410  15.5852770 100.2067046  17.9745025
  14.5709585 101.1560159  18.5752791  99.4337940  29.9171448  90.1478195
 100.3616810  29.8711824  90.3783321  99.1062164  30.6801629  90.6239796
  85.3699220  68.2361143  14.3634624  85.2899517  68.3064108  15.3147143
  84.6155990  67.7100830  14.0979117  10.4914450  70.3159635   6.1299724
  11.2593531  70.2363389   6.6958446   9.7757792  69.9409847   6.6432399
 101.1215795  83.1999807  24.8090095 101.4861931  83.8744168  24.2359275
 101.6120161  82.4079590  24.5889873  10.1064753  73.4140449   0.0268382
   9.1740297  73.4805422  -0.1789266  10.1812624  73.7631922   0.9149474
   7.7898478 106.8740849  36.3561172   7.0620989 106.6061692  36.9172210
   8.0374979 106.0767274  35.8880061  85.4145336   3.5122105  84.9499989
  84.7059059   3.5365370  85.5930233  85.8607960   4.3526781  85.0534534
   8.6921572  77.3159699  24.0524882   8.1296515  77.5353985  23.3097381
   9.3490957  76.7226248  23.6883372  76.3061714  15.9018290  90.5511570
  75.6537199  15.8818960  89.8510551  76.5293455  16.8279791  90.6442738
  63.9928484   4.1312486  84.9916840  63.5309029   3.7740758  85.7501507
  64.5175743   3.4004435  84.6648502  73.0610657  19.4833803  76.8970728
  73.0151176  18.8960087  77.6514673  73.6209440  19.0250456  76.2704182
  22.5554251  86.1178570  17.5340671  22.8083300  85.4370623  16.9105357
  22.2227549  86.8306189  16.9885940  10.8814787  85.2115016   5.7877845
  10.4435515  85.9757333   5.4130858  10.3827166  84.4640236   5.4580134
  12.8852820  97.7987437  17.5869292  13.7141966  98.2758002  17.5476092
  12.2485231  98.3916907  17.1879596  98.7583841  85.1491671  68.6385459
  98.3626999  85.9317927  69.0221518  98.2864536  84.4202332  69.0412444
  11.7417311  83.3468657  56.0715312  12.5412821  83.2199411  55.5608195
  12.0488333  83.6504559  56.9257850  28.4575914  86.0966401   9.4324225
  28.3098482  85.5733113   8.6446876  27.8250670  85.7588725  10.0664920
  52.0190310  95.9849315  18.5362739  51.6957163  96.6853480  19.1029471
  52.9431128  96.1942105  18.4002513 115.2995218  82.7790289  20.1750010
 115.4231323  83.2163529  19.3325633 116.1870874  82.6414065  20.5059356
  35.7303845  83.3153176  82.3323250  35.2378069  82.8572845  81.6512966
  36.2092577  82.6231193  82.7881432   7.4930929  64.0777628   5.3175467
   6.6523432  64.3033104   4.9194259   7.3146128  63.2828026   5.8199519
  59.8959494   6.2897795  81.6572094  60.6148052   5.9235555  82.1723366
  59.1408682   5.7446063  81.8782711  46.1566996  81.2017040   1.2673968
  46.4720415  81.9464021   0.7553309  46.8428873  80.5406003   1.1762542
   2.8491091  78.9794521   0.8589286   3.3222460  79.2746978   1.6368789
   2.2845720  79.7170453   0.6276435  88.9839233  41.2911718   2.9523963
  89.3391956  40.5423741   3.4312648  89.7554983  41.7613821   2.6364726
  42.6801096  71.2870955  68.4277725  43.0322157  70.8619141  67.6458025
  43.0296313  70.7748007  69.1568947  75.3069223  74.4673638   1.3174647
  75.7573498  75.2764063   1.0749835  74.4158758  74.7441261   1.5311736
  88.0137838  80.4385095   6.0783309  87.1939481  80.1037960   6.4417380
  88.5201372  80.7132058   6.8427772   9.0483927  61.4406948  26.6097659
   9.3528437  60.7075672  26.0749167   8.6019301  61.0284554  27.3493308
  94.8714889  66.9579689  28.4434623  94.0523971  66.5971916  28.7828177
  94.6519149  67.8549175  28.1914729  34.4100225  10.1400285  57.4368018
  34.4657696  11.0127550  57.0476169  34.6526087  10.2706342  58.3535022
  36.5715956  43.1075363  31.3224143  36.6285395  43.4703927  32.2063369
  37.3226809  43.4810464  30.8613318 105.1656927  30.7986622   0.8805007
 104.5404543  30.7228427   0.1596946 105.9402479  31.1981873   0.4846686
 114.4106163  91.0278444   6.5642280 114.8064007  90.4146152   7.1835250
 115.1290525  91.2792187   5.9838027  81.3933862  82.9634457  -0.1264363
  81.0494770  83.6769586   0.4110164  82.2690643  82.8002553   0.2239722
   8.0751585  58.0994506  14.7186107   7.6625704  57.3877901  14.2291850
   7.4832987  58.2591553  15.4537505  24.9835085  70.2161674   1.1344069
  25.8525442  69.8307579   1.2460917  24.9759077  70.9661906   1.7290801
  32.6765417  96.3084559  15.1590842  32.4417090  95.6387095  14.5168036
  33.3633303  95.9026341  15.6880969  26.2894701  68.1827693  14.7731990
  25.6865858  68.5312943  14.1164702  27.0069861  68.8157825  14.7995490
  11.9656347  60.3556429  42.5996226  11.3489031  59.7522967  43.0141849
  12.0160460  60.0596063  41.6907519  14.6588075  12.4212890  47.2889823
  15.3116358  12.7931219  46.6958636  14.9452913  12.6927715  48.1610221
  42.5134933   6.0642391  36.8954486  42.2883213   6.9350820  36.5680903
  43.4199894   5.9312015  36.6183299  55.0403583  10.6752973  57.1311778
  55.3435505   9.7736555  57.2377032  54.3384254  10.6169563  56.4830131
  26.0766386  42.4864142  41.0126990  26.5786909  42.7680128  40.2479285
  25.1625799  42.6180344  40.7608718   6.7601847  77.0387607   2.3551101
   6.4543318  76.6105680   3.1546992   6.4910959  77.9519658   2.4544925
 112.5873150  82.6775579  18.3400744 112.5720419  81.9268708  18.9337653
 112.0383180  83.3336811  18.7694186  20.2140116  63.1636994  23.0273265
  21.0975145  63.4661709  23.2374782  19.6364473  63.7778871  23.4805602
  32.7670741  41.0204554  91.8304920  31.8934512  41.4082909  91.8815041
  33.3629298  41.7481136  92.0085430 105.3289413  15.6470752  92.3491383
 105.9463310  15.1877558  92.9184151 104.4725132  15.4856610  92.7449894
  73.0290794  29.5899200  91.8067741  73.9840221  29.5307684  91.8354321
  72.7264977  28.7729931  92.2033978  20.8612513  89.9288754  18.6357993
  20.3135275  89.3337254  18.1239146  20.8139776  89.5890264  19.5293921
 102.2398962  59.3297403  12.5962562 101.4508928  59.8709135  12.6251906
 101.9317163  58.4725060  12.3023051  19.3753849 105.7124212  92.9756641
  19.8777090 105.6854829  93.7900162  19.5322644 104.8601361  92.5691795
  80.1614475  44.5979643  86.4980698  80.3853893  43.9011002  85.8812523
  80.9977531  44.8480177  86.8908787  61.3401175  12.6585186  91.0995483
  61.8649912  13.2754827  90.5895519  60.9688234  12.0639753  90.4477119
 114.9236311  93.6233144   4.5248240 114.3408455  93.9628797   5.2040023
 114.5720972  93.9780955   3.7082499   0.8662533  89.5324283  30.4362411
   0.0197004  89.7875481  30.0695151   0.6461929  89.0427356  31.2287158
  80.5581188   6.0127389  88.4764099  80.5560303   6.8652689  88.0411911
  81.3003349   6.0535121  89.0794849  10.5576014  71.7292016  22.6015491
   9.9062513  71.3249891  22.0283145  10.5801558  72.6465099  22.3290175
 112.4315561 100.1905208  11.4809531 112.4512542 100.0710015  10.5314464
 112.8643335 101.0319762  11.6254634 113.6377205  61.9962554  17.8091639
 112.8702129  61.9918238  17.2371978 114.3789781  62.1105175  17.2144336
   6.1839651  94.2299299  15.6011027   6.8496584  94.5022850  14.9695128
   6.5463518  93.4420853  16.0063189   7.0323443  95.7288127  18.9440268
   7.5034212  94.9425082  18.6682624   7.4372267  96.4380460  18.4447211
   5.1753210 109.6737962   1.0615272   6.0460924 109.6133141   0.6686706
   4.7358679 108.8661628   0.7953853  49.4355940  88.7353973  13.9118785
  50.0130247  88.0596142  13.5567397  49.3084692  89.3471198  13.1867141
  10.7020353  66.2867372  21.0986251  10.5195116  65.9343295  21.9696731
  11.4159559  66.9091885  21.2368602  94.9119772  69.4760089  27.6991385
  94.6383823  69.2532592  26.8093318  94.9711193  70.4313796  27.6994437
 105.8762373 100.0085502  17.3420543 104.9945749  99.6465497  17.4306697
 106.3007940  99.4487243  16.6919917  27.2003734   7.8370004   7.2044677
  26.7822349   8.5050827   6.6612739  26.4718235   7.3361784   7.5713843
 105.8506263  94.3037157  29.7277183 105.7131351  93.5284691  29.1833610
 105.3500379  94.1286831  30.5245894  21.1455320  58.6680956  34.6561259
  20.9626936  59.3735795  34.0355605  22.0119261  58.8755898  35.0061816
  11.3733839  80.7242351  37.0129794  11.0135531  80.2431183  37.7581519
  10.7886290  81.4746742  36.9074744 106.1127962  92.5408249   2.4303168
 106.7350877  92.2179012   1.7786235 105.3524841  92.8176551   1.9189185
  35.2469992  68.5628717  10.3868503  34.4965624  68.7819128   9.8344916
  35.8233618  69.3242340  10.3207892  98.2926477  83.5199933  15.8552665
  99.0329994  82.9198079  15.7664412  98.3973373  83.9021640  16.7266005
  99.3370832  65.6625764  47.8953856  98.8131441  66.3982837  47.5784415
  99.7867359  65.3355234  47.1162242   9.9506830 103.7365537  11.2450332
   9.3253016 103.9156203  10.5428428  10.5812811 103.1309085  10.8554477
  16.2508844  83.8550215  25.3715056  15.6729769  84.1313915  26.0827655
  16.8652224  84.5814543  25.2660674 108.1538881  62.2033440  28.7614936
 107.5160993  62.8376006  28.4341163 108.3306278  61.6333191  28.0131167
 103.5626758  64.7772680   2.1664256 102.9128278  64.5424937   2.8288478
 103.8733877  63.9376973   1.8275851  99.2374229  65.1046371  87.6073742
  98.3756256  64.6909618  87.6564980  99.5909119  64.8222685  86.7638397
  94.4661869  92.6919513   9.3350524  95.0315632  92.3009639  10.0011653
  93.9642872  93.3565097   9.8069400  26.4284491  90.3411918  37.8887385
  25.6782602  89.8840480  38.2688350  26.3140081  90.2444391  36.9433421
  10.6174063  85.8137040   2.0815391  10.3956484  85.2302842   2.8072661
  11.1391901  85.2719383   1.4895362  24.7521913   1.9805675  16.0362548
  25.5876720   2.2865110  16.3892478  24.1074837   2.2263103  16.6997355
  30.8141684 103.3267074  32.7296084  30.7676195 103.8239341  31.9130153
  31.7166971 103.0099206  32.7660293  24.2171740  90.9317188   5.6904334
  24.0545057  90.3871446   6.4606303  24.1690325  90.3237085   4.9526996
 103.4757042  41.1813450  84.4174671 103.2802200  40.2809715  84.1579342
 102.6881599  41.4749193  84.8755264  21.6688990  78.6172085  16.8971557
  22.4915194  79.0163021  16.6138476  21.0554957  79.3495922  16.9569987
  70.6238747  20.2060032  76.1656904  70.3140402  19.7619879  76.9550467
  71.5778017  20.1962209  76.2441778 101.8985176  22.3695946  81.4043713
 102.3386192  21.8317080  82.0625687 102.6064968  22.6940775  80.8478546
  75.8280897   8.1698906  52.2356892  75.2110338   8.0634534  52.9596663
  75.5242491   7.5534469  51.5694237   2.6152681  62.9528569  20.4786796
   2.6639246  63.0394940  19.5266551   2.6260351  62.0084195  20.6340999
  26.0423445  96.0924058  16.4905852  25.3726648  96.4428477  17.0779151
  25.5805658  95.9364276  15.6667727  41.2045263  83.2630568  21.3023585
  41.8983244  83.8815765  21.5310878  40.4800009  83.4894686  21.8854827
  67.8061819  15.6560349  84.9230671  68.4304619  16.1254799  84.3697739
  67.9547930  14.7322226  84.7212791  14.0406584 109.0509515  29.9732417
  13.7757086 108.3154111  29.4209594  13.3904051 109.0696435  30.6754226
   9.6909403  78.5309463  31.3254088   8.9637636  78.3207540  31.9112987
   9.9301313  79.4293337  31.5532702  46.5904570  10.7760978  89.4720364
  46.6753578  11.0734069  88.5661507  45.9377384  10.0769699  89.4344902
 102.6442064  99.1585212  16.0819835 102.9567064  98.5461383  16.7479915
 103.4406770  99.4790225  15.6587237  95.2454485 102.6372008  10.8717174
  94.9268640 103.4121900  11.3344592  94.8896564 102.7232079   9.9872703
 111.8757833  72.5434773  11.1446685 111.9902147  73.0873911  11.9239539
 111.2446941  71.8745046  11.4100665 109.2260838  45.2131844  83.0060768
 110.1089096  45.4867840  83.2550430 108.6760616  45.9716797  83.2020378
   4.1073965 103.2438426  27.1331519   3.4653257 102.7784781  26.5970344
   4.9339270 102.7919917  26.9631309   6.4303660  89.6402268  24.7911662
   6.7015719  90.0125675  25.6302470   6.0268854  88.8029056  25.0199145
   3.9948725  73.6081080  65.0467223   3.1877493  73.6465077  65.5598563
   4.5787500  73.0497818  65.5601424   0.7385992 108.6223941   5.8963889
   1.4503454 108.2732348   5.3599853   1.1741661 109.1899590   6.5322989
  86.6969503  87.4204473  20.5023879  87.3615183  86.9350510  20.0135344
  85.9203781  87.3924332  19.9434680  50.4107189  43.8424158  90.6599617
  51.1450529  44.3134212  91.0538483  50.4802608  42.9543257  91.0102463
 106.4519991  68.9743059  57.1165484 106.9738401  68.5272579  57.7829284
 106.5813745  69.9055974  57.2959632  13.9331411 105.8750634  10.3681678
  14.5834421 105.7124476   9.6848697  14.3828081 106.4390378  10.9974212
  22.1339010  79.4694309  26.3221091  22.2765040  80.4154210  26.3536757
  21.3138269  79.3348508  26.7970771   7.9904436  88.2007627  48.7938422
   7.1614336  87.7328329  48.8938827   8.5925840  87.5476818  48.4372825
   5.0908636  74.4177656  42.8523463   4.4902681  73.9202456  43.4072989
   4.9254488  74.0915673  41.9677752  12.6359152  96.7993026   9.9901504
  12.2268938  97.3939805  10.6188697  12.0669531  96.0295777   9.9833983
   9.1961645 109.0831904  45.0199431  10.0912737 109.2522960  44.7259826
   9.1433500 108.1300740  45.0907248  21.6674208  75.0193005  25.4000586
  21.8404268  74.2792170  24.8181838  22.2799753  75.6970172  25.1142043
  50.1282680   1.1248022  22.7860183  50.7627285   0.5591493  23.2261580
  50.6486213   1.6238695  22.1564216  30.1611780  82.3314600  28.3671302
  30.5807947  81.4986234  28.5828513  29.7614073  82.1833305  27.5101203
  15.6441664  79.3978434  19.2698211  14.7703528  79.7077136  19.0318030
  16.2201952  79.7689753  18.6014670  25.5064367  73.8901715  12.9282969
  24.7847246  73.2628636  12.9712886  25.8645605  73.7832146  12.0470828
  76.2240648  16.1504292  85.7042408  76.9507074  15.5340862  85.7955837
  75.8442879  15.9479511  84.8492622  47.5175560  10.5112463  24.3126601
  48.2133377  11.1066061  24.5913428  46.8514145  11.0831648  23.9313430
  34.2312992   1.8982750  61.3907737  34.8419893   1.3167005  61.8435973
  34.5793093   1.9656091  60.5016250  44.0149199  96.7732477  78.2953119
  43.4195696  97.1359693  78.9512205  44.8890768  96.9910979  78.6187696
  25.8608316 106.0255055   4.1420764  25.4101156 106.4498095   3.4119719
  26.1880182 105.2036147   3.7764567  90.8055223  94.3312769  45.1822490
  90.8909143  94.2180901  44.2356128  89.8999513  94.6143513  45.3088969
 115.2752413  58.8922839  20.1586455 114.9486412  59.7917985  20.1795596
 115.8716835  58.8366069  20.9052295  98.9321150  90.9702973  19.1215152
  99.5209755  91.1535196  18.3894557  99.2972959  91.4680629  19.8530215
 103.3156503  91.3321476   9.6289176 102.8587974  91.3371544   8.7877959
 103.1014217  92.1778064  10.0228709   7.6278280  73.9505916  41.2384433
   7.3391508  74.0749125  40.3343219   7.6830458  73.0008094  41.3437861
   2.9246306  91.4588790   1.1204070   2.0414042  91.4137368   0.7542056
   3.4515451  90.9055715   0.5438251 115.7896913 104.0737491   9.2459411
 114.9680771 104.0341907   8.7564391 115.8422531 103.2296805   9.6942920
  13.7148737  53.3781281  35.2922076  13.1743883  52.5934190  35.3835219
  13.3254313  53.8531001  34.5580691  92.3256493  63.6111069  80.3944111
  92.0430470  62.7305746  80.6414604  92.2253513  63.6366701  79.4428205
 108.2995510  25.2184343  89.5672703 108.9531040  25.5340075  88.9431572
 108.7976074  24.6844029  90.1861286  65.9608030  26.4668632  86.6550446
  66.7078829  26.0321164  87.0662594  65.4125929  26.7458391  87.3884296
 104.1756548  73.8380723  42.5243587 103.7491525  72.9845898  42.4475974
 103.8509859  74.3363874  41.7743510  52.9673433  59.6305799  93.9243126
  52.9035044  59.5853233  92.9703140  53.9037704  59.7274590  94.0973663
   2.9220270  99.5597558   1.2492293   2.5963472  99.8294787   0.3904933
   2.2528528  98.9617782   1.5821761  58.5345507  17.5568640  78.8153124
  57.7890205  17.5881255  79.4148493  59.1743183  18.1578135  79.1971350
  19.0346121  91.7719274   9.6625823  19.6456598  91.0371261   9.7165507
  19.5601915  92.5379424   9.8932761   4.8277605   5.2836233  49.1610641
   5.2137459   5.8246427  48.4721869   4.7482384   5.8722978  49.9116439
  77.6093711 102.8679280  14.2199916  76.8481148 103.0227427  13.6607474
  77.3057426 102.2311788  14.8669738  66.7577636   2.8066307  40.3339881
  66.2153137   2.0198494  40.2796000  67.6096809   2.5342327  39.9930114
  44.1441715   2.1846777   5.1049251  44.6833980   1.8311649   5.8123893
  43.7096489   1.4189058   4.7294063 100.7107509  99.9385791   7.6356429
 101.6456379  99.7547440   7.5438708 100.3094257  99.5267253   6.8704337
   5.3045725  91.3576107  33.8099116   4.6949553  91.4142280  33.0741233
   4.7901224  90.9698777  34.5178908   5.4951357  61.5996884  22.8595084
   5.2686094  62.0976506  22.0740527   5.2130770  62.1561156  23.5855025
  99.5559610  74.6740298  22.2867888  99.5188392  74.3769531  23.1959647
  99.0139736  75.4628305  22.2702426  94.1311550  36.1041689  89.7484016
  93.4496117  36.3278747  89.1146088  94.0061092  35.1698804  89.9148273
  84.7783947  26.3804817  67.7633095  84.9215126  26.1983109  66.8345690
  85.0995064  25.5988574  68.2129574 102.7477134  75.9866624  20.9839457
 101.8971695  76.2721758  20.6503505 103.2926334  75.8939080  20.2024764
  18.6876272  67.2943692   9.1798228  17.9768347  67.1835725   8.5483664
  19.3185019  66.6112845   8.9526099  97.1869373   4.0264431  74.6956968
  97.5801563   4.4993836  75.4291391  96.8044186   3.2439730  75.0927496
  11.9570612  70.9998958  30.8438605  11.5087771  70.9361677  30.0005263
  12.8595614  70.7425420  30.6554336  62.2302055  24.3293524  71.8687296
  62.0529127  24.7231507  71.0144949  62.7930021  24.9636745  72.3127222
  57.1471977  46.1839437  90.0910854  57.7352238  46.4866638  89.3991184
  56.2817621  46.4914799  89.8215008  50.0639820  33.2798791  75.1948452
  49.4083834  32.5832844  75.2291393  49.6003914  34.0266442  74.8158216
  56.9718504  29.7519207  90.0910187  57.7547550  29.6385670  89.5520878
  56.5140629  30.4936314  89.6953869  29.7722565  86.9208264  88.4356689
  29.0870177  87.5200176  88.1396103  29.5559965  86.0858321  88.0206394
  89.6621227   6.7256415  93.7399673  89.4626713   5.9846222  93.1678295
  89.9022293   7.4327451  93.1411457 116.3621200  87.5932960  27.1996612
 117.1049846  87.8399496  27.7506083 115.5985845  87.9505401  27.6531142
  21.8700384  76.5818982   7.2435206  21.4722418  76.8529324   8.0708903
  21.1802267  76.0928040   6.7949885 115.5182708  86.8830829  20.1894111
 115.6502737  86.8452721  19.2421073 114.5833553  87.0597296  20.2940959
   9.0224623  96.0034471  28.0783671   9.4333910  95.2272992  27.6976317
   8.8760447  95.7714562  28.9954108  28.3711231   9.4317156   9.0328235
  27.5955522   9.6530824   9.5482940  28.1124294   8.6589294   8.5307139
  42.6668905  99.9861770  17.9864234  42.1928572 100.6753974  18.4517116
  43.5561060 100.3280168  17.8932685  76.5619469  29.6569967  93.6885643
  76.5731859  29.5120025  92.7424717  77.0527172  28.9188576  94.0498447
  11.7787909  65.9763067  18.4300536  11.7836451  66.7057281  17.8102607
  11.6334414  66.3871353  19.2823047 107.8081478  88.0828814   7.6149291
 108.4369720  88.4216528   6.9777125 108.3033146  87.4385767   8.1208152
  28.7193846  55.3285465   0.3583068  28.5838675  55.6684868  -0.5261785
  27.9231714  54.8326103   0.5488986 107.2619499  95.5564504  41.5635127
 108.1692423  95.5757909  41.2590808 107.3098243  95.8379273  42.4771422
  39.0478109  91.7448215  30.7124347  38.2776999  91.6693883  30.1489943
  38.6904978  91.8287759  31.5964717  60.9671486  12.1555143   7.3645514
  60.4212082  11.6561847   6.7572230  60.6953419  11.8564420   8.2322616
  32.2985434  43.8648801  41.3440532  33.0761503  44.3413262  41.0532588
  32.6300978  43.0097251  41.6179389  80.3828526  33.8578844  92.0666122
  79.8895216  34.6778369  92.0435238  79.9039412  33.3075929  92.6863384
  44.6158003  99.9840264  32.4125880  44.3398069  99.0682034  32.4489898
  44.9290155 100.1751094  33.2966823  21.9370913  57.0720932   6.5177363
  22.0991301  56.1744590   6.2275142  21.5676569  57.5089275   5.7503146
  31.0630488  96.2753444  30.2405566  30.8032583  95.3906302  29.9836081
  30.7755732  96.8296103  29.5150298  83.4257698  65.5525064  94.2544746
  83.0231857  64.8277664  93.7760162  83.1532764  65.4207134  95.1625538
  23.5413622  58.3660431  18.9531440  24.0485643  58.8214852  19.6251220
  23.2885050  59.0534668  18.3369082  97.6116085  60.0357056  80.0709915
  97.3898029  60.4522705  79.2382193  98.0513859  60.7221937  80.5725479
  33.7805342  98.8102727  25.3571147  34.5452570  99.1930156  25.7871551
  33.1606554  99.5356326  25.2807254  89.8214817  20.5878210  91.9279480
  89.6205139  21.4164639  92.3629189  89.6021366  20.7404304  91.0088062
  23.0478643 105.4417138   0.8627337  22.9445623 106.0547404   1.5905780
  23.0602812 105.9961371   0.0825519  96.1939240  24.7265673  88.7030506
  95.6421566  24.2146635  88.1116581  95.8887577  24.4911194  89.5792198
  15.9215426 106.1945491   8.7893599  16.2095713 107.0877080   8.9778728
  16.5427279 105.8757310   8.1346053  21.3551497  53.9760452  33.3526534
  20.9746908  53.1003805  33.2841128  22.2009920  53.9049859  32.9102534
  13.7792181  86.5963249   2.8348083  13.6484121  85.8459692   3.4145373
  13.5923170  86.2579064   1.9591540  13.2112465  41.8012333  60.0824738
  13.3295117  42.7393293  59.9334097  13.8727818  41.3855696  59.5294476
   9.5664858  69.2542963  36.5061206  10.3925585  68.7959855  36.3518924
   8.8994288  68.6774390  36.1339492  16.4866518  52.8229770   8.1855220
  15.7292914  52.6985437   7.6135463  17.1828150  52.3090135   7.7763480
  12.2889685  81.8536739  30.6040877  12.2791361  82.7664499  30.3160399
  12.0990919  81.8962269  31.5413016  59.4046867   2.2282272  30.6388110
  60.0437057   2.7458006  30.1489085  59.1079700   1.5633922  30.0173682
   1.3268338  34.9054575  54.2868948   1.6237984  35.3058720  55.1040316
   1.9705353  34.2199016  54.1083241   6.9417370   0.9219938  50.8288592
   7.0481718   0.9397131  51.7799586   6.1082447   1.3660293  50.6728190
  24.0804743  79.0449839  22.6518840  24.6151899  79.7875028  22.3708552
  23.3239912  79.0590935  22.0655745 112.0770741  17.2222006  89.6215630
 111.3388920  16.7194891  89.9659443 112.8340626  16.9033444  90.1130104
  62.5081432  11.1734348  49.5705813  61.5985859  10.9864383  49.8028773
  62.4517811  11.6327100  48.7326545  24.0115059  20.4433780  19.7095221
  24.3318403  21.3399034  19.6102351  23.0593097  20.5323702  19.7500438
  17.0599150  92.5453548  45.9114856  16.1692404  92.8847103  45.9996528
  17.1456694  92.3365288  44.9812907   0.2612423  91.4276342   4.4541186
  -0.2229286  92.2530847   4.4751281   1.1476587  91.6628437   4.7282905
  72.9542816  12.3327308   7.9831141  73.6452663  12.0082431   7.4056453
  73.1223285  11.9038587   8.8221950  42.3017204  20.4377609  54.9006671
  42.1934212  20.6115728  55.8356971  41.4481724  20.1098304  54.6175689
  26.0767019   8.6611324  18.8109607  26.5355814   9.2538505  18.2156962
  25.4202354   8.2316976  18.2624454   1.4458632  81.0996370  24.6064872
   1.1398958  81.9447498  24.2772502   2.3214649  81.2788658  24.9491614
  74.2971706  39.8475099  87.8113651  74.7775126  40.5860281  87.4370670
  74.0098286  40.1589632  88.6696529  44.5343769  12.7761274  20.5375976
  44.1088188  13.4738069  21.0359782  44.0693271  12.7614122  19.7010917
  60.5037296  15.7267147  20.5028075  61.2100017  16.2216526  20.0875300
  60.8890140  14.8706871  20.6898993 111.3705171  89.2628818   0.1143092
 111.6522373  89.1634445   1.0236949 111.4089693  88.3771472  -0.2465611
   9.8010121  43.4159088  73.5865927   9.6406327  43.9319181  74.3766832
  10.4691563  43.9087105  73.1101942 104.8769855  21.4270616  67.4502897
 105.6987190  21.3724852  67.9381466 104.4109058  20.6218576  67.6753330
  14.9842333  82.5487952  68.7842864  15.2075934  83.0767946  69.5508307
  14.6532320  81.7273550  69.1474837 106.7235279  66.4493132  74.7384310
 105.9564495  66.9955206  74.9101114 107.4590015  66.9527006  75.0876045
  93.3766937  54.4993401  76.0632944  94.2834282  54.1927052  76.0693502
  93.4466553  55.4530764  76.0217571  67.5176786  77.8774981  18.0466479
  67.1967672  78.2418613  18.8715667  66.7729925  77.9452829  17.4490947
  21.6922354 107.3448901  21.6597194  21.4951300 108.2355027  21.9498652
  21.9157480 106.8751626  22.4632281  99.8656654  47.9487133  86.8715572
  99.6037197  48.1308079  87.7740288  99.1474915  48.2918501  86.3398457
  71.2090576   7.7011400   0.5276317  71.5629947   7.1468359  -0.1678544
  71.8569076   7.6469284   1.2301845  16.5419172  67.8625195  15.6172103
  16.4417433  68.5612516  16.2637156  17.4340796  67.5413160  15.7479972
  42.5854277 105.3147368  29.3820495  43.2321619 105.5196528  28.7067813
  42.6779818 106.0188251  30.0238627  98.6537647  49.9588919  88.7863541
  97.7540588  50.1611900  89.0429211  99.1349411  50.7721758  88.9388752
  17.2218571  54.6804810  94.6760845  16.7812405  54.4806910  95.5020237
  17.1507321  53.8739729  94.1654778 103.1847061  83.3857088  39.2879981
 102.6555885  82.7348332  38.8268870 102.5618519  84.0692739  39.5350284
  13.7997793  89.2892985  25.5282420  14.4003653  89.9905472  25.2757186
  12.9548334  89.5554523  25.1656550 107.9222012  64.1003370  93.6359119
 107.5094509  63.4522152  93.0651188 108.7269974  63.6775970  93.9356136
  34.3850493  79.8489122  19.3435782  35.2462267  80.0328999  18.9684123
  34.5595526  79.2276721  20.0505752  68.0809295  14.6835762   8.2139605
  68.3411014  15.5217367   8.5960978  67.3988903  14.9100309   7.5816840
   9.1024374  90.4179435   4.1345042   8.4827971  89.9680524   3.5601539
   8.7208437  90.3371673   5.0086326   7.0864557  91.2872200   6.1460132
   6.3602518  90.6652503   6.1010951   6.7675375  92.0616584   5.6825847
  29.3848394  99.5939498  49.1198462  30.2143931  99.9380784  48.7887019
  29.6305536  98.8136487  49.6168250  80.4747105  38.1932282  88.1576920
  80.3724480  39.1445088  88.1866932  81.4172649  38.0508971  88.2446957
  30.0386690 105.6831651  34.2084712  30.6229853 106.4190488  34.0260428
  30.2995466 105.0089507  33.5810870  69.2349518  23.4486299   5.1709193
  69.5125187  24.3270784   5.4307670  69.0160358  23.5313659   4.2427749
  10.9276365  99.6256165  26.4418620  10.2652430  99.6536450  27.1322841
  11.5025782  98.9019399  26.6907805  64.1669439  92.8936439  27.2792071
  64.0408205  91.9504456  27.1757812  63.6500238  93.2831626  26.5740127
  32.9102110  97.9142718   7.8290194  32.3133539  98.3914857   8.4054297
  32.5560068  97.0254807   7.8003425 108.6214079  82.2906022  19.2418021
 109.2752184  81.6102509  19.0809173 109.1160167  83.1096177  19.2133445
  43.5574806   8.7897211   5.3459567  42.7515686   9.3059974   5.3601092
  44.2568672   9.4393593   5.2748126  91.8213285  96.2663751   2.7155417
  91.5046371  96.1928372   3.6158389  91.1354936  96.7540936   2.2594756
  91.7054176  86.8308449  88.7984467  91.2323093  87.6628017  88.7825775
  91.0644722  86.1851215  88.5010052  21.4755402  51.6430426  89.8232937
  21.5476761  52.5245094  89.4571686  20.9947548  51.7624903  90.6423187
  31.7839884 104.9801497  36.4433879  31.5270304 104.1869359  36.9135016
  31.0853075 105.1162200  35.8034152  35.7962168  25.3865247   9.5432776
  35.7521475  25.1535040   8.6159247  36.7231310  25.3035455   9.7672957
  91.5301037  55.9697676  71.3162374  92.0495796  56.2349606  70.5572557
  90.6437588  55.8578825  70.9725618  36.5194786  24.9202638  19.2932242
  36.2441385  25.4326254  18.5330218  37.1504057  25.4812055  19.7443503
  48.7166678 101.1188858  82.8847122  49.4771277 100.6263631  82.5759220
  48.8381277 101.9975155  82.5248718   4.3418764  74.3069987   9.3105716
   3.8790678  75.0265460   8.8812751   5.2511858  74.4046609   9.0280074
  60.1897705  16.3177496  34.1479892  60.8423317  15.6370550  34.3124408
  59.6736896  15.9826570  33.4147758  18.1226420 106.6805606  34.0641707
  18.8816618 106.4864354  33.5142249  18.4271692 107.3653560  34.6596164
  57.3800062  97.3273616  42.7341098  56.9462084  98.1593375  42.9235190
  57.7874445  97.0755677  43.5628623  88.7295246  28.4901476  91.8561268
  89.5026684  28.5687804  92.4149704  89.0741062  28.2079506  91.0088634
  98.8616371  54.7858143  87.9201794  99.6062946  55.3857040  87.8771973
  98.9110565  54.2840052  87.1065521 105.1072086  83.9294724  17.4097747
 105.5017484  83.4467559  18.1361026 105.8455242  84.3613033  16.9800776
  57.6902759  21.5407186  10.9402961  57.5779236  20.6367498  11.2343139
  58.6265552  21.6183572  10.7570380  62.9380882  15.1470142   4.3141288
  63.7499416  14.6442323   4.3800372  62.5322712  14.8413759   3.5028762
   2.6162027 108.1321769  42.1145648   3.3138632 108.7586884  42.3068732
   2.6181959 108.0569367  41.1603278  63.6735714  26.1919218  16.2198848
  64.2591369  26.0841566  15.4704017  62.8052795  26.3001257  15.8318252
 102.8710808  94.1060381  31.6845912 102.2420992  94.6084719  32.2024459
 102.8466572  94.5121746  30.8181685  72.5562179  12.0498281  34.0654201
  72.3749817  12.0171028  33.1261081  72.8884685  12.9350429  34.2145556
   4.2046999  94.8162131  42.4332351   4.9432921  94.2809348  42.7234000
   3.8644194  94.3583255  41.6646117  53.5371673  13.8575512  23.6840838
  54.3175876  13.8620144  23.1298655  53.8731373  13.7197595  24.5697326
  38.1105589  82.1397452  25.7092494  38.7971853  82.3392825  26.3456267
  38.0269980  81.1866336  25.7380027   2.9411100  84.4874697  42.9934997
   2.8298258  84.6976881  42.0663280   2.9104399  85.3353362  43.4366912
  19.2402052  93.9819627  25.7951373  19.7207331  93.1726699  25.9694118
  19.4542860  94.5514803  26.5340919  92.0550884 100.4486566  12.2210235
  91.1971058 100.4726939  12.6447219  91.9553245 101.0021977  11.4465064
  17.0286821  98.3749442   9.5277518  16.4740061  97.7187543   9.1058845
  17.5507711  98.7417273   8.8142222  77.6430035  59.0274000  87.8369427
  77.5564384  58.3359098  87.1807575  77.2462416  58.6593819  88.6264896
  71.6522587   2.7939087   7.1826285  71.1856640   3.6024004   6.9708175
  71.0151756   2.0991235   7.0163840  20.1634382  91.7292933   1.5956420
  20.0291418  92.2928648   0.8336753  19.3313383  91.2683563   1.7022628
 110.5832828  42.6443593  31.1567229 111.5317024  42.6699071  31.0298938
 110.2373804  42.3422830  30.3168792 108.0049992   8.4863591  93.8075829
 107.1955585   8.1431192  93.4291363 108.4907341   8.8336563  93.0594635
  65.1607561  33.3099985  82.0097446  65.7464266  34.0300632  81.7757893
  64.4730711  33.7211108  82.5334930  28.8027132  29.4471937  27.1221847
  28.2584608  30.2286630  27.2187728  28.1942165  28.7164884  27.2318572
  95.6988811  37.9240632  92.9073429  96.3737869  38.0462861  93.5750198
  95.3944683  37.0257401  93.0361271  15.1173853 100.7200389  14.1476935
  14.2869639 101.1929326  14.0929526  15.7757925 101.3601594  13.8775367
  30.8784079  97.6274209  16.5537471  31.4416288  97.1136670  15.9749049
  29.9902796  97.3426251  16.3384360  43.1512058  12.1857458  32.2990722
  42.5552356  11.7603021  31.6825885  43.6595142  12.7925068  31.7608375
  14.9818396  75.2403216  11.1319369  14.1716360  75.6764965  11.3956565
  15.5790400  75.3796368  11.8669147  66.5983665   4.0115743  43.1856460
  65.7431305   4.1482025  42.7780646  66.7162025   3.0616623  43.1824702
  55.6965244  14.9769025  31.6008300  54.8935592  15.0590854  31.0863227
  55.3963840  14.9405723  32.5090331  78.3150757  14.9282222  26.4580459
  78.8848961  14.1971450  26.6969127  78.3757484  15.5311971  27.1989650
   9.7806334  88.8773422  10.2827090   9.3491816  88.9767461   9.4340629
  10.5361532  89.4633107  10.2373904  96.9444656  53.8850212  56.1886930
  97.6904678  54.3497229  56.5678596  96.7856979  54.3270731  55.3546572
  86.3392162  27.3968172  94.6650410  85.8539200  26.7471433  94.1564751
  86.0239315  28.2399750  94.3395996   5.9889387  92.9158072   8.4524268
   6.3635134  92.3000460   7.8225249   6.2596487  92.5790553   9.3065566
 101.8271065  18.5231686  79.0141153 102.3469543  19.3266284  78.9931679
 101.9996357  18.1487191  79.8779726  94.2774070  90.0698404   0.1422614
  94.5806516  90.9763007   0.1933116  93.9104093  89.8909383   1.0080165
 100.8074463   0.8050113  26.6922492 100.0382412   1.3410097  26.4992351
 100.7682503   0.0916391  26.0552234  21.8221354  92.1275406  11.7129439
  22.3402475  92.5369673  12.4058837  21.4634489  92.8627377  11.2158889
 113.3782291  39.8264384  71.7750788 112.7175331  39.1466880  71.9079161
 113.6102676  39.7572064  70.8490133 103.9897693  69.9966221   1.7449779
 104.5682872  70.4283218   1.1163444 104.0241541  69.0705388   1.5053576
 115.3841747  99.4277339  23.5202426 116.1904825  99.4680457  24.0345210
 115.1363004  98.5033135  23.5355395 111.9529213  89.2370872  44.7856158
 111.4381422  88.9270453  45.5306739 112.2621168  90.1029639  45.0518531
  79.7829426   9.2687326  37.1895999  79.7379864   8.3269697  37.3548049
  79.3071544   9.6631103  37.9205722  18.4485220  98.2297950   3.9528865
  18.1977724  98.8606791   3.2780951  18.7073874  97.4478011   3.4653300
   4.0231585  84.7196774   1.7557639   3.6294626  85.5840163   1.8747348
   3.4167456  84.2579250   1.1767215  50.6732058  89.8041778   9.3155307
  49.7758364  89.9287705   9.0066070  51.2196993  90.0470738   8.5681457
   5.7645760  54.7088146  88.9342117   5.0646744  55.1103258  89.4491577
   5.3091584  54.1398382  88.3136559  85.5626965  64.0750694  87.6715374
  85.5942440  64.6825504  86.9324875  84.6330070  63.8722420  87.7753448
  66.9638813   5.2047353  23.7896079  67.4966133   4.6221643  24.3309421
  66.7719543   4.6927219  23.0039615  66.1331547  32.4860578  10.2855987
  65.3683651  32.9169183   9.9039000  65.9591759  31.5508371  10.1791400
  97.8276634  61.7570972  72.9869747  98.7240028  61.8429327  72.6622486
  97.9196358  61.7285824  73.9393187  88.9470387  52.2404385  81.7938805
  89.4075298  51.6696310  82.4089909  88.7727928  53.0387592  82.2924328
  42.9173922 102.8057008   5.6817740  42.7880835 103.1860499   6.5505904
  43.7998175 102.4359612   5.7110995   2.1434378  92.5620966  28.1007308
   2.3573660  92.8879194  28.9749736   1.3346457  93.0174212  27.8667087
  31.2438559  56.8091351   2.8346938  31.7155432  56.4163450   2.1002120
  30.3549360  56.9414179   2.5052184  39.3804252  17.2472435  40.0782985
  39.9637544  17.1662479  40.8328837  39.1873205  18.1832033  40.0242156
   7.6642107  97.0335345  37.9277915   7.2894644  97.1644263  38.7988013
   8.5617804  96.7454915  38.0940455 113.7239326  90.0023107  20.2815551
 114.3628801  90.7131557  20.3333587 113.9981712  89.3839412  20.9587878
   2.4099516 101.9558148  13.9384574   1.6119980 102.2146325  14.3994445
   2.1241736 101.7885451  13.0403537  95.3346825  77.7055550  91.8727875
  96.1787891  77.5298357  91.4570427  94.7020149  77.2170353  91.3461876
  41.1174572  16.6853147  14.6070308  41.2565315  15.7505136  14.7588176
  40.5290258  16.9573694  15.3112811  11.8408274 100.7466321   1.1667747
  12.5230097 100.1171880   1.4005774  11.4796614 100.4141908   0.3450221
  73.0827606   4.8794037  15.6652755  73.6411369   4.9468570  14.8907393
  73.2218254   3.9875513  15.9838504  45.3304171  99.4781451  35.6612128
  45.6714415  98.5837989  35.6524867  46.1109232 100.0319104  35.6809539
   5.4933892  85.2382946  81.3323212   5.4114018  85.9771061  80.7292652
   5.5690537  85.6420803  82.1968842  39.1183828  97.8984075  32.8817862
  39.8653959  98.3677058  32.5103492  38.4777712  98.5827928  33.0753440
 109.3869591  38.1663632  83.7046242 109.0592384  38.0556989  82.8121090
 108.9430904  38.9506674  84.0272331 114.0407085  67.7539158  74.2081976
 113.9478874  68.6380959  73.8534546 113.3495617  67.2497845  73.7787819
   3.0559038  99.7652059  27.8412360   2.4314474  99.1618209  28.2439918
   3.2700705 100.3874783  28.5363215 116.0876846  95.5133057  89.0070629
 116.0181236  95.3179455  88.0726051 116.7248631  94.8799610  89.3373871
  20.1433825 105.0507264  15.3012866  19.6985983 105.8670382  15.0731677
  19.7805666 104.8104386  16.1538428 106.0992336  67.8098106  78.1914854
 106.6662502  68.3257818  77.6183414 106.4570332  66.9230986  78.1472015
  36.3803553  87.8731518   6.1656875  37.2978376  87.6004963   6.1549205
  35.9413981  87.2601848   5.5759353  70.6795204  16.4691835  34.4817466
  71.5063179  16.0635286  34.2208117  70.8311832  16.7663437  35.3789252
  67.7492988  17.3504501  39.1849059  67.1233642  18.0570703  39.3434161
  68.5777843  17.6822525  39.5309752 109.6917629  83.0852985  60.3506947
 110.6186771  83.1928635  60.5640030 109.5638847  83.6156082  59.5641518
  29.6753382 105.7463698  27.5198001  29.4866728 106.4551597  26.9047755
  29.2351984 106.0076146  28.3286590   7.6686917  36.1735344  91.1444283
   7.4756585  35.3864479  91.6538048   7.3063717  35.9924030  90.2771568
  43.9049328  14.4290405   2.2046679  44.4783390  15.1205307   2.5352210
  43.1136120  14.4983774   2.7387351  95.5816639   5.2716070   0.4514045
  96.0870636   5.4280668  -0.3462869  95.6813324   4.3343216   0.6181258
  71.4570797   6.3316923  37.5449676  70.7767380   6.6672760  36.9612330
  72.2385681   6.8348461  37.3161620  27.7004013  54.2409325  91.5250874
  27.6923333  53.3058929  91.3204575  28.5296593  54.5573950  91.1667347
  16.9206690  75.1492481  13.1096000  17.6699804  75.6397729  13.4474677
  16.9722723  74.3004100  13.5489673  18.3862757 107.1544223  25.6805438
  18.9244246 106.4390044  26.0193652  17.8074812 106.7372756  25.0424022
 113.0638183 109.0779691  16.5099353 113.5330213 109.3388371  15.7174510
 113.7480177 108.9803700  17.1721858  39.7130716  28.3300596  31.9697970
  40.4295719  27.9940324  31.4313239  38.9730728  27.7573114  31.7683047
  39.8772991  16.0753542  23.5009307  39.2178524  15.4622560  23.1761664
  39.7301424  16.8750768  22.9959315 107.7695560  58.9288235  84.5311165
 107.4801254  58.0379581  84.7281361 107.6128101  59.0294456  83.5922146
  10.2233290  89.8981695  17.7017039  10.2204870  90.7911019  18.0465144
  10.6870245  89.9652224  16.8670100  97.9708255  91.9179563   1.1856097
  97.7498640  91.5192919   2.0273227  98.2570423  92.8038816   1.4079780
 102.8206062  68.1174040  90.0177193 102.2706604  68.8279343  89.6876621
 102.2745991  67.3352289  89.9382782  16.9272207  84.6060710  29.7157401
  16.3400339  83.9623718  29.3193931  16.9511675  84.3694739  30.6429309
  32.8808474  72.1412842   9.7571105  32.1206736  72.7149324   9.6607036
  33.4860395  72.6364033  10.3092212  29.7001732  11.8877798   9.6635264
  29.5174301  12.4428850   8.9054412  29.1130007  11.1390548   9.5592422
  87.2870350  49.9030590  93.3664989  86.7915726  50.6490946  93.7044048
  88.1900215  50.2170229  93.3188629  18.9302004  20.2711254  18.5564822
  18.1674898  20.0783783  18.0111808  19.6095360  20.5318266  17.9345721
  67.5192726  15.4850774  30.8549136  68.2596767  15.2367979  31.4084357
  67.8382957  15.3655964  29.9603957  33.2000040  92.4137740  22.3954219
  32.7283739  91.9084816  21.7332381  33.9155459  91.8401890  22.6696986
  87.0106506  47.5602388  86.9657993  86.8483829  48.0325842  87.7823734
  86.7869091  46.6514063  87.1662903  65.3299988  26.1182790  13.8739127
  65.6731403  25.3189378  13.4744758  65.4180515  26.7838293  13.1916255
  23.0878996 104.0084510  17.6186580  23.3490061 103.1693749  17.9981441
  22.6659369 104.4762855  18.3392829 107.1921921  11.1819196  94.5408535
 107.1288872  10.7763696  95.4055786 106.7832947  10.5500376  93.9494419
  54.0678585  34.1730314  32.6454371  54.1139782  33.4603506  32.0081061
  53.6556995  33.7800413  33.4147948  59.6592987   6.8611293  36.9359893
  59.8349273   5.9543997  37.1874541  59.0888870   7.1954446  37.6281566
  56.6666019  33.3601385  23.3746165  56.2684620  33.1815534  24.2265719
  57.4502647  32.8108030  23.3565921  18.8939833  94.6405630  40.9247035
  18.7317728  94.6100001  41.8675631  19.4900488  95.3803830  40.8080787
  60.7372236  33.5122585  89.3558979  59.9449492  33.1928110  89.7877407
  60.6214380  34.4615412  89.3148041 111.5504932  65.5089664  94.2169476
 112.2915649  65.0759077  94.6406269 111.1797237  64.8403835  93.6409569
 109.9329437 108.5692363  39.2563266 110.4557956 107.8522735  38.8974017
 110.1643623 109.3267922  38.7189311  40.3394258  32.1836096  16.4840430
  40.8919466  31.5014749  16.8656844  39.7517002  31.7129808  15.8930129
 104.7741222  61.6408873  67.8349686 105.2698994  61.0792398  68.4307814
 105.0675678  62.5280857  68.0423260  88.8661671  65.9485865  64.3547678
  88.7424374  65.0595045  64.0224171  88.5848045  65.9040022  65.2685928
  37.1004747  95.9387689  27.7903670  37.9601168  96.1625724  28.1469840
  37.1824717  96.0977797  26.8500442   5.8396410  97.3650794   8.2075137
   6.1037611  97.7944570   9.0212077   5.2481340  97.9898982   7.7880496
   2.0261025 109.8382668  12.8759116   2.2052549 108.9078336  13.0116385
   1.2186932 110.0003772  13.3638019  94.2470920  24.8119598  41.7674941
  94.2026603  25.2416616  42.6216716  93.7917316  23.9795929  41.8941421
  81.2516785  70.6230307  67.6876783  80.3635693  70.4402733  67.3809433
  81.2004089  71.5039062  68.0587053   9.0932141  42.7426100  84.9860287
   9.1526184  43.1265259  85.8608532   9.6056710  43.3305883  84.4311428
 114.7166790 102.8912263  20.9786529 115.6081642 102.8508716  20.6324405
 114.1608537 102.9560046  20.2020663  73.0570400  14.9686151  20.9773845
  72.1499527  14.8247295  21.2470550  73.5285652  14.2025572  21.3045615
  42.9086864   7.1721273  15.3682155  42.0731628   6.7062336  15.4008216
  42.8724468   7.6721483  14.5528048  50.2464664  17.3359066  36.6679687
  50.7969272  16.5600639  36.5617103  49.8431957  17.4629026  35.8092040
 115.0977005 102.4757771  47.7712840 115.9538854 102.5485663  48.1930465
 115.1662363 101.6937833  47.2235412  71.0183609   5.8483082  47.7007693
  71.5010822   6.1541753  46.9328803  71.6040027   6.0236412  48.4373206
  78.8933361   4.5467048  28.5829085  79.5365608   3.8424831  28.5019034
  78.4014881   4.3318372  29.3754691  43.1073940  30.2372938  30.1513404
  43.2014072  30.5717664  29.2594260  42.6155556  30.9173685  30.6115741
  40.0001705  30.1352220  36.3601798  40.5867279  30.1480489  35.6038589
  40.5315817  29.7732931  37.0692939  12.8164553 100.3334098  23.9363116
  13.4622644  99.6951871  23.6332721  11.9709086  99.9219470  23.7574786
  48.1336963  14.5483785  24.5431632  47.9038894  14.7657495  23.6397380
  49.0579880  14.7854000  24.6188468   5.1048349  87.0659666  25.4357642
   4.5870756  87.7149372  25.9122104   4.8987555  86.2345891  25.8630580
 107.5087929  16.5920198  94.3810081 107.0757294  15.7422328  94.4619465
 106.8270588  17.1778917  94.0520287   1.9649659  63.8049841  92.1081734
   1.4638386  63.6018419  91.3183498   2.2789536  62.9553890  92.4177361
  88.7428284  64.3034935  73.6706066  88.1440067  64.3311119  74.4168568
  88.3428001  64.8816156  73.0210018  97.2921467  54.5776987  93.9140606
  96.9949245  53.7612438  93.5124397  97.3671627  55.1908636  93.1828690
  98.8242531  53.4787750  85.6594086  99.1038418  52.5879955  85.4482841
  98.6072350  53.8687325  84.8126030  39.8244131  28.9344412  42.9262752
  40.1391876  28.0731588  43.2007617  38.8735473  28.8842874  43.0240935
  46.7445648  31.8149858  32.2011298  46.5023601  31.7258459  31.2793845
  46.1440075  31.2308889  32.6641578  91.6347885  44.9475718  81.8612099
  92.4472046  44.4619846  82.0040512  90.9435844  44.2933130  81.9633102
  68.6480045  72.9500484  85.3273201  67.7661753  72.5920343  85.2251530
  68.6218500  73.7871265  84.8638058  13.8811373  98.6401896  12.6020259
  14.3296312  99.1715436  13.2598609  13.9260267  97.7473311  12.9440993
  41.2461065 105.5406766  47.2813910  40.4697298 105.6017356  47.8379363
  41.9725012 105.4301887  47.8948897 109.1071033  42.0651293  82.2158241
 109.6034241  41.9281340  83.0227470 108.9538193  43.0095196  82.1863270
  69.2249859   9.9045902  27.1765918  69.9579513   9.9154144  26.5610713
  69.0764034  10.8261734  27.3883361  16.2850355 100.9751801  21.4816493
  15.7949137 100.1772456  21.2833804  16.5569376 101.3079982  20.6263465
  82.4748886   0.6992679   6.2002677  82.4931896   0.2724796   5.3436774
  82.8793037   0.0652366   6.7924518 103.2717514  37.7426982  92.5321770
 104.0020370  38.0707908  92.0075130 102.6655960  37.3696470  91.8921471
  38.5851931 101.4785724   1.1613482  38.8936400 102.0338349   1.8774337
  38.1537508 102.0835357   0.5579394  98.7550068  95.7323551  89.7506142
  99.2024136  96.3027191  89.1255188  98.3042526  96.3336849  90.3434372
  87.9876804  64.8842192  79.0139055  87.3447514  64.5607233  79.6449518
  88.6949253  65.2386045  79.5528364  60.2388083  97.3242759  80.1007271
  61.1164461  96.9521701  80.0140572  59.6729266  96.5687525  80.2594852
   0.6201719  33.4921079   2.1881312   0.6057142  32.5886135   2.5039119
   0.8864712  33.4212022   1.2714499  86.6555595   5.9602261  85.0789833
  86.4823151   6.7723233  85.5551243  87.2551155   6.2166655  84.3782711
  62.3388565   1.2978607  23.5800475  63.0484092   0.8233839  23.1468696
  61.5567005   0.7765823  23.3991069  78.8338614   5.7969910  80.6030655
  79.6444654   5.3498405  80.3597355  78.8525152   6.6143835  80.1053238
  91.5705646  65.8287661   2.8878135  91.0703386  66.0847454   2.1129054
  92.3108591  66.4352803   2.9061336   4.8090529  35.0599174  15.4926700
   4.3174433  35.2074771  14.6847266   5.4779505  35.7446079  15.4944819
   3.4049200  51.1386819  17.4401111   2.4501585  51.1866768  17.3915881
   3.6904501  52.0522468  17.4502391  23.3939146  63.4902595  23.5017127
  23.3870482  64.3271654  23.0371970  23.3299421  62.8318183  22.8099078
 103.7848759  19.5865369  84.5764256 103.7829399  20.3187656  83.9599323
 103.8489151  19.9988973  85.4378700  17.2548651  50.6798919  24.6914882
  18.1547617  50.4269217  24.8974627  17.3312639  51.2143524  23.9010734
   2.2797703  43.5744004   5.2724570   2.8788256  43.8689964   5.9584445
   2.5364470  44.0760140   4.4986838   6.7862677  73.8787990  18.6658019
   7.0380282  74.1228275  19.5564765   7.5880980  73.9823346  18.1533832
  99.7887911  41.1021583  15.9886664  99.4186128  40.6518786  15.2294177
 100.7074608  40.8336334  16.0019607 100.1282597   8.0979359  70.8352852
 100.9145164   8.5707796  70.5624104 100.3390694   7.7662408  71.7080784
   8.8166784  51.7123540  12.8496665   9.6483397  51.7116575  13.3235568
   8.5374998  50.7967840  12.8544826  72.0345211   7.2720617  70.4504919
  72.2089720   6.4672238  69.9626017  72.8757334   7.4989700  70.8468628
  64.6540689  24.8160148  84.8122692  64.9801874  25.3728437  85.5192471
  63.7352991  25.0661898  84.7147655 101.0868073   0.2452946  92.4541569
 100.7661343  -0.6539819  92.5227070 100.9890366   0.6023814  93.3368587
   4.9193548  62.1769075  10.8448047   4.4389319  62.7582412  11.4342708
   4.2638849  61.8817006  10.2127856  93.3728790  18.7888861  87.8196621
  94.0657234  19.3725836  88.1287003  93.5753155  18.6452746  86.8952084
  25.3694986  66.7791669   8.7387866  24.8570036  67.2768836   8.1017226
  25.2130293  67.2237866   9.5718974  80.5593109  10.7900107  81.6223335
  80.7444000  10.2364302  80.8636951  79.6038103  10.8134294  81.6743279
  79.7807264   0.3588688  81.6490936  80.2186203  -0.4311958  81.9657612
  80.4787827   1.0107987  81.5863514  91.1099542  78.0542688  10.9559649
  91.2510265  77.8997378  10.0219077  91.3526787  78.9709477  11.0864085
  32.4585139 106.8559679  61.9794273  33.2415997 107.3107078  62.2896147
  32.2843062 107.2384345  61.1194277 108.4982027  70.1324301  10.8283919
 107.6553358  70.5858939  10.8417815 108.3431162  69.3544095  10.2927894
  97.6800919  30.1423502  74.5684290  97.5876522  29.3976164  75.1626205
  97.7164364  29.7497678  73.6961985  52.1328901  53.4029565   2.5358600
  52.5416540  53.0959286   3.3451003  52.4047445  52.7671266   1.8740100
  80.5237865   2.1887946  74.9574900  80.1005554   1.3970906  74.6253586
  80.7882595   2.6667485  74.1714573  11.6079592  91.9934754  21.0438174
  11.1301588  92.0014601  21.8732089  11.0349726  92.4567704  20.4328555
  20.1837908 101.6834944  88.4431267  20.5986296 102.4942529  88.1484890
  19.2448984 101.8530493  88.3658791  55.9955072  28.4956360  79.2376757
  56.3797379  29.1945124  79.7669888  55.0851202  28.4471965  79.5293570
 101.3688647  97.8031861  66.7266464 101.1017691  97.7827215  67.6456022
 102.2423350  97.4117088  66.7223167   4.0121244  88.1902485  39.8067683
   4.8417353  88.6041121  39.5686549   3.5228800  88.8773589  40.2592677
  78.8727951   8.9613789  85.9314346  78.8600016   8.9950269  84.9749088
  78.0820608   8.4749490  86.1645794 114.7047580  33.5937934  29.8984736
 115.2651800  32.8184419  29.8670691 114.6663440  33.8241081  30.8267611
  15.0434565  85.7458429  27.3710937  15.3166174  85.1090412  28.0314750
  14.0946650  85.8112960  27.4795073  81.2603951  24.6497440  58.1957102
  81.3650513  25.5975199  58.1120300  80.4596901  24.5415783  58.7089300
  72.3046303  12.5154173  90.7334328  71.8010807  11.7888379  90.3663540
  71.8168259  12.7739739  91.5153694  73.4830236   0.8853399  62.9618216
  72.7247047   1.3959450  62.6781607  73.1308126   0.0139446  63.1430626
 103.7268556  68.5664885  15.1594562 103.8838686  67.6384358  14.9853915
 103.2301677  68.8718705  14.4003219 114.3268026  56.6678560  15.5386943
 114.2553009  57.5222941  15.9642047 114.0745748  56.0408619  16.2165565
  71.0802031  29.6739316  36.9107723  71.7878008  30.2811027  36.6942406
  71.4247608  29.1536427  37.6365900 108.6210884  74.4416134  22.1678752
 108.5916914  73.4863620  22.2213859 109.1501869  74.6217959  21.3908118
  11.7719244  81.5359478  33.3366412  12.1075224  81.7344527  34.2108268
  11.1774706  80.7977037  33.4702319  71.4153051   6.7917216  66.4194536
  71.2515831   6.0530460  65.8331203  71.9825554   6.4341563  67.1025372
 100.9027195  20.2735376  86.9800186 101.8593311  20.2410436  86.9884968
 100.6817055  20.5944157  86.1056995 105.5543900   9.2606670  58.2543564
 104.6518517   9.1406816  57.9589510 105.4881859   9.8800868  58.9811087
  63.6546469  13.2102168  63.9909601  64.3566942  13.2273924  64.6413946
  63.7467575  14.0368557  63.5172367  41.1490570 103.9133286  79.0147686
  41.1139094 104.8619237  78.8916302  41.3288485 103.7994521  79.9480104
  55.9146309  32.4736381  77.7050018  56.1571741  32.7121234  78.5997248
  56.3578129  33.1206346  77.1561718  12.9448353 105.0713035  50.6982565
  13.6900603 105.4626631  50.2425051  12.5490700 104.4865310  50.0520039
 114.5546783  72.0537775  10.1661891 113.7086738  72.1198456  10.6090754
 114.4110597  71.4129798   9.4697875  69.3778419  16.9048572  83.0258274
  69.8067951  17.7476311  83.1740379  69.1918039  16.8926251  82.0869637
  92.7258171  67.4029236  14.7043532  92.6039232  67.1110504  15.6077785
  92.4945749  68.3316498  14.7194308  32.1689974 105.2680042  73.8872480
  32.1578013 106.1723202  73.5736895  32.7645193 105.2816524  74.6365118
  14.3030619  89.1891460  14.1840285  14.6023344  89.9251299  13.6501807
  13.9223360  88.5762291  13.5550612  72.3793983  20.9385777  80.3036404
  71.5403318  21.3530779  80.1026726  72.1501923  20.0445485  80.5574322
  95.2258968   2.0922378  60.1529074  95.2852821   1.1815057  59.8643351
  94.2860699   2.2656916  60.2065563  64.0245724   2.7120712  81.7387676
  64.0392971   1.9976246  82.3756218  64.9346352   3.0038536  81.6850662
 109.8650837  14.9933052  90.3173733 109.9934769  15.4938281  91.1231136
 109.3497276  14.2331409  90.5871677  85.9569263  17.1478117  80.6414604
  86.3458920  18.0223680  80.6323624  85.1240921  17.2512937  80.1811123
  23.8976645  79.9718528  16.3572806  24.2166113  80.5209475  17.0735187
  24.6186709  79.3680172  16.1790484  95.3166546  74.1357546  23.5761088
  95.8468403  74.2500918  24.3648261  95.3696979  74.9796228  23.1274432
  20.4375815 100.1032262  43.2370681  20.2923178  99.4878869  42.5183982
  19.6446585 100.6390195  43.2576007  61.7622757  28.9123321  82.8271580
  61.9077253  29.8485470  82.9634666  62.3223591  28.6886597  82.0838451
  19.6612619  48.5724609  43.5179919  20.0547575  47.8180479  43.0795211
  20.4075121  49.0982060  43.8059825  90.8370590  33.1596136  63.2893133
  91.2492275  33.4117150  64.1156244  90.1828575  32.5064087  63.5374641
 101.6149998  14.7476530  79.1329336 102.4386692  15.1164722  79.4519567
 101.1416435  14.4969809  79.9262381  18.7903343 109.6074126  85.2387238
  18.5437714 109.5512333  86.1619186  18.8496767 108.6964721  84.9508095
  71.5230179   8.1230217  81.1644745  71.3330555   7.2182924  81.4126873
  71.2111616   8.1943923  80.2623177  51.8561459  20.9047413  85.5356026
  52.0648146  20.3603101  86.2947369  51.3623857  21.6407442  85.8971691
  95.1472092  12.5714612  50.5717421  95.8532238  12.3228478  49.9751139
  94.8452759  11.7428994  50.9439659  48.5474573  83.6312866  74.3183661
  49.0900503  84.3555617  74.6302128  47.7747141  84.0546679  73.9443970
  80.1630878  13.7256658  92.4623394  80.7413483  14.0077055  93.1710815
  80.6808949  13.8499284  91.6669369  90.6400299  38.2984090  90.5451775
  89.9032784  38.2658648  89.9349594  91.1751175  39.0293312  90.2358627
  31.0497831  92.5299172   1.6450900  31.2693190  93.2611351   2.2224635
  31.8505358  92.0069509   1.6058558   6.1451506  51.6574078  26.8982524
   5.6599211  50.9769409  27.3648852   5.4833483  52.3107015  26.6714305
  44.2257929 108.9695887  14.6601504  44.4350433 108.4314970  15.4236239
  44.1026878 108.3399109  13.9498061 104.8983492  73.9420693   1.4252871
 104.5758022  74.8325067   1.2862891 105.8011831  74.0578632   1.7214412
  99.9672474  74.6105056  17.5118274  99.8869480  75.3263574  18.1421775
 100.7022680  74.8642294  16.9536132  74.6501923  22.5307798  39.4127917
  75.0060177  22.2988534  38.5549831  75.2073193  23.2470179  39.7175002
 114.7579002   2.4094674  82.3269558 113.9006519   2.0689696  82.5827217
 115.2083874   2.5712606  83.1558800  13.6025976  50.6939210   8.0516261
  14.0918993  50.8740644   8.8543529  13.4926294  51.5513696   7.6406306
  83.4677982   8.0080968  88.6092567  83.0546951   7.9270768  87.7495956
  82.9191113   8.6350542  89.0805244  29.1802728   0.5316740  27.4300212
  28.3757484   0.0195270  27.5117511  29.2605627   0.7034736  26.4917964
   7.4766230  97.1049457  12.9069156   8.0640577  96.3505082  12.8624267
   8.0174994  97.8088670  13.2649249   5.2267514  15.8102739  81.0799503
   4.7858487  15.1523960  80.5423260   5.4101525  15.3614092  81.9052410
  90.0206852  43.2457590  59.1899967  89.4549561  43.9019012  58.7829733
  89.7846317  42.4248505  58.7579966  28.7580465  94.6983771   0.2881354
  29.5582747  95.1113419  -0.0363999  28.0520891  95.1409059  -0.1830464
  26.4877009  54.3073360   1.8774718  26.9601320  54.2293954   2.7063006
  25.6036161  53.9986013   2.0757503  43.5885036  29.6080785  51.4102382
  44.1990078  29.3595796  50.7161445  43.7382496  30.5449777  51.5368289
 105.9447111  66.2307017  24.3532485 105.4531254  65.6575065  23.7650126
 106.0349334  67.0509987  23.8682670 106.7460632  23.0711627  85.5322456
 107.1546364  22.2277856  85.3372765 106.7159176  23.1073856  86.4882851
   3.3466219  77.2024469   5.7922381   4.0996908  77.7610569   5.9847754
   2.6087927  77.8088455   5.7280272 106.4401722  23.1174231  73.2328939
 106.6974354  22.7136278  72.4040413 105.7022381  22.5894213  73.5376835
  95.1624168  56.4065272  18.7103576  95.3991808  57.2104515  18.2478827
  95.8745683  55.7981264  18.5130805  95.6700325  36.4675212  72.8283310
  95.7038975  35.5201268  72.6959276  95.2184963  36.5764046  73.6652803
  94.1507816  13.5918880  81.8907452  94.1289330  12.6458752  82.0350075
  93.5728645  13.9503098  82.5643730 102.1361065  29.4323301  90.6438732
 102.6908493  30.1938725  90.4749012 102.4648952  28.7595010  90.0476933
  24.8431193  95.9759390  75.8628654  24.2025124  95.2939462  76.0647154
  24.4040476  96.7937290  76.0966730  97.2117329   8.4879798  86.1076736
  97.8925037   7.9714042  85.6764698  97.4923801   9.3960905  85.9945297
  90.2048588  18.6537027  66.9021273  90.0523949  19.3670404  67.5219154
  90.8063126  18.0648530  67.3579121  32.1661829  83.4128790   3.5588664
  31.5360712  83.5491495   4.2664165  31.8166708  82.6700430   3.0666656
  86.2069321   2.9119802  79.5342779  86.4379692   3.8360018  79.4392014
  85.3626347   2.9213625  79.9851656  92.1267986   1.3712376  94.0395737
  92.5942135   1.8629093  93.3642864  91.5546227   2.0173952  94.4534874
  18.1180452  69.5321434  21.2890548  18.5933184  69.0547495  20.6090182
  17.2642492  69.1015260  21.3317698   0.8107876  79.0427570   4.5850200
   0.5795549  78.1274729   4.7431964   0.3089308  79.5326071   5.2364940
  95.2056946  79.0326815   4.4411868  95.1643718  79.4734459   5.2898616
  96.1370720  78.8566689   4.3078059   5.8051739   1.9401003  55.4654408
   5.2497349   1.5048406  56.1121845   5.2309571   2.0810619  54.7126865
  79.9554110   8.6356902  77.2452974  80.3807068   8.6676210  76.3883591
  79.5122433   7.7874124  77.2612810  47.3603331  78.2186174  89.1749096
  48.2063090  78.5039448  89.5200920  47.0384489  77.5890159  89.8200607
  29.9501013  88.6339884  16.8374843  30.9015440  88.6329179  16.7326945
  29.8070120  88.3172302  17.7293509 111.6905212  23.5425282  83.5327053
 111.3028145  22.9938293  84.2144966 111.1633682  24.3414617  83.5396481
  81.1123909  93.5840611  26.3723010  80.5193866  93.0048661  25.8936423
  80.5337251  94.1508679  26.8823165 102.9161453  22.3881388  70.9335136
 103.2657242  23.1970215  71.3073254 102.9591751  21.7549634  71.6500807
 111.7514896  27.7228951  72.4426937 112.5961876  27.5596523  72.8623056
 111.6107464  26.9594860  71.8826675  79.4545889  17.3659170  88.6498642
  79.8722410  16.6080582  88.2406712  79.5834541  17.2324145  89.5889091
  75.0768137  37.1830964  87.3109436  75.0606108  38.0196023  87.7759457
  75.8884048  37.2065568  86.8039989  13.4531950  78.6057501  46.9578570
  13.2119059  78.5227566  47.8804130  12.6232504  78.5363941  46.4860457
  67.2214401  18.5792309  29.8385924  66.3444126  18.5346037  29.4577140
  67.4154270  17.6788812  30.0993175  63.6238480   2.2129190  76.2631321
  64.0550661   1.6226345  75.6451941  64.1294050   3.0241120  76.2120438
   9.0333437 107.6884370  14.9921245   9.4525026 107.0892673  14.3744391
   9.7606730 108.1523852  15.4068107  86.7141819  47.4763012  93.6649704
  86.8029308  48.4079409  93.4639645  86.9941139  47.0310068  92.8652382
  80.6781387  27.1128368  91.2148190  80.9056664  27.1750331  90.2871418
  80.8678055  27.9825401  91.5667820  61.4893770  28.8262272  93.2656002
  61.5509319  29.2538619  94.1197491  61.1290979  27.9602551  93.4567070
 113.2679475  86.5800338   4.9118060 113.8936866  85.9358005   5.2429313
 113.8113273  87.2526603   4.5012588  65.3894997   6.3869059  85.2643108
  64.7405577   7.0333123  84.9863434  64.8975754   5.5688435  85.3351498
  24.8583542  81.8642377  87.5046349  24.0819441  82.1157932  87.0044994
  24.5162426  81.3478851  88.2344151 116.2936687  26.2214708  92.2139645
 115.8546066  25.4470134  92.5656319 116.8769264  26.5062833  92.9174805
  24.4661879 101.2063889  23.5290450  23.9114164 100.4396777  23.6725921
  24.2236113 101.5176635  22.6569766  10.0783991  71.3234704  25.2843112
  10.3180670  72.1962171  25.5959243   9.9056028  71.4417224  24.3502921
 112.6770748 107.4421983  20.0332946 112.1643175 107.9816537  20.6352061
 113.5265650 107.3446469  20.4635066   9.1619658  83.4323029   4.1999835
   8.2228064  83.6167197   4.1857165   9.2395948  82.5554018   3.8241500
  89.6721745  55.3402185  78.9045763  90.3655815  55.8532810  78.4896135
  90.1375389  54.6938944  79.4355536  73.9302051  16.5545517   4.4709224
  73.0535782  16.8353754   4.2084617  73.8168419  15.6464105   4.7513885
  63.8314318 100.1762872  33.6958617  63.3604788 100.3650432  32.8841895
  63.2312845 100.4489093  34.3899363  19.6353029  58.8921191   7.8603095
  18.9828466  58.1930386   7.9030723  19.1545462  59.6481373   7.5233382
  20.3405451  85.2104526   5.0215262  21.0532927  85.7644038   4.7031516
  19.8586153  85.7678275   5.6325168 115.3559126  96.9028144   9.6439666
 115.8108057  96.5130000  10.3905219 116.0165085  96.9367604   8.9520854
 114.0780224  79.0007191   5.2656573 114.6117319  79.7223883   5.5981940
 113.1795801  79.3282967   5.3072947   2.6227640  92.8269653  11.7437762
   2.6461100  92.7417521  10.7906646   3.3852934  92.3342042  12.0470447
  53.6615359 107.7125276  68.8160133  53.1067168 107.1128547  69.3148088
  53.1893526 108.5450038  68.8319969  42.2786593 102.2801404  39.4190616
  41.8860888 102.4197440  40.2808303  41.9949698 101.4016347  39.1661185
  26.0624479  88.2284646  12.1426219  25.2808928  88.5286384  12.6066131
  26.2766718  88.9453320  11.5455932 108.6254120  34.8559380  90.2165413
 108.7382698  35.7893515  90.0370121 108.7035847  34.7838402  91.1678219
  39.8782002  87.7740120  79.9066114  39.9956452  86.8364882  80.0598717
  40.5315863  87.9917335  79.2418432  38.3388363  93.0706322  56.3624191
  38.0960547  92.2945320  56.8673515  37.5635563  93.2661747  55.8361673
  71.3988495  39.0530229  87.1624660  70.9487009  39.6947742  86.6131496
  72.2338390  39.4675040  87.3797989  97.2217751   5.6445396  89.0336609
  97.7457333   5.5708641  89.8313236  96.8471718   6.5244889  89.0735817
  59.6812820  24.3009281  82.8067303  59.7403383  23.8148284  83.6291885
  60.5851126  24.5449615  82.6073074  71.6700792  12.7087080  93.2543373
  70.8470631  12.2991383  93.5210323  72.0716429  12.9956031  94.0744972
  62.5408506  23.8956928  80.1696873  63.2711363  24.5101810  80.2425957
  62.5495672  23.4140897  80.9968567  84.3978119  36.4170051  93.8601685
  84.7761154  37.2637987  93.6233997  83.6541748  36.3125181  93.2666111
  41.9675230  67.1177070   5.4826373  41.3296675  66.5704231   5.0245494
  41.5206503  67.9553585   5.6046027  98.6106777  32.4739528  91.0164452
  99.2631721  33.1065369  90.7159138  98.8542080  32.2915077  91.9239902
   0.2803682  76.7804151  17.3822326  -0.3887583  76.1680584  17.0764274
   1.0883211  76.4796596  16.9663161 103.5703577  89.9703007  17.1451110
 103.7951387  89.6070914  16.2884921 102.6777900  90.2993851  17.0389956
 114.0319265  73.8981681  37.1281833 113.4552206  73.4269671  37.7295226
 114.8571552  73.4141426  37.1590823  13.6590920  44.7266436  82.0178890
  12.9654560  44.1386080  81.7190361  14.1341172  44.9613476  81.2207127
  29.2293524 109.2351632   0.3434962  28.4298395 109.3458085  -0.1710492
  29.4154047 108.2973056   0.2982825  30.0016665  83.5197215  25.9134788
  29.3950247  83.4789710  25.1741809  30.7711004  83.0323462  25.6190890
  74.9891472   5.1205373  87.9805374  74.5808172   4.5187417  88.6029053
  75.6947708   5.5356592  88.4765244  90.1512432   3.0494124  94.8649883
  89.4694614   3.3638507  95.4587364  89.6772671   2.5543913  94.1967583
  16.8667279   5.2043098  82.1692085  16.8689785   5.5817914  83.0488396
  17.3304425   4.3723649  82.2644138  70.7229471  57.7481413  57.9738140
  70.8294916  56.8018293  58.0706263  71.1553860  58.1178474  58.7435865
  98.9433826  89.6371512  38.0798930  99.2789854  90.3176432  38.6634463
  99.6683801  89.0184288  37.9915828  89.4780983  91.7465763  14.5362395
  90.1641859  91.4944439  15.1542682  89.2047704  90.9227900  14.1326350
  73.5703897  26.2304640  86.2582302  73.4895897  25.7669687  87.0918179
  72.7085114  26.1431074  85.8510876  94.9755634  84.6000819   6.2282390
  94.8817981  83.6802320   6.4758605  94.9577917  84.5934968   5.2712268
  86.2296104  10.5967951  37.2259212  86.8019962  10.6994915  37.9862189
  86.7864037  10.8083630  36.4766216   7.6200365  86.0760932   2.0208854
   7.3711466  85.2990704   1.5203685   8.5748934  86.1043386   1.9602603
  25.1412653  70.9510188  22.3173827  24.7812056  70.6476097  21.4839953
  25.9603857  71.3858180  22.0802707  74.2712485 102.6299780  92.3509026
  74.8042666 102.3908227  93.1091404  74.7732722 103.3168697  91.9122887
  80.3373814  40.8306789  88.1617641  81.1410141  41.0818672  87.7064514
  80.1280308  41.5853500  88.7121105  83.7634277  27.0720649  78.9834452
  83.1783485  27.5193930  79.5948410  83.2126331  26.4099121  78.5658312
  97.2985649  24.0048361  79.8306799  98.2318020  23.8452744  79.9715948
  97.0723534  23.4556699  79.0800285 111.2724508  56.3016032   1.7851180
 111.0391153  57.2123848   1.6054934 110.7132448  55.7911289   1.1995143
  26.9729685  91.2983327  18.4321326  26.8202566  90.3535633  18.4141749
  27.1008562  91.5377789  17.5142402  38.7503086 102.4862968  80.8367443
  39.1850935 101.8330210  81.3848591  38.5162340 102.0120560  80.0389099
  27.0537148  60.1881695  91.7721272  26.6696797  59.9802113  92.6238918
  27.9256688  60.5249310  91.9783211  94.8435783  47.7375221  59.6674681
  94.8747063  46.9420481  59.1359711  95.7008266  48.1440496  59.5405722
 105.2383041   1.4684141  61.7769718 105.8905411   1.7041007  61.1172199
 104.8417854   0.6630308  61.4447546  39.0028035  88.3072185  85.3146839
  38.8908659  87.6115703  85.9625912  39.0624176  89.1098141  85.8328819
  97.4319172  37.7833366  84.3650818  96.7806816  38.4372067  84.1109467
  98.2441807  38.2800484  84.4637489   1.3768457 101.9661670   6.9661635
   1.2100100 101.5021520   6.1457461   1.5562796 102.8677087   6.6992206
  40.0731360  87.9710173  82.9121494  40.1651036  88.7496733  82.3630905
  39.7578989  88.3057927  83.7516594 110.3416348   1.3715601  86.4264584
 110.3330517   2.2860093  86.7091942 111.0303116   0.9647433  86.9522476
   8.5192465  98.7445693  28.3243579   8.6087774  97.8087954  28.1439609
   7.6950430  98.9915614  27.9049415  62.7479601   6.1031681  92.9407883
  62.2517443   6.9087505  93.0858326  62.7002048   5.6387103  93.7763882
  93.1216526   6.0013318  66.8784618  92.8893375   5.1576269  66.4906168
  93.0822659   6.6194075  66.1486244  35.4109549  76.6763549   5.0022143
  35.6051706  76.6819673   5.9394855  34.7762655  75.9681468   4.8933715
  14.5035051  96.2556415  14.0470904  14.5722174  95.9279494  13.1503600
  14.7662615  95.5149798  14.5935458  94.8505878  38.9683652  63.3606100
  95.4876804  39.6744657  63.2521105  95.3670979  38.2257462  63.6736059
  80.0216675  36.9746876  90.8401585  80.3306866  37.3832703  90.0315762
  79.0996599  37.2252870  90.8979511  33.3756006   1.3429218  28.4810466
  33.5241640   0.7160001  27.7731437  34.0806568   1.9832712  28.3857745
  99.5810999  84.1311126  10.8816737  99.6093525  83.2610540  11.2797183
 100.5003608  84.3715005  10.7659072 108.1742764  21.1823297  74.5641947
 108.6612034  21.9892573  74.3968630 107.5046253  21.4341736  75.2001047
  32.3624598 104.6217167  58.6894703  31.9088398 105.2801766  59.2156744
  31.7066370 103.9405131  58.5408401 102.7081693  81.8595128   4.0085238
 102.7110065  82.6815920   3.5182113 103.6199630  81.7343836   4.2715854
   7.2174810 102.7226405  50.3429908   6.5658926 102.0906787  50.6467742
   7.1404242 103.4574180  50.9515876 105.1459885  44.2493391  77.0890236
 106.0093498  44.1624498  77.4931145 104.5384216  43.9118385  77.7471924
 114.9610901  61.5984392  67.6533222 114.0842915  61.2544298  67.4827003
 115.3894234  60.9165144  68.1707573  20.7832312  39.0392022   7.2113151
  20.5909132  38.1118290   7.3499698  21.3818144  39.0506153   6.4644546
  47.4131285  98.8319361  90.4319668  47.7621256  98.8182747  91.3231754
  47.5502287  99.7314584  90.1348209 103.8854040  58.6583834   6.0899085
 103.8961662  57.7012478   6.0926169 104.6682514  58.9053174   5.5975551
  71.0580444  32.9061007  87.3691082  70.3479910  33.0135894  88.0019665
  70.7653379  32.1949077  86.7992306  88.7199688   8.8783932  54.8268890
  89.3589783   9.3597066  55.3524733  88.2857895   8.2969075  55.4510641
  91.6687012  33.9525557  94.1547489  91.2595844  34.4417524  94.8685646
  91.4890766  34.4746351  93.3728313 106.4758110  25.6573868  60.9953451
 107.0471287  25.8489370  60.2516174 105.9128666  26.4279723  61.0696220
  76.0885096  12.2094512  72.6941633  76.8770456  12.7510607  72.7273512
  75.7878160  12.2794580  71.7881203  25.7160830  51.8830516   8.6531943
  26.6311049  51.6050519   8.6942405  25.4308294  51.6388451   7.7727241
 108.8050365  23.3084798  64.2042875 108.0108929  23.8392758  64.1425133
 108.6678123  22.5982952  63.5773611  68.5033226  27.7231193  90.4528332
  68.2802057  28.2174587  91.2415504  68.4631968  28.3680058  89.7466183
  18.1198464  15.2604508  91.1710072  18.4916935  15.3270805  90.2915001
  17.6868401  14.4068897  91.1839390 105.9701061  42.1771002  87.4350357
 105.6501389  43.0545712  87.2255325 106.9115448  42.2190523  87.2671986
 100.4104519  40.7316923  78.2750034  99.9169922  41.0058308  79.0480328
 100.3814507  41.4896393  77.6911306  23.2103215  81.0538864  93.0212784
  23.4985600  80.1418400  93.0574131  23.9990864  81.5620422  93.2106304
 112.5023924  89.1135716  92.1881771 113.2613360  88.6115312  91.8912220
 112.0054137  89.2912745  91.3896370   0.7262014  61.7674659   4.9638289
   1.2083267  61.8474959   4.1407985   1.3775515  61.4594673   5.5939979
 113.4637737  14.3970108  57.9267263 113.1931686  13.4789264  57.9154730
 113.7719154  14.5668137  57.0365334  23.6862158  95.8946090   5.7983512
  22.8454660  95.4615788   5.6505221  24.3332075  95.2944140   5.4276675
  97.5771809  20.0852585  85.5179691  96.9904613  20.3388095  86.2305069
  98.2788944  20.7358193  85.5425167  59.4488882  99.7832637  13.9355678
  60.2877497  99.6843724  13.4852809  58.8019728  99.4531970  13.3120364
 114.5404339  12.4375200  66.8017006 113.7365818  11.9433880  66.6408014
 114.9997902  12.4276316  65.9619808  11.7298279  55.4381323  94.7435570
  10.7853184  55.5573320  94.6439075  11.8158684  54.6823502  95.3246021
  25.9813665  67.9888587   6.0526771  25.6759428  67.1272664   5.7687682
  26.1894392  68.4491198   5.2396029  15.9133206  70.5407000  85.7599735
  16.6879902  69.9876451  85.8612251  16.0736142  71.0322905  84.9544430
 111.3992023  58.7495565  64.1936922 111.0953140  57.8994894  63.8754606
 111.8759632  59.1257954  63.4538412 114.7549165  88.5754518   3.8453216
 115.0838245  89.4608097   3.6897868 115.5404009  88.0289583   3.8695735
  27.2167242  25.8995348  16.5042418  28.1645382  25.8035951  16.4110774
  26.9222677  26.2112241  15.6484527  21.7552828  57.7949919  21.1020106
  21.8737864  57.7547981  20.1530189  22.2064852  58.5968451  21.3659781
  13.7089119  35.4299831  83.3004856  13.0227242  35.9336758  82.8626728
  13.3316288  34.5572972  83.4114456  58.9550566 108.3961682   1.0259551
  58.6586069 108.7933927   1.8448371  59.8177027 108.7811809   0.8715171
  13.1393980  79.4045215  25.3236217  12.3848604  79.3585663  24.7364348
  13.6825632  80.1044683  24.9613112   1.8242621  97.4795012   2.6837081
   1.0186171  97.4284272   3.1980533   2.0201325  96.5710120   2.4545592
 112.8997421   2.4893926  93.3303547 113.7155533   2.1056037  93.0088043
 112.2359180   1.8223906  93.1552315  35.1617407  93.3496337   6.9769973
  34.8161100  93.3483868   6.0843772  36.1122107  93.3711891   6.8657798
  71.4232897 108.2267623  34.6736163  71.5176176 108.8422685  33.9466399
  72.0801043 108.5066514  35.3111762  85.2963911 107.9818939  56.9250870
  85.3817736 108.8968106  56.6570044  86.1505114 107.7602982  57.2960377
  85.3560257  45.2362061  94.4633102  85.8128738  46.0454416  94.6927929
  85.4297638  45.1814651  93.5105324  36.1631273  87.3914509  14.8418635
  35.7197928  86.8908100  14.1569919  35.7837271  87.0677118  15.6588572
  32.4856543  57.2793399   7.0280475  31.8745302  57.9316347   6.6856021
  33.0713629  57.0915832   6.2946147  84.1907584 105.2411076  74.9888229
  84.3909537 106.1771368  74.9908638  83.7412154 105.0941407  74.1566324
  48.2447695 104.5924478  16.8352145  47.9098963 103.6983256  16.7671222
  49.1440844 104.4883685  17.1460837  24.6041655  95.6475406  14.1489428
  23.9196753  95.8641677  13.5158652  25.4181170  95.6958537  13.6475581
 111.4864159  48.4862566  89.3287277 111.8921661  47.6439428  89.1235447
 110.6240654  48.2584095  89.6761131  90.5940056  28.9449549  82.1395779
  90.7276344  29.7754931  81.6828728  89.9482727  29.1453910  82.8171349
 104.2807293  56.4347553  94.0437794 103.3972263  56.6954994  93.7836456
 104.8473835  56.7949295  93.3615685  93.3534145  12.2406220  88.7036419
  92.4709034  11.9204795  88.5167694  93.8607025  11.4502907  88.8887501
  44.6305822  89.9816947   2.2333735  45.5438398  89.7124295   2.3318404
  44.6438383  90.9287267   2.3718852  26.5650248  93.3754830  20.4093188
  26.7804026  94.2053990  19.9837798  26.6724943  92.7186232  19.7214145
  54.3053234  21.9190555  11.0461539  54.1591728  21.7374139  11.9745273
  55.2236259  21.6923290  10.8994025  85.9947968  18.1986594  89.8810673
  86.1907291  18.9064801  90.4949379  86.2945938  17.4059319  90.3259754
  89.4139551  83.6439638   1.2381572  88.9731096  84.2975883   0.6953162
  89.0085100  82.8132801   0.9895438 100.6436443   7.1140087  88.0648899
 100.2754307   7.4118811  88.8967037 100.0793362   7.5066984  87.3988628
  11.7147802  99.5301394  21.0517997  12.6281714  99.2445378  21.0323066
  11.4975046  99.7005372  20.1352900  26.3524889  79.0629868  20.5308837
  25.9956717  78.2030182  20.3086966  27.2152781  78.8760071  20.9008521
 102.7489567  29.7243786  64.1639566 101.8454456  29.4707513  64.3525839
 103.2579231  29.3499398  64.8829746 100.0884546 103.0464606  11.7152614
 100.8563293 102.7200990  11.2461299  99.3443311 102.7571588  11.1872310
   9.9593042  77.9774384  15.7761401   9.8520636  78.8299875  15.3543681
  10.7554792  77.6159983  15.3866691  19.0791296 100.6034236  23.7747687
  19.3762564 101.0306315  24.5781630  18.4318422  99.9627881  24.0694446
   3.1734156  59.5653133   6.0142344   3.7141108  59.8323737   6.7575854
   3.8016485  59.3708007   5.3187388  99.2585564  32.1884656  93.6443233
 100.0607777  32.3503637  94.1407681  98.5900784  32.7051282  94.0942574
  23.8338910  58.1589842  71.9413137  23.5709629  59.0753651  72.0270395
  23.8573895  57.8314352  72.8404188  80.2256584  71.5342379  82.3499298
  80.7134438  70.8383989  82.7905083  79.3864250  71.1327791  82.1246624
  84.4363880  36.2236190  90.2674484  85.3148842  36.5596223  90.0897503
  84.5512772  35.2756023  90.3330135  93.9219284  57.0303249  93.6030674
  93.1608200  57.6107454  93.6112499  94.4299126  57.3121881  92.8423214
 116.5882969  56.6153288  73.3956909 115.8308983  57.1557379  73.1708813
 116.2183571  55.7550097  73.5937643  48.3506178  79.3979030  17.2698039
  48.1412672  78.7346630  17.9274577  48.8025354  78.9148765  16.5779323
  86.1920261  30.5191016  83.2841206  86.0211849  31.4562249  83.3781815
  86.4109421  30.4072189  82.3590279  62.4732864   0.1184374   1.0837573
  62.0411957  -0.0460762   0.2456302  63.1073654   0.8101087   0.8946437
   2.6138745  55.9852839  85.3386021   1.9946061  55.9690285  84.6088982
   3.4600411  55.7835245  84.9391747   2.0742474  33.7834811  92.1916580
   1.6441021  33.1544018  91.6124630   1.6077481  34.6056223  92.0409775
  92.1496868  33.7135148  87.0390034  91.6889000  33.2061076  87.7071667
  91.6412544  33.5748291  86.2399387  17.8074431  87.1028237  15.2839107
  18.0516790  87.4661689  14.4326991  17.0168757  87.5825124  15.5311603
   7.1311544  71.4942496   4.8676795   7.0375609  71.5186875   5.8199805
   6.2977575  71.1430960   4.5540446 106.0573292  85.1542282  92.7642059
 106.3247681  85.6605721  93.5312271 106.7925739  84.5641613  92.5984764
 111.0777855  37.9563046  93.8637733 110.6380653  38.7821627  94.0658569
 110.7023430  37.6836753  93.0265427  96.4985931   5.4255586  22.8038520
  97.2215259   5.4392677  22.1766108  95.7657421   5.8228307  22.3333854
 105.7123756  31.3330507  72.4606514 104.9334908  31.8640757  72.2945786
 106.1055279  31.2078667  71.5969419  59.1186213  95.0825410   6.7743415
  60.0488066  95.2272611   6.6010303  59.1044306  94.4833856   7.5206870
  78.8214576  11.4975839  10.6367415  79.7331512  11.7482286  10.4876727
  78.4960830  12.1409136  11.2664145  83.1366253  88.1358337  80.1508904
  82.8414345  87.4481297  79.5541048  83.2504272  87.6913452  80.9909630
  36.6600167 107.3907501  81.9029236  37.3975693 107.1875366  81.3276386
  36.6160570 108.3469301  81.9073105  80.8368969  42.3700094  85.0473022
  80.4174709  41.7006731  84.5066452  81.5466785  41.9076967  85.4930592
  92.1136379  27.6826286  83.7460804  91.8003273  28.3933020  83.1866074
  91.5595341  27.7291107  84.5252037  45.1000189  78.2068567   7.3380965
  45.2653765  78.1396704   8.2785052  44.5986532  79.0163665   7.2402972
  71.9944357  87.0027881   8.0636901  72.5820898  87.5169592   7.5100535
  72.5262808  86.2618618   8.3542079  24.7371649  82.6052217  12.9099101
  25.3781580  82.1829467  13.4817904  24.0792536  82.9595642  13.5080928
  25.2143644  60.7390289  40.8403510  25.1525759  61.5306394  41.3749236
  25.8115553  60.1689439  41.3247031  43.1422876  83.8139181   9.7436255
  42.7849649  83.4760575  10.5648440  43.7245821  83.1207709   9.4326419
   6.6636728  61.6438060   6.1320895   7.2839331  61.4793609   6.8423480
   7.0242285  61.1675273   5.3841704 110.3354073  17.5655174  80.1267338
 110.1690102  16.7332458  80.5693054 109.4869900  17.8162909  79.7613144
  98.8989353  38.8739872  87.9435825  99.5182896  38.2312489  88.2893085
  98.0480576  38.4386158  87.9953575  14.0563082  96.6223721   1.0732192
  13.2641863  96.0863929   1.0344905  14.3146490  96.7344146   0.1583785
  40.1561331  75.5139832  18.7199229  41.0504602  75.8162456  18.8781852
  40.1520037  75.2493672  17.8000373  27.3408007  80.7521396  23.8934344
  27.9459738  81.3921814  23.5188121  26.5902685  81.2719445  24.1810626
   2.7815686  66.5616989  66.0962486   3.2747803  67.3360491  65.8254004
   1.8880234  66.8798399  66.2251282  87.5544357  12.6543784  90.2811813
  87.9875374  13.4729528  90.0391197  86.6958046  12.7043712  89.8610783
  12.4275946  70.0441186  18.3216495  11.6846823  69.4725232  18.1277484
  13.1565832  69.4442015  18.4794444   3.0619774  59.1445684  85.6994724
   2.6101742  58.5275793  86.2751675   3.9297257  58.7613201  85.5715084
  32.6069616  95.8055644  12.1419353  32.5647139  95.8349423  11.1861247
  31.8911528  96.3716035  12.4308318  86.0666943  60.9613180  85.3440285
  86.9063854  60.6604576  84.9967003  85.7692719  61.6190004  84.7153664
 103.2207870  46.6729355  83.1353378 103.1711102  46.6861153  84.0911579
 103.9610195  46.0977364  82.9418755  15.3857003  41.6824865  94.4043350
  14.7812519  42.0627737  93.7669468  14.8908959  40.9692621  94.8077202
  21.2091230  76.0623722  15.3380126  22.1450781  76.0336022  15.1395434
  21.1058783  76.8344073  15.8943671  92.8075218  44.2798233  88.5674000
  93.1612682  43.4189701  88.3437252  92.5223446  44.6464252  87.7304363
  23.1860136 101.3965659  14.2763156  23.3312296 101.6629844  13.3684749
  23.0850386 102.2197251  14.7542685 115.6824493  66.0450459  67.4573660
 116.4441395  66.3344860  67.9596472 114.9724102  66.6175365  67.7477741
  35.9525370  84.5260863  20.3889770  36.8621992  84.3649225  20.1384372
  35.7487463  85.3825216  20.0131911  89.0386772  43.9389133  93.7097073
  88.5828209  44.1828060  92.9041290  89.9380302  43.7641668  93.4324741
  63.9560592   5.9180837   2.5030440  63.2117641   5.4026180   2.1922988
  64.5077789   6.0326677   1.7292899  54.7171593  46.2584877  88.7349796
  53.9157200  46.7485428  88.9187622  54.9274731  46.4752531  87.8266811
 102.1004976 105.1111226   6.7817801 102.7141918 105.7686906   6.4543456
 101.2375272 105.4476933   6.5404529  18.8103174 108.3189111  22.4201793
  18.8094305 108.3269219  23.3773440  19.4777369 108.9600902  22.1759147
  47.1337484  74.4358008  11.4364547  47.0971941  73.9581661  10.6077498
  48.0290484  74.7716110  11.4800662  95.9275723   3.4878093  66.6760254
  96.4581966   3.2749811  67.4437380  96.4864254   3.2687521  65.9304142
   0.3858624  32.9739285  90.0207806   1.1679612  33.1419587  89.4951248
  -0.3214397  33.4072280  89.5430660 110.8235741  55.4207182  84.6646309
 111.1036682  55.9231138  85.4297256 110.1019001  54.8794079  84.9846268
   3.0902170  37.6739173   2.7408141   3.4903406  38.5417931   2.6867694
   2.4890589  37.7331524   3.4833259 112.2647775  81.3065867   5.6464786
 112.7990307  81.6109209   6.3800925 111.4209808  81.7419057   5.7678718
  86.3650023 108.3524118  80.8474064  86.6853129 107.4572631  80.7362938
  86.5246092 108.5511165  81.7700481  38.8400244 108.8922076   7.6278991
  39.1572737 108.0020814   7.7804202  39.6041369 109.3657784   7.2991294
  47.3699271 107.3335705  91.0934925  48.0771147 107.6054054  90.5084991
  46.5685736 107.5357974  90.6106281  79.4736208  93.6979012  22.1796245
  79.2587198  93.2634430  23.0050296  80.1487650  93.1448250  21.7865294
  20.3441500  98.6393027  15.0654716  20.5818438  99.3665080  14.4902247
  19.8173975  98.0603604  14.5144862   1.3359604  72.2100830  81.3218880
   1.1259423  71.3728666  81.7356396   1.1955605  72.0573378  80.3874397
  92.5036133   5.1877933   5.1433391  93.4608066   5.1831680   5.1442450
  92.2632969   4.8519998   4.2797870  20.2743410  99.4822030   5.8311004
  21.0284208  99.2959409   6.3904780  20.3223776  98.8243632   5.1374358
  31.4632200  98.6231379   1.8533439  31.5890669  99.5657306   1.7441958
  31.6801809  98.4571795   2.7707404   9.2253456  34.9771237  77.1148109
   9.4175015  34.0699911  76.8772793   8.3014069  35.0922823  76.8927670
  89.6164513  29.9605966  62.2843552  89.9502659  29.6242476  63.1160212
  88.8673401  29.3999195  62.0826197   8.3739161  81.9500976   8.9254874
   7.6603674  82.5200896   8.6387938   9.0122580  82.5449495   9.3190497
  89.4110298  29.4032192  69.8520374  89.7051430  30.3138018  69.8757982
  90.2189636  28.8901186  69.8660374  25.2010988 103.4815745  12.4286670
  24.5905375 104.2174535  12.3847121  24.9787497 102.9402881  11.6711730
  49.3260371 102.4778598  86.7028141  48.5277163 102.2682499  87.1875668
  49.8728834 101.6974443  86.7930031 114.8673534  55.9433174  79.6806860
 114.0358353  56.2805700  80.0139427 115.5344677  56.4294100  80.1653481
  11.7140732  82.0381832  85.5161095  12.2491513  81.2607574  85.6759071
  11.0400067  82.0086861  86.1950779 107.0212841  40.7435274  89.8760605
 107.5040817  41.2629557  90.5189705 106.5538788  41.3905334  89.3477154
  87.7144623  15.9659719  87.4127197  88.5364246  16.3640547  87.6993275
  87.8722954  15.0235605  87.4691391  93.7465000  59.2887974  83.5575581
  94.4904900  59.7116375  83.1287003  94.0641880  58.4138298  83.7805748
  64.2470251 100.5024313  85.9129524  64.1437231 101.4540356  85.9097195
  63.3575617 100.1653218  86.0199356  63.5907255 108.6281084  73.4356403
  63.6147867 108.8108808  72.4963617  64.2823874 107.9804965  73.5714293
  57.6407599  80.0705819  13.5913581  57.1014856  80.7779818  13.2378024
  57.7306437  79.4524937  12.8660220  96.9595337  47.4763489  75.0158405
  96.8959713  47.0331812  75.8618879  97.8915596  47.6705694  74.9166203
   3.1099472  20.7901597  87.4078655   3.2278691  21.1379385  88.2918167
   2.1771965  20.9065557  87.2271442  82.5038433  32.0486951  92.3647404
  81.7782116  32.6617742  92.2471619  83.2406235  32.5980854  92.6322460
  83.1632900  16.8213391  85.9148121  84.1188812  16.8754661  85.9025192
  82.9681683  15.9513414  85.5665779   9.4534455  32.3798347  67.4142456
   9.8586617  31.5177679  67.5084305  10.1428185  32.9290366  67.0409203
  37.1250986 100.3082852  13.4676188  37.4994158  99.4663339  13.7269324
  36.3432287 100.4006438  14.0120143  33.5437559  91.4597158   1.1381930
  33.5428118  91.8094997   0.2471942  34.4434904  91.1648803   1.2788028
  58.2022833  63.7750994  27.4600333  57.9155039  64.6605091  27.6837272
  57.3989462  63.2546674  27.4651832  24.1183052  17.2345638  90.1339436
  24.2335377  16.8202615  89.2787838  24.3859921  16.5643895  90.7627869
 105.9694004  27.2232056  88.8151741 106.6189671  26.7785835  89.3597794
 106.2119102  26.9941735  87.9179764  31.6423964  80.9239440   2.6140613
  31.9784617  80.4256134   3.3590240  32.2223639  80.6912212   1.8890017
   8.9370963 106.0211384  79.3473053   9.2988249 105.1404049  79.2488098
   8.1302878 106.0076674  78.8324261 110.7206821  17.7495325  71.7515993
 109.9525547  18.1244075  71.3207054 111.4487267  17.9560339  71.1654663
   6.4704107  53.3887942  30.8086890   6.7903875  54.2135415  31.1742515
   6.3543963  52.8188618  31.5689200  25.4914259  79.3116503  13.0860538
  24.5796942  79.3662004  12.7997130  25.8082651  80.2141647  13.0498046
 108.7168694  15.0795448  87.8403854 108.9702225  15.2427781  88.7489033
 108.3017349  14.2172420  87.8587341 105.4217339  52.6459694  76.1943817
 105.8212185  52.4651051  75.3435421 104.6566391  53.1837511  75.9902811
  15.3758024 107.8879647  11.9967193  15.6796335 107.8650002  12.9041308
  16.0716223 108.3432298  11.5226001  85.0769222   4.6713262  13.1569022
  85.5143249   5.2361732  12.5198382  85.7911957   4.2225462  13.6092872
  84.8818767  13.8975483  14.8037356  84.0225113  13.9873176  14.3918437
  84.6919048  13.8115984  15.7379550  67.9312027  21.8112283   9.6036738
  67.6440037  22.7190977   9.5060843  68.1835354  21.5435367   8.7199897
  64.1612327  20.0861555   2.5618094  63.7836445  19.2219406   2.3981494
  64.6833599  20.2711445   1.7811793  27.2322426  42.9760790  91.3889790
  27.2539482  43.8071918  91.8633270  26.3303624  42.6697063  91.4837360
   6.4652405  90.4533482  71.4276123   5.7525311  91.0231781  71.7166948
   7.2584114  90.9687805  71.5740633  48.6604666 102.0461421   0.4521483
  49.2382597 102.4871783  -0.1706487  47.8407168 102.5383954   0.4083270
  65.9466064  28.7886720   5.3296203  65.3692138  29.5016866   5.6024760
  66.2511623  28.3999639   6.1496181  74.6546173  62.3406553  64.3789053
  74.8972797  62.8376675  63.5976744  75.2591181  62.6468801  65.0549507
   2.7286587 104.4485855  85.4946041   2.9144726 103.6892796  86.0470200
   2.4228249 104.0745258  84.6683025 112.5939941  48.5709238  54.0147543
 112.6486015  47.9220629  54.7163439 113.5016823  48.8313484  53.8581944
 106.6276455  56.1301899  58.8352299 106.3386536  56.9211674  58.3801794
 105.8641720  55.8526516  59.3414974  88.5290897   9.9768310   6.0584945
  88.7540233  10.9001070   6.1733741  88.7048805   9.8006921   5.1342124
 110.5466366  59.8330164  88.7209892 110.6831646  60.1696110  89.6065998
 110.9216499  58.9525175  88.7389565 112.5106239  65.0002766  56.5853834
 112.4831104  65.5210590  55.7827234 112.5511646  64.0935612  56.2813234
  73.4712862 104.3681054  15.9381885  72.8455519 104.7429519  16.5580195
  74.2620634 104.8963361  16.0471648 106.7595577  49.8616838  76.6801500
 106.3772488  50.7357979  76.7576122 106.0057926  49.2725992  76.6478062
  79.6629894   8.8661009  20.7704562  78.7278354   8.7251764  20.9183425
  79.7706497   8.7841182  19.8228759  19.9257622  35.4750586  88.8540077
  20.7018147  35.0847507  89.2560482  20.2740727  36.1001968  88.2183170
  64.7058285  29.8939710  24.6181792  64.2355621  29.8859697  25.4518622
  64.8184192  28.9693075  24.3978232  20.3690695  85.6256943   9.4425220
  19.9246000  86.4227443   9.1537589  19.7173952  84.9337392   9.3295878
  53.0646408   4.4848638  16.3347167  52.1387947   4.2850595  16.4730090
  53.2345379   5.2372747  16.9014949  30.4639302  60.9501219  84.9984169
  30.0467072  61.7075014  84.5878887  31.0799656  60.6296730  84.3395996
 102.4142361  38.1196308  86.7569447 101.6567230  37.5616813  86.9333076
 103.1506634  37.5112557  86.6954231  50.7611059  97.9070764  19.8946494
  50.4742979  98.6772923  19.4040030  49.9521326  97.4372725  20.0973052
   9.8460923  41.6804552  89.4970894  10.0804291  40.8962393  89.9934006
  10.4449902  42.3547506  89.8178387 101.5032959  42.0543718  86.1609840
 101.3930988  42.8629398  86.6612816 100.6143761  41.7157507  86.0542107
  96.6759872  22.2965646  77.6180601  96.6311932  21.4426184  77.1879482
  95.8580399  22.7303314  77.3750734 102.0117092  71.1376762  55.1097393
 101.1867428  71.0001755  54.6441746 101.8305588  71.8614340  55.7094049
  21.2717591  40.1766872  81.4013195  20.7397328  39.3820286  81.3602066
  20.6499348  40.8700800  81.6221809  60.1555336  10.9015709   9.5964641
  60.1679504  10.0650173  10.0614947  60.3874576  11.5491110  10.2621383
   5.4839001  58.3624268  87.9512882   5.8950196  59.2067862  87.7661610
   5.3089199  57.9869127  87.0883846   2.7248059  56.0118675  74.3484688
   3.0292378  56.7125654  74.9251604   1.9621239  56.3819075  73.9039278
 112.4394321  43.1103420  82.0460224 112.1094227  43.9638472  82.3268318
 112.9643440  42.8017044  82.7845573   7.3641943 105.8368401   2.2618312
   7.7797960 105.0655990   2.6474494   6.4257979 105.6568007   2.3185748
  30.2187895  94.8958211  32.8840751  30.5637621  95.5039172  32.2302741
  30.0407671  95.4425626  33.6493224  48.3496546 102.6395612  26.0015124
  48.1151461 102.6276784  25.0735587  47.5316500 102.8484015  26.4526195
 107.8871346  59.5974827  90.5760479 108.4892368  59.6023321  89.8319435
 107.0160770  59.6108484  90.1794243  23.9363360  89.3376236  22.6083774
  24.1747641  88.5596638  22.1042270  23.8689589  89.0266447  23.5111350
 110.0484753  43.6586046  91.8496037 110.2005577  43.0740309  92.5921535
 110.8922863  43.6985350  91.3994694  36.2967453  24.8741317  89.1932106
  36.1226616  25.3682423  88.3920956  36.0671196  23.9714646  88.9725399
   4.0323887  37.6157284  82.9079628   4.5588074  38.1783104  82.3399734
   3.6000309  37.0075297  82.3084736  59.5109640 107.5288802  92.3461342
  59.2894064 107.4827660  93.2762051  60.1329409 106.8137076  92.2123432
  18.1868420  64.7519445  38.0560184  18.4725819  64.5651674  38.9502764
  18.1236229  65.7063437  38.0191851  96.0899925  41.1427975  89.9149418
  95.9740829  40.2338982  90.1918888  96.9685078  41.3747358  90.2160168
  25.7722639  94.5348005   3.8298816  25.7028936  93.6371474   3.5048598
  26.6692614  94.7962170   3.6218184  21.5812277 104.9040465  20.6587333
  21.3800501 105.8127265  20.8824843  20.7599329 104.4342427  20.8036250
  62.0540798  22.5096040   1.0013980  62.7527416  22.8137069   1.5807170
  61.6800773  21.7534118   1.4536494 107.5868511  74.5081854  80.2147484
 106.7546272  74.0413904  80.2905273 107.6471806  75.0224543  81.0198116
  24.1206513  44.8364115  81.0169697  23.3987103  44.5785522  80.4437733
  24.9080334  44.6797514  80.4957104  38.2924068  10.7017713   4.4652099
  37.8471744  11.5033870   4.1905898  39.1886986  10.8039385   4.1451282
   3.5350953  40.0914812  91.4433956   4.2586384  39.5715284  91.0935879
   3.8820610  40.9822369  91.4924335   3.2469330  45.1965714  64.7672272
   2.3255310  45.4466915  64.6987629   3.2340298  44.3594074  65.2311420
  90.9796715  47.8246689  94.1375828  91.3401604  47.5066376  94.9653149
  90.3868771  47.1296072  93.8517189   9.1301035  80.8329825   3.4996909
   9.6512961  80.4309754   4.1946620   8.9614653  80.1199179   2.8837985
 100.0044823  54.9474096  74.3530226  99.2514801  55.5383110  74.3452358
 100.7599163  55.5203581  74.2215633  10.0128626  82.9457669  35.3026790
   9.2921518  82.5215082  34.8370570  10.2329706  83.7048511  34.7626990
 114.1823662   0.2185684   4.0937919 113.6458385   0.9269100   4.4496364
 114.9492634   0.1884323   4.6657962 108.0377769  10.5387032  65.6585121
 108.0415058   9.6191478  65.3927374 107.2640419  10.9079289  65.2327776
  98.8079929  44.3772650  87.2128773  98.7426567  43.4269905  87.1183109
  97.9378700  44.6493149  87.5045967  98.6885071  50.5214071  81.5228748
  97.8244686  50.8626461  81.7535973  98.5617733  49.5751238  81.4541626
  14.2691874  99.3255191   1.9552440  14.2114233  98.3843665   1.7905349
  14.4546103  99.3938260   2.8918284  87.0547283   4.1358143   5.8540458
  87.9785908   4.0321928   5.6260890  87.0541847   4.2536407   6.8039721
  31.7665539  86.9083595  82.2486782  31.8398915  86.0649109  81.8020821
  32.4514447  86.8858528  82.9170036   0.4487095  62.6123857  90.1088333
   0.5671940  62.8946066  89.2018890   0.5542241  61.6614676  90.0794983
 101.8011856  91.4147377  94.8715305 101.3968182  91.0569191  95.6619072
 101.3208294  92.2252655  94.7026443  12.1565018  91.7710590  71.3811350
  11.2672196  92.1091557  71.2758160  12.5380764  92.3119640  72.0725489
  89.0064895  13.8340336   7.1333903  88.5543335  14.6626430   7.2921008
  89.4739044  13.6560875   7.9495353 110.0711918  68.3446980  94.3348408
 110.9495163  68.0514765  94.0923405 109.9377632  67.9974794  95.2168083
  80.2912235  59.8086262  88.2054138  80.6292343  60.0911474  87.3556137
  79.3547344  59.6757555  88.0585289 108.1612505 101.0701232  30.1326293
 107.2297062 101.0842614  30.3523177 108.6068643 101.0543303  30.9796351
  57.1951472 103.1423598  88.8065434  58.0253207 103.6068409  88.7001610
  56.6822993 103.6994844  89.3920517  11.6392575  15.3106403  79.8576689
  12.5732003  15.1504481  79.7222853  11.2298355  14.4533145  79.7410822
   8.2476197  63.6212873  42.7669191   8.8993893  63.8361359  42.0996332
   7.8962479  62.7736521  42.4943686   7.9575596  55.5007219  69.8738003
   8.5238991  56.2715578  69.8376036   7.1887551  55.7439327  69.3580246
   5.3657030  96.1477761  30.1469058   4.6371244  95.8328633  30.6819076
   5.1007723  95.9592538  29.2466277  23.9483618 107.1334844  20.1954669
  23.1055807 106.9604592  20.6149978  23.7202810 107.5241523  19.3519134
  49.8004425   6.1887651  28.5890311  50.6385696   5.9570079  28.1889457
  49.9082840   5.9700828  29.5146483  58.9706205  86.4481859   7.8481692
  58.8747763  85.7590346   8.5055274  59.7915052  86.8844085   8.0764216
  98.1040096  48.7766886  65.5093479  98.8230324  48.5344315  64.9257851
  97.5649357  47.9877186  65.5655336  45.3139280  82.9130440   8.4003848
  45.7367014  82.1706037   8.8319892  45.7955336  83.0191855   7.5800151
  33.3227978  49.9456120  68.2855272  34.0773926  50.4319334  68.6176491
  32.5639496  50.4153156  68.6315870 102.6939285  23.1132847  19.7611922
 102.7343834  22.6658445  20.6064052 102.4191177  24.0048843  19.9750918
  86.7180824  55.1592255  88.3571434  86.2312317  54.9289274  89.1484642
  86.6800690  54.3714333  87.8147697  94.3370438   9.7242612  89.6425724
  93.9548683   9.0353394  89.0989113  93.8630486   9.6653855  90.4720879
  89.9026203  25.8038187  39.3863010  89.4198227  25.4390836  40.1279879
  90.6573772  26.2391686  39.7825933  77.8024483  10.0982499  39.1851377
  76.8951368   9.9697280  38.9085507  77.8194761  10.9845150  39.5463538
  89.2548466  20.8160782  89.2947483  89.8056602  20.4094672  88.6257935
  88.7484837  21.4751458  88.8199234  14.9197922  16.5219176  81.3307095
  15.5100499  16.8022501  80.6312466  15.4806099  16.4505243  82.1031189
  94.4547354  97.9687166  72.7341080  94.3819796  98.8985299  72.9494762
  94.6094214  97.5393628  73.5755062  92.7516651   5.7546973  77.2316265
  93.5988235   6.0339898  77.5788307  92.9657173   5.0633103  76.6052103
 111.8012619  23.9748049  76.1849594 110.9841442  24.1596627  76.6479683
 112.4658012  23.9478326  76.8733549   0.1927433  39.1131258  50.3057003
   1.1432038  39.0067434  50.3450346  -0.0451984  38.8174582  49.4269514
 108.2540607  15.1039565  69.5480013 109.1029453  15.2472091  69.9664640
 108.4316540  14.4635344  68.8591242 108.2703018   9.9898624  78.4021759
 107.3786449  10.3145254  78.2766390 108.2767391   9.6469164  79.2958117
   4.9233603  70.1859944   3.3780307   4.5786451  69.7958391   2.5747985
   4.2057013  70.7259433   3.7091750 105.6845284  16.7869997  72.4183369
 105.5557632  16.2400627  73.1932640 106.3436985  17.4280214  72.6844549
   3.3139859  17.0286286  76.6571856   3.0452690  17.9388952  76.5329361
   3.7160454  17.0140135  77.5257301  14.7734903  90.0887756   2.0145244
  14.4781374  89.8454885   2.8919047  14.1537451  90.7608991   1.7309684
 106.9455147  30.4239678  74.8528576 107.3990250  29.6662378  74.4835329
 106.5903187  30.8844948  74.0926027  96.7835140  48.7018681  91.7514610
  96.5749931  48.9603281  90.8537102  95.9524822  48.7747192  92.2208309
  58.8987528 104.3773853  79.7663450  58.8932120 104.5475339  80.7082844
  58.0915724 104.7796124  79.4455528 115.0953960   1.7581077  89.1017818
 114.7675991   2.2600845  89.8479748 114.9881744   2.3445667  88.3529186
  53.1920599  88.5093837   9.9283332  52.4297213  88.1491880   9.4751948
  53.0138754  89.4479589   9.9879760  85.5368137  15.6638801  85.8867550
  85.8688545  15.5389404  84.9977303  86.3164425  15.8514631  86.4094543
   6.6321526  23.3238816  57.4328327   6.7873726  23.1806588  58.3664417
   6.0171376  22.6340175  57.1836901 107.4668312  43.6835718  70.4173326
 107.8225708  44.3898153  70.9566879 107.8953552  43.7915373  69.5682526
  35.6510138 100.1167397   7.1226996  36.4734053  99.6312432   7.0578116
  35.3955530 100.0334363   8.0414123   0.8826027  52.2540045  84.4483948
   0.3685437  52.8582859  83.9128399   1.1542092  51.5666056  83.8401604
 110.9104061  10.6594217  77.3564863 110.2144527  10.5861366  78.0095673
 111.3618088  11.4739490  77.5778818  81.6819859   2.1588887  80.6332779
  82.2638226   2.5733343  79.9961567  81.8171597   2.6560736  81.4399815
  30.8252583  48.7646961  94.9259377  30.4165993  48.0229330  94.4798183
  31.7628918  48.5742283  94.8976040  94.2659760   6.4260638  87.7921677
  93.3925056   6.2859142  87.4265957  94.8571968   6.3218498  87.0466232
  14.0595494  63.4244204  31.2964582  14.5313511  63.8519287  32.0112133
  13.7656365  62.5923920  31.6673660  73.5555458   5.3555816  85.8243275
  74.2004919   5.5256093  85.1377583  74.0785742   5.1934677  86.6094303
  71.7792892   9.9704218  85.4399300  72.6049995   9.5228189  85.2553082
  71.4208317  10.1773632  84.5768452  18.7875138  35.5175328  69.0062523
  19.0427170  35.4385924  68.0870819  17.9330120  35.9481621  68.9814520
 102.6450825  28.3628774  93.1357193 103.2217121  29.0984035  93.3424377
 102.5967979  28.3576989  92.1797562  10.0638079  96.6820054   4.9171084
  10.3095984  97.1320157   5.7253760   9.4543528  97.2807269   4.4854564
  39.1885637  82.5948219   1.8190688  38.3767485  83.0356793   1.5684051
  39.1146921  81.7208271   1.4357871  62.1528994  94.7124492  78.5955715
  62.3880659  94.4513630  79.4859457  62.9500185  94.5688748  78.0854511
  17.4445591  47.5091887  87.2477531  17.8443013  46.7679214  87.7026844
  17.8042183  47.4685860  86.3616180  71.5675545   5.4711229  82.0232868
  71.9705343   4.6506131  81.7393780  71.0597420   5.2327663  82.7988815
 102.9740238  46.5270662  72.5778723 103.3053875  46.3550138  71.6964912
 103.1834126  45.7341433  73.0714893  76.0208559  24.3094301  88.2689762
  76.6388988  24.3676257  87.5403690  75.9443998  23.3714533  88.4438610
 106.6592503  24.4768572  77.6979685 105.7142544  24.6168184  77.6377344
 106.8191051  24.3185687  78.6283541  33.2514834  59.6393450  14.0690440
  32.9532122  60.3589247  14.6253413  34.1859984  59.5601239  14.2604655
 102.5454617  24.1870713  51.3012218 101.6813755  24.2437077  50.8933306
 102.5712490  23.3114696  51.6870832 108.2725620  40.9640074  71.3895845
 107.6863956  41.7060614  71.5378857 109.1092968  41.3635159  71.1518955
  65.1942348  10.9530401  93.7061501  65.9652567  11.4147961  94.0356064
  65.2501488  11.0420120  92.7547359  31.1333929  61.9973659  69.9055529
  30.4748999  61.3208436  69.7476387  30.8215367  62.4579572  70.6845474
  12.3075734   7.9042590  60.2177811  11.7157994   7.7230358  59.4875813
  12.8505478   7.1189743  60.2866030  91.5180111   8.3868057  70.6750822
  91.8020058   7.6809859  71.2559414  90.6499863   8.6283112  70.9982538
  12.4511109  47.8121758  90.1605701  13.1766854  47.7296591  89.5417309
  12.8738366  47.9031801  91.0145378  93.6761951  26.1609983  49.2236376
  93.4078884  26.3785028  50.1163483  94.0220833  26.9809103  48.8710213
  74.6875368 100.8395665  90.0186634  74.0095888 100.8836751  89.3443680
  74.4670473 101.5453505  90.6265163   1.8247280  56.5036869  54.6355343
   1.1380825  56.7699814  55.2469587   1.7442475  55.5512142  54.5850134
  54.2431521  60.2578710   0.7611674  54.1092466  61.1720638   1.0112685
  55.1684069  60.2083211   0.5210132 100.7714939   8.7975317  93.5946560
 100.3636646   8.7325293  94.4581795 100.3335762   9.5398462  93.1782150
 108.1455326  22.4794006  51.3504696 107.9021358  23.2662535  51.8381739
 107.9217052  21.7559385  51.9359064  93.6302662  52.9972839  85.5228329
  94.0877247  53.7201643  85.9522629  93.2191372  53.3959341  84.7558498
  83.9639187  70.5207634  83.3940125  84.5817757  70.1584816  84.0290260
  84.1802597  70.0811863  82.5716972 100.1466560  37.6156139  80.5947971
 100.6126976  37.0461845  81.2069893  99.7749710  38.3052826  81.1447430
 113.0206108  16.9374883  67.5878668 113.7720776  16.3747454  67.7745247
 113.3863735  17.6677418  67.0886850 100.1569748  18.4837496  75.4399395
 100.9529591  18.9733052  75.6472635 100.2167416  17.6919222  75.9744215
  38.9399313 102.4841075  13.2861823  39.3325399 102.6928620  12.4385375
  38.3378100 101.7635970  13.1003207 103.5826302  24.7008324  77.3268700
 102.6472473  24.7318077  77.1260786 103.9027405  25.5771065  77.1126175
   5.4756317  19.2953932  63.0387259   4.7573433  18.9915526  63.5936832
   5.3340779  20.2386928  62.9588509  86.5905666  18.4215009  75.4251432
  87.4050522  18.8123035  75.7415628  85.9484291  18.6217833  76.1061525
  18.1000017  71.4248865  28.6963099  18.2235693  72.3662250  28.8181418
  17.3388075  71.3558416  28.1200618  84.0265846  69.5448923  80.7644367
  83.4723568  70.1655722  80.2913380  83.5878754  68.7010956  80.6559658
  78.0510855  17.0373142  54.7792768  77.8585100  17.4692810  53.9470816
  78.5737228  17.6753831  55.2650261 106.5623093  37.6116920  57.1309042
 106.5319824  36.7648268  56.6857862 106.2150478  37.4352717  58.0052710
   7.0258484   9.2123926  68.7758112   6.2893830   9.5246720  68.2501364
   7.7941857   9.3635935  68.2253265  57.9229342  96.6878247  78.3726549
  57.4644362  96.8318772  77.5448465  58.2865130  97.5443219  78.5972738
 104.4821167  51.2132931  56.1031151 105.0902748  50.5115366  55.8709192
 104.8148727  51.9817734  55.6394958  61.4530062  83.4700899  16.8716067
  62.1634840  82.8296428  16.8359965  60.8814024  83.1550198  17.5717849
 114.2923832  31.3631892  74.4076586 114.7253132  32.1863866  74.6338081
 113.3577251  31.5557218  74.4823503 101.5272986  80.7627081  61.2363243
 102.3576723  81.2068939  61.4078188 101.6597067  80.3233671  60.3962803
 108.8151836  34.4070554  93.0694675 108.6537933  33.5071349  93.3528900
 108.5547543  34.9441791  93.8177395  52.9676508  79.0709977   7.0256728
  52.3368620  79.6816306   7.4070758  52.4329733  78.4595089   6.5192813
  79.9969482  15.2822781  68.9215660  79.3064547  15.9221017  69.0949917
  80.5921841  15.3643644  69.6666765  96.9421387  30.2603555  69.1080904
  96.6677094  29.9520802  69.9717379  97.0464134  31.2060213  69.2133188
  57.1670198  42.4803972  91.0112572  58.0798626  42.2140551  91.1208439
  57.1052647  42.7528048  90.0957108 103.8037682  16.3981223  87.0719528
 103.9680386  16.2777436  88.0072403 104.6756554  16.4528668  86.6807461
  84.4651508  15.6613946  68.9059877  85.3306675  15.9340060  68.6013556
  83.9481068  16.4669263  68.9104271 109.0396404  35.1850700  68.9978266
 108.0828667  35.1575351  69.0064526 109.2516136  36.1125422  68.8924980
  80.8841705  33.6939073  40.6579781  80.7969189  34.2993808  39.9217582
  80.8460999  32.8246522  40.2590132  78.0448294   8.3696687  72.5658083
  77.1314669   8.6359084  72.4603939  78.4890795   8.7284404  71.7975903
  73.2676840   2.7783972  70.3633690  72.6542521   2.7258292  71.0962915
  73.9205170   3.4201509  70.6429958  51.3710009  92.8354441  91.3163948
  50.6890093  92.6115584  90.6831551  52.0881354  93.1800782  90.7842541
 103.3374596  27.5311065  72.3168707 103.0485249  26.8392467  72.9119158
 104.0958118  27.9203224  72.7523565  22.0621656  79.0296321   5.9195632
  22.9946779  79.1466050   5.7379741  21.9961714  78.1418543   6.2713164
  92.4456978  71.8508625  48.2698154  91.8665695  71.2824106  48.7774658
  93.1445885  71.2713528  47.9665756 112.6242924  44.0601063  78.9992476
 113.0167007  43.6015415  79.7421885 111.8080521  44.4214487  79.3448114
  10.2573738  45.6455898  65.9530926   9.3395386  45.4860449  65.7331896
  10.2643643  45.7279587  66.9067192  15.4489575  11.4273429  71.2819338
  15.0227795  12.1169114  71.7909527  14.7613678  11.0965455  70.7039833
  82.2013174 107.8340542  88.0452538  82.2705637 107.0404141  87.5146198
  82.6209341 107.6050710  88.8745403  27.1411095  15.8400917  61.2588882
  27.9398594  16.1969697  61.6473007  26.7006455  15.3953516  61.9830608
   4.8158226  21.4989471  56.6160488   4.0472184  21.3189507  57.1574211
   4.5147381  21.3583493  55.7183743  54.4259047  87.4191027   6.4906711
  54.6258234  87.1775966   5.5862636  54.2839979  88.3652334   6.4601439
  99.9573898  25.9559774  90.0172424  99.4300747  26.4314151  90.6592083
  99.3961048  25.2344155  89.7334576  51.5515194  28.9431047  76.2124300
  51.4590702  29.6287894  76.8738794  50.7332287  28.4491158  76.2635517
  37.0482515 106.0687547   7.2873420  36.8292498 105.2117639   7.6531810
  36.3344740 106.2587790   6.6785258  17.0680104  37.8753614  68.9431047
  17.9348240  38.0631447  69.3030930  17.1001969  38.2181025  68.0499506
  96.1378860  42.7047253  56.5839720  96.6196537  42.3347855  57.3237514
  95.2243042  42.4754667  56.7543793  47.8829454  94.8458128  18.7977904
  48.4814810  95.1778274  18.1286448  47.0164846  95.1292806  18.5060328
 107.6843714  73.1925456  17.4654883 106.8715166  72.7974527  17.7807826
 108.3484530  72.5172894  17.6042479  87.9438496  25.5194926  76.7327118
  87.5120544  24.7069645  76.9964933  87.3645973  26.2124205  77.0497942
  82.3564708  11.3821369   4.9554938  81.9119251  10.5414444   4.8466891
  82.8726185  11.4853769   4.1560096   0.5000744  16.5501583  87.7948952
   1.4416085  16.3805842  87.7634144   0.4044018  17.4359000  87.4448395
 109.9723434  26.3963604  82.8889179 110.0903034  26.9908023  83.6298370
 110.4269695  26.8245840  82.1635437 107.7919292   7.7951437  64.7644663
 108.5142040   7.2125328  64.9992561 107.0370007   7.4426645  65.2357054
  28.6784039  41.3750648  64.8751020  29.4864521  41.4677715  64.3704367
  27.9923115  41.2832689  64.2139721  95.7420254  33.0135226  92.2908115
  96.6705608  33.0474806  92.0607948  95.6025791  32.1157241  92.5920391
  52.7300440 106.5673139  89.1629314  52.3367487 107.1451881  88.5090065
  53.0853163 105.8377963  88.6551666 107.4816990  33.0294323  49.8200083
 108.0314732  32.2784972  50.0437927 107.8093719  33.3210945  48.9692497
  73.8088989   3.0570495  75.3619051  73.0212831   3.5767156  75.2011585
  73.7384796   2.3210907  74.7539234  33.4818625  99.0505128  17.0222682
  32.6636671  98.6928086  16.6775340  33.2730936  99.3018775  17.9219741
  99.1861153  47.6292467  61.5257263  99.1187382  47.5477695  62.4770689
  99.9652195  48.1675005  61.3860226 112.2901917  52.6163673  91.9403172
 111.5718365  52.9191780  91.3848877 113.0632591  52.6611471  91.3776493
  23.8676415  48.5932827  74.3644428  24.3921528  48.4821844  73.5714912
  22.9995118  48.2690525  74.1247463  21.4990578  32.5207782  76.5571547
  22.4134884  32.2388053  76.5340185  21.0977135  31.9766879  77.2347355
  38.4263491  86.8812137  10.3772181  38.1253981  86.8774395   9.4685668
  37.6218962  86.8806629  10.8959598 105.5530930  50.0650930  47.8538465
 105.0030804  49.3302107  47.5824404 105.5347061  50.0375223  48.8104725
 101.6225243  29.4360352  60.1410532 102.3152733  30.0830936  60.0081873
 101.1083317  29.7820115  60.8705282  12.8779100  29.6018534  15.7976741
  12.7094721  29.9591165  14.9257678  12.0217871  29.6013026  16.2257880
  70.6459891 101.3521885  54.1700220  71.4127337 101.9251954  54.1720009
  70.1136957 101.6618138  54.9028444 108.0605125  18.1858540  62.3565006
 107.9936886  17.2750151  62.6430988 107.8227997  18.1633282  61.4295578
   0.1394425  23.5333967  65.1809311   0.8855114  22.9366779  65.2403355
  -0.0252285  23.6182237  64.2418289  14.3601284  29.9529839  83.9292526
  14.5436726  29.6041632  84.8015308  14.8172055  30.7936978  83.9064503
 115.4909229  48.2671881  90.3929424 116.2389851  48.4259272  90.9686470
 114.9762440  49.0727949  90.4413414 102.2616386  25.3967690  67.9049587
 101.6851521  24.9859953  68.5492849 101.8708229  26.2562275  67.7473974
  46.9386458  66.9708078  11.4812488  46.7147612  67.8399591  11.8139380
  47.5463270  67.1392136  10.7611197  17.2539959  19.0478730  65.3900719
  17.1883068  18.1921411  64.9662352  17.9708825  19.4872975  64.9326658
 105.4613018  50.4148817  87.8213787 106.3712311  50.5654669  87.5652790
 105.3322792  49.4736195  87.7046967 115.9299278  69.6048832  81.8070984
 116.5892601  69.3210793  81.1738873 115.8413219  68.8653660  82.4083424
  51.4221058  13.8641441  91.1977291  51.0927449  12.9656386  91.1767673
  50.6656132  14.3905747  91.4562321  46.5339731  72.4728613  17.1108264
  45.6932615  72.0941858  17.3678130  46.3712954  73.4154730  17.0754832
   6.8739663  41.5602064  83.5923386   7.4609146  41.6365194  82.8400707
   7.3007069  42.0690680  84.2816734  56.9798838 106.2137651  78.8159323
  56.2255274 106.6053443  79.2562056  57.6424586 106.9045823  78.8160372
 107.5998306  20.7962346  63.1727552 107.7549553  19.9389148  62.7763128
 107.7618408  20.6612110  64.1064358 101.4383125  81.2773609  41.9308519
 101.8721485  81.6215515  41.1501169 102.1436977  80.8793640  42.4410105
  17.1201096  74.6112490  85.6211567  16.7141686  73.8351822  86.0073662
  17.3772488  74.3344784  84.7416687 109.8386669  40.0118446  79.0393162
 110.1183224  40.2368116  78.1519556 110.4715919  40.4500008  79.6082258
 104.8834133   2.3413384  51.1602068 104.2610645   1.8698440  51.7139292
 104.5926571   3.2526338  51.1953545  97.0966911  33.2479382  70.4503965
  96.8306160  33.1993985  71.3685894  98.0456448  33.1239557  70.4691410
   4.3236409  53.2163572  86.8612957   4.6567974  53.6893988  86.0987473
   3.3855687  53.1240225  86.6948223  31.8909620  87.4336081  29.8426646
  31.9884276  86.4971118  29.6703166  31.1143660  87.4952369  30.3988379
  86.9505787  29.1734791  70.6879091  86.4560986  29.8130751  70.1754332
  87.8448391  29.2377830  70.3526592 109.1967869  49.9761152  44.4821024
 108.5147953  49.9670887  43.8105154 108.7912464  50.4157925  45.2293968
  22.9438649  46.0001945  65.9533644  23.8666211  45.8219194  66.1349392
  22.7657185  45.5328321  65.1372337  91.4617348  31.2367487  47.4342823
  90.5789185  31.2856102  47.0675755  91.4325619  30.4880381  48.0299473
  28.7301230  99.3505149   7.9015941  28.7687849 100.3035884   7.8216857
  29.1143869  99.1662459   8.7586993  20.0562439  26.6577506  64.1834831
  20.2293454  27.4900103  63.7434721  19.1126690  26.6635466  64.3442869
  95.8322811  22.8926587  85.0204659  95.2445889  23.6475730  85.0512695
  95.5611134  22.3477197  85.7592106  92.1830940  50.6394434  71.6113377
  91.7227650  50.3053141  70.8414841  93.0085182  50.1549864  71.6258335
  82.6646996  20.2675295  87.0377922  83.1390858  20.9798479  87.4665070
  82.1188831  19.8930347  87.7292252  92.7726173  24.9742293  59.1592550
  93.5503960  24.4225836  59.0757513  92.0413685  24.3884778  58.9632988
 100.8282375  24.8686838  53.5177755  99.9666119  24.5965862  53.2018757
 101.4147282  24.7136807  52.7773428  62.9664301  88.7630515   1.5983218
  63.4452414  88.8259940   2.4247664  63.4097647  88.0642753   1.1172790
  89.9458599  50.2816439  93.8841629  90.6880379  50.8791351  93.7924671
  90.3325272  49.4081831  93.8226223  89.1205788  25.9190845  83.0882168
  89.9218750  25.9846091  82.5687218  88.7737083  25.0504160  82.8849220
   4.4866238  55.6014872  58.0394173   4.0229950  54.8478651  57.6742649
   5.1812802  55.2186918  58.5752821 114.8007965  25.0794578  94.3209076
 114.2557621  25.8456016  94.1414642 114.8671627  25.0509810  95.2753830
   7.3377571  15.8957541  73.0440664   7.9500447  15.8583999  73.7788677
   6.4788018  16.0009551  73.4531546   9.3944130   2.2063389  93.5056877
   9.5783196   1.4159986  94.0134048   8.5490666   2.0334847  93.0912590
  99.6788502  21.9623184  90.0595570  99.6924305  21.2722373  89.3963623
  99.5514774  22.7701163  89.5621014 114.8013020  33.5652471  83.4792614
 114.4183159  33.1348944  84.2436981 115.2187920  34.3514538  83.8311291
  96.4157104  70.6109762  89.5988178  97.3525524  70.4458761  89.7051144
  95.9954548  69.8010492  89.8880100 109.5400429  12.1609139  87.6589584
 109.7379971  12.6643574  86.8692780 108.5865688  12.0765197  87.6564693
  12.8187155  79.1195612  15.6725711  12.4304651  79.6566443  14.9819011
  13.6368918  78.7975888  15.2942103  57.3572134  90.1971917  24.7915668
  57.5326037  90.2984648  23.8560409  57.1857905  91.0867052  25.1007766
  18.9567827  89.8028927   4.5679587  18.5809492  90.1007633   3.7395495
  18.9289354  90.5738788   5.1345653  17.9695486  95.2117209   7.7896041
  17.5348734  94.5196896   7.2912330  17.4490141  95.9957843   7.6149005
   7.0945320  74.5044327  56.3907623   7.4319229  74.8452234  57.2191668
   6.7757759  73.6275578  56.6045666  99.2089081  23.5753131  83.2289314
  98.8459682  24.4514084  83.0986691  99.9557114  23.5341954  82.6315880
  79.8022509  13.2198107  49.3802023  79.5193195  13.5914028  50.2157259
  80.7213879  13.4757411  49.3032312  34.9984621  80.9399085   3.1845111
  35.2794622  81.8107610   3.4653682  35.4893946  80.3378706   3.7437743
 108.9411259   6.1416924  71.2433958 109.3992805   5.4138821  71.6636610
 108.0218506   5.8749914  71.2381554 106.1724307  31.4948660  13.7237567
 106.0113575  31.9052034  14.5734042 106.6468527  32.1586900  13.2232684
  71.5939630 102.6830726  30.5788535  71.4940942 102.5729279  31.5244407
  71.5626038 101.7925124  30.2293509   1.5444172  14.9198299  35.4852694
   1.7677295  15.6924587  34.9662131   1.7971075  14.1794925  34.9336547
 100.9039404  40.6972891  30.4314250 101.8051245  40.3839021  30.5081386
 100.9245207  41.5790659  30.8032817  32.9600263  22.8959966  92.1096325
  32.3836851  22.7001953  92.8483582  33.7396765  23.2811809  92.5096416
  15.0289333   5.9094721   3.3729953  15.8136690   5.6556040   2.8872222
  15.3556478   6.4583402   4.0858954  44.5964420  22.8085952  52.7985972
  43.6497677  22.8652960  52.9282969  44.8943985  22.1978765  53.4727496
  71.5654625 100.7859569   5.2245730  70.9161366 100.0827794   5.2120894
  71.2709130 101.3959937   4.5483130 108.2936408   8.2018238  51.2633533
 108.3989622   8.7946087  52.0074958 108.3409979   8.7709575  50.4951877
  90.5362428  93.6123328  12.9893798  90.5313696  94.4672065  13.4199637
  89.9092020  93.0891018  13.4886664  23.1730294  31.0538697  71.9111347
  22.4504733  30.8247614  72.4956512  23.7964177  31.5167212  72.4709463
 112.6902082   1.1327797  21.8522853 112.8486087   2.0555454  22.0514029
 111.8439772   0.9422594  22.2570437  25.6776798  12.2892099   3.8073749
  24.7953689  12.6085191   3.6181659  25.7558525  11.4840275   3.2957095
  87.3893179  78.2441001   8.9104766  86.6216673  77.6982312   9.0807075
  87.0285572  79.1037374   8.6934298   1.2065780  17.6541906  28.0858630
   1.3583267  17.0130258  28.7802047   1.9005287  17.4857288  27.4484557
 113.3630575 103.0411153  25.3431910 113.7575973 103.8962464  25.1719684
 113.4227813 102.5781302  24.5075435  83.9773382 106.1655431  19.2346782
  84.4174875 106.9028573  19.6576137  83.3057131 105.8961396  19.8612422
  55.2830971   8.4928518  40.1770133  55.1417911   8.8305908  41.0614318
  54.4063270   8.2743841  39.8611278  91.5942157  99.9464564  27.2503299
  92.1476568  99.2402654  26.9168204  92.0837558 100.7459931  27.0571441
  65.6372966  83.1159501  24.3691749  66.4971746  83.2641797  24.7627086
  65.1140178  83.8678484  24.6467704 103.2700552  99.4078021  28.2517451
 103.9160837  99.5383935  27.5576037 103.7789596  99.0830188  28.9945525
 107.7714075 104.9597506  61.0659331 107.4060835 104.1901116  61.5023059
 108.6926664 104.9675946  61.3256568  85.5742897  86.7992167  43.9787692
  86.3273348  87.3807244  44.0836638  84.9187101  87.1446280  44.5846862
  97.1490921  93.9351706  20.1631373  97.5467981  93.6694531  19.3340129
  96.2366546  94.1218572  19.9421519  13.2030952  17.4813467  38.2542247
  13.0489767  18.0309635  37.4858493  14.1268480  17.6176315  38.4647960
  45.9923124  66.3858366  93.3385372  46.1047840  66.4722300  92.3919106
  45.1401854  65.9619808  93.4407997  14.9467027  25.5571657   3.1207866
  15.1994264  26.4803510   3.1304950  15.6008852  25.1239877   3.6690825
 100.7034982  76.7257099  34.6613616 101.2278665  77.5262527  34.6414298
 100.8004869  76.3539629  33.7846488   2.5881647 101.5548425  25.8080310
   1.6501879 101.5631013  25.6173057   2.7348494 100.7198911  26.2525100
  66.4094771 102.6262479  32.3871726  67.2267998 102.5347905  32.8769225
  65.8339657 103.1196265  32.9716414   4.0729845   9.0539604  37.4164885
   4.0241373   8.6749464  38.2940978   3.2396353   8.8199716  37.0078200
  92.8228344 105.0340610  29.9664325  92.5537361 104.1259437  30.1047725
  93.7614835 105.0369363  30.1539630  91.5883411  88.7865572  32.4831695
  91.2711443  89.6467476  32.7582854  92.4406112  88.6978655  32.9097861
   2.5873220  20.5762010  10.1336974   2.1019161  21.3836771  10.3027934
   2.1497619  19.9165445  10.6718749  41.4808834   9.5658832  25.5030459
  41.7036426  10.0860792  24.7310275  42.3027599   9.4934087  25.9883231
  67.6644195 106.3809400  50.5975265  68.2644333 107.0771031  50.3300017
  68.1967415 105.8028178  51.1440009  19.6929014   4.1525989  28.2581729
  19.9103725   4.9239259  28.7816161  19.4900120   3.4749466  28.9030475
  93.6036600  85.5677919   0.6759757  93.2582916  84.7225528   0.3887099
  94.1128458  85.8845406  -0.0701028  49.7839355  40.1922417  88.9843750
  49.5876360  40.6243896  89.8156071  50.1938581  39.3645668  89.2356682
 107.5746502  90.7159595  29.9184627 107.1952070  90.8376389  30.7887763
 108.2790674  91.3623695  29.8717803  56.4487410  74.2632914  74.9886799
  57.1648598  74.7098255  74.5370007  56.8831825  73.7081623  75.6362343
  76.9078339  89.2385678  15.3129405  76.0104145  88.9130406  15.2429217
  77.2914876  88.7313085  16.0282916  11.3457083 102.9829268  29.3899363
  11.3412165 103.3092265  28.4900779  10.5622839 102.4362903  29.4504088
  98.1357444  99.1196160  54.7184104  98.2567133  99.8324161  55.3457278
  98.4201873  98.3358912  55.1886195 108.9177812  69.6925621   0.4355830
 108.0239977  69.6917825   0.0929660 109.3553175  70.3998380  -0.0382787
  96.9985212 108.6513524  19.8166961  96.0717500 108.4558825  19.9549884
  97.3425640 108.8143449  20.6949347  57.1028757  44.7928858  92.3654556
  57.2268963  45.2202463  91.5179729  57.1120167  43.8568878  92.1653175
  82.1980060  89.6811252  21.0247058  82.0482458  89.2515092  21.8668670
  83.1189836  89.9408345  21.0487384  41.3754642  10.4883962   5.6711501
  40.8879507  11.0043436   5.0289935  40.8085048  10.4678636   6.4421004
 106.8462003 103.5956721  31.7778415 106.7590154 103.9504914  30.8931178
 107.7891220 103.5917859  31.9425029 112.1535124  89.1280155   2.7971477
 112.7627767  89.8658900   2.8209800 112.6666845  88.3834486   3.1110114
  48.8002002  15.6561714  49.4645900  48.2564056  14.9044138  49.6999473
  49.3280781  15.3485923  48.7277240   1.8583048  28.6853700  51.2109012
   1.6309726  27.7919775  50.9532184   1.2190759  29.2353063  50.7579249
  94.2482437  72.1147840  32.6278895  94.0217317  72.3526304  31.7288035
  95.0608457  71.6155665  32.5460929 111.8445113  20.1920515   9.6756286
 112.7064636  20.3345209  10.0667399 112.0145562  19.6306949   8.9191836
  58.5017300  65.7099915  88.6006069  58.1525946  65.4558563  87.7463531
  58.1111288  66.5665340  88.7738132   1.8193230  74.7656202  91.5710354
   2.1014114  74.1391182  92.2374821   0.9101765  74.9623728  91.7968082
  17.0085609  15.8101707  47.2095984  16.5146768  15.5644422  47.9918593
  17.0827711  16.7630106  47.2626895 101.8703391  16.1143976  22.5787944
 101.6138484  15.4699522  23.2384509 102.7472165  16.3922172  22.8436202
  94.9593176  99.1272597  19.5481128  94.3898166  99.2786317  18.7938041
  94.4740976  99.4871335  20.2906054  33.8233471  65.1754141  64.1525316
  34.5513749  64.6433687  63.8313770  33.2510042  65.2817917  63.3927011
  48.1357956  47.0238256  85.7492256  48.5730028  47.2582674  86.5678310
  48.3603096  46.1033773  85.6128597  35.9065938  60.2002335  83.2583618
  35.1722789  60.0019836  83.8394928  35.7905746  59.6081448  82.5152588
 111.0519947 108.4804969  43.2020587 110.4474844 109.0767531  43.6439532
 110.5078567 107.7373033  42.9416675  65.8300198  79.2207270  63.3274573
  65.5998148  78.3216314  63.0932254  66.1892999  79.1532617  64.2121047
  27.0414770  28.0438238  45.5997104  26.7883194  27.2740846  46.1092681
  26.8141783  27.8191381  44.6974486  50.2459574  68.3972216  87.0497799
  50.1622963  67.7091932  86.3895893  51.1871624  68.5622263  87.1057987
 106.2087930 101.3378053   6.1506194 105.5877556 100.9096007   6.7398471
 106.1113132 102.2715383   6.3373488 114.8753990  99.5923333  46.1708755
 114.7104944  99.0946202  46.9717044 114.0040792  99.8217444  45.8477611
  14.0822351  20.3837639  28.2782763  13.7822140  20.1820808  29.1645831
  14.0366590  19.5479494  27.8139895  98.6392691  11.7515808  28.9898890
  98.4305670  11.0992199  29.6585387  99.5216229  12.0486408  29.2122382
  85.5252756 106.1608987  27.9295749  85.4810060 107.1123080  27.8342360
  84.9188436 105.9632306  28.6432952  44.5125873 103.7589555  43.0333156
  43.8377709 103.9314513  43.6899013  44.2505540 102.9301124  42.6325816
 108.7083925  66.3181322  24.4279403 108.9291013  65.5371599  24.9354857
 107.8082956  66.5222375  24.6817130 114.6793665 104.6711545  27.6805133
 113.9607967 105.1770263  27.3010653 115.4540170 105.2169471  27.5453681
 104.5830406  63.2733922  19.0742606 105.3669990  63.2546722  19.6231574
 104.4308675  64.2032533  18.9056415  91.2177551  19.4178205   8.5641211
  90.2914512  19.2156130   8.4325809  91.3369262  20.2736383   8.1522864
 113.2347062   7.9695135   8.6204165 113.6968329   7.7892214   9.4390506
 112.5816491   8.6290985   8.8542766  87.2832979  96.1751227  59.6362037
  86.8034757  96.8298202  59.1288966  86.9071115  95.3381591  59.3638057
  15.2596033   1.1807209  51.0693664  15.2105797   0.2685362  50.7834548
  15.4621446   1.1283975  52.0034331  21.1509359  26.7828756  28.0212134
  21.1293781  27.4205213  28.7347716  21.7812574  27.1428781  27.3972529
  61.5459585  80.9458828  77.7014160  61.8869400  80.9180069  78.5953856
  61.3438272  80.0336361  77.4936199  86.7984546 106.0542016  32.3434562
  87.0086778 105.1553397  32.5965995  87.6461662 106.4511590  32.1433372
  32.2214544   1.8003088  41.3656920  32.4144638   2.4386221  42.0523852
  32.6307094   0.9902197  41.6698283  85.6713327  26.3323885  44.5359630
  86.2724116  26.9177633  44.9966926  86.1675354  26.0298544  43.7753791
  25.8519733  28.0530649  51.3365478  26.5160501  28.5503584  50.8591289
  25.6873262  27.2857671  50.7884807  26.1045397  30.2990156  41.8092650
  26.8819654  30.8573442  41.8197555  26.4500606  29.4084268  41.7485827
  48.1381214  11.3254409  32.6671618  48.6914146  10.5748230  32.4511451
  47.2438133  11.0068803  32.5447959  28.0603493   0.7601934  46.7228145
  29.0086067   0.7702547  46.8529624  27.8637064   1.6098600  46.3283175
  93.6337293  88.7996798  25.3830642  94.0037359  87.9595952  25.1118010
  94.3844284  89.3926434  25.4158229   3.6304068  79.2066579  34.2708701
   3.9652132  79.9490170  33.7678451   3.1663012  79.6057897  35.0067538
  38.0019045  36.0715127  86.3180351  38.8741875  36.1292672  86.7079258
  38.1458354  35.6509113  85.4703236   6.8550527  22.8480774   7.4201888
   6.8405569  22.5154930   8.3176345   7.7852237  22.9135566   7.2040194
  19.4747865   3.5846000  23.8796824  19.8215521   4.0916544  23.1455916
  19.4621456   4.2010694  24.6118278 100.5397476  98.8306909  27.8947562
 100.3053678  99.3656449  27.1363849 101.4951242  98.8753753  27.9333228
  98.8476753  50.6750536  77.8453445  99.0177155  50.7257223  76.9047356
  99.6471977  50.2988195  78.2133532  -0.1049114  98.9105182  15.7668036
   0.7112526  99.0340238  15.2821845  -0.1511217  97.9670529  15.9216136
  78.3669556  78.7369018   8.0304450  77.8337420  78.1174140   8.5285872
  78.0811561  79.5980887   8.3352488  28.9363550  96.5469604  26.0261554
  29.6223044  96.0527568  25.5772990  28.2387423  95.9084134  26.1738795
  88.9382076  41.1400795  90.8887100  89.0287781  40.6552410  91.7090511
  88.6491585  40.4846716  90.2537918  18.5447991  59.7187567  92.8104305
  18.5729241  58.7748289  92.9667377  18.6186576  59.8064709  91.8601227
 103.4674801  43.3392458  52.6227778 102.6465667  43.5210876  53.0802268
 103.9226211  44.1810982  52.6037330  70.9384693 108.2472949  22.4878901
  70.5526699 107.8096871  23.2467669  70.7065977 109.1692452  22.5995559
 108.2430723   5.8716827  43.4636516 107.8959396   5.4330784  42.6868934
 109.1750862   5.9858852  43.2777995  45.4423141  45.6117868  87.0063210
  45.5373430  45.8642721  87.9247189  44.8017454  46.2292194  86.6532230
  91.4671625 109.9183564   8.0507010  92.3243345 109.7974353   8.4591979
  91.6019977 109.6755795   7.1346778  49.0685547  32.7134901  31.8718165
  49.5132816  32.3259073  31.1180133  48.1724346  32.3813539  31.8180293
   1.8293464  25.9977346  29.6255225   2.3128069  26.7443185  29.2718142
   1.6261471  26.2490850  30.5264968  44.6316326   9.2112833  23.8009089
  44.0011204   9.7168880  23.2880229  45.4855907   9.5496326  23.5316485
  18.5576093  16.1167341   1.4894790  17.9413450  15.4529052   1.1799830
  18.4145487  16.8650585   0.9100169  93.3562435  74.0359788  49.7576732
  93.1568350  73.2449441  49.2569465  93.0280603  73.8514595  50.6377238
   3.8429344  18.7108188  18.3695811   3.4404600  18.4152895  17.5529307
   3.3085621  19.4560581  18.6439818  32.8847206  11.8631607  29.8144645
  32.5156296  12.3477274  29.0760821  32.4078977  12.1896225  30.5775470
   5.8609283  36.4658552  19.6893615   5.8208502  35.5096632  19.7073192
   6.7800224  36.6703325  19.8616427  16.7931497   6.2900739  11.9344729
  15.8593834   6.3131433  11.7252177  17.0331466   7.2081142  12.0603198
 111.9619205  22.1301943  30.6416148 111.8515541  22.9938751  31.0392302
 111.8538644  22.2831016  29.7029036  26.7095268  45.5786901   2.6099891
  26.9461286  46.0359007   3.4169597  27.5074518  45.5969625   2.0815867
  91.0574640 107.7823930  27.6875514  91.1377014 108.5082631  27.0687598
  90.5691732 108.1489615  28.4247321  35.6035173  47.1412378   8.5390109
  36.3586605  47.7172094   8.6583537  35.8766973  46.5260511   7.8584594
  36.4088857  43.6777597  47.4065703  36.2237776  43.4785181  46.4888114
  36.7317665  42.8533083  47.7702350  88.4294369   2.9093080  15.6024569
  87.6363393   2.6141458  15.1551265  89.0686538   3.0321174  14.9006385
  44.4541252  24.9547582  37.7670115  43.6215675  24.9900108  37.2960299
  44.6748436  25.8713918  37.9322356  85.2660097 107.8519397  33.9519423
  85.4839433 107.0856814  33.4212893  84.3169702 107.8020482  34.0662497
  24.1161001  11.2402969  47.1250266  24.7764099  11.8528181  47.4491233
  23.3357227  11.4320951  47.6450843  14.9751079  21.3751941  44.1780204
  14.9282444  20.6032139  44.7420043  14.1260422  21.4014059  43.7368506
  50.0246954  75.4652214  88.2091808  49.2386675  75.4175520  87.6650143
  50.2004194  76.4022684  88.2945728  85.0714601 109.8965697  48.1723422
  84.7861637 109.0288453  48.4585017  85.1157058 110.4118543  48.9777965
  39.2814279  74.6418476  88.2466125  38.3416677  74.4778347  88.1680012
  39.6829319  74.0391874  87.6206589 106.1478116  13.9964777  14.6012992
 106.5361049  14.8477560  14.3993587 105.5848195  14.1632896  15.3572387
   6.5223968  11.8968969   7.7633876   6.7129457  12.6174122   7.1627349
   5.5697668  11.9079452   7.8561133  12.4213064   1.5828424  24.3754786
  13.0556095   1.9794899  24.9726027  12.7802313   0.7159191  24.1861266
  28.3028448  17.7513891  63.6349219  27.8024614  18.4817653  63.2710570
  27.7669466  17.4320226  64.3609065  17.9915273   9.0772396  14.2169589
  17.9939878   9.2254453  13.2713050  17.2334183   8.5129839  14.3689937
 110.7109859  24.5178610  31.2693614 110.6115725  24.8186880  30.3661174
 111.4515498  25.0202900  31.6090125  32.0439422  27.4205023  45.2863711
  32.3497141  27.9555135  46.0188407  31.9652307  28.0354314  44.5570678
  74.6808160 109.5155673  40.1995772  75.6070102 109.2853599  40.2730674
  74.2892350 108.7837796  39.7227305   5.2394283  27.1850973  44.0603847
   5.1325929  26.8961054  44.9666423   5.5549658  26.4091402  43.5971660
   7.1317267 105.5047564  13.1309432   6.7988943 106.1235814  13.7809485
   8.0491804 105.7511382  13.0134410 105.1904930 103.9011912   6.2996501
 105.3371204 104.6972661   6.8105334 104.4430269 103.4790902   6.7231578
  96.9223083  88.8678269  71.7715758  97.4817289  89.2201166  71.0793609
  96.6982044  89.6279101  72.3084945 109.9335731  97.6950746  60.8983630
 110.5186619  96.9461637  60.7841987 110.5137361  98.4180932  61.1368674
  25.8003843   5.9261280   8.6830920  25.2908266   5.3042942   8.1635684
  25.4796589   5.8103662   9.5775050  76.7432655 107.5604491  37.9953975
  76.8707360 106.6915755  37.6145476  76.5864719 108.1310754  37.2430438
  21.5803993  37.8713995  36.6408938  21.6388643  37.8354269  35.6861609
  20.8234394  38.4312540  36.8135756   3.7665056  94.5762162  35.1295012
   3.2957338  95.3978114  34.9895591   4.4501471  94.7966628  35.7621688
 107.2650173  17.7039438  59.8604030 107.7252247  17.0109230  59.3869418
 106.5969064  18.0100876  59.2471045   6.5835178   3.7970262   0.4582614
   6.4317310   3.8280588  -0.4863244   7.5078476   3.5638767   0.5447787
 113.9019968  55.2871137  11.9915980 113.8639071  54.4284445  12.4128741
 114.4189956  55.1423841  11.1991424  12.9732203 101.4228969  26.8607825
  12.3542952 102.1425490  26.9843024  12.6037478 100.9099297  26.1420459
   4.2667758  63.9496851  90.2950954   3.5631502  64.1147232  90.9227180
   5.0138140  64.4398880  90.6384182  53.7198257  55.4416752  90.5436516
  53.6455727  56.3569117  90.8139420  54.1465521  55.4786062  89.6876240
   8.7062395   7.9266124  24.0629691   8.6294210   8.8744121  23.9534015
   7.8017986   7.6140361  24.0855712  29.3391168  27.9016214  54.3422145
  29.0977609  26.9761568  54.3034858  28.5105121  28.3697324  54.2396754
  26.9596946   6.0387426  31.8864554  26.5541590   5.1959329  31.6828746
  27.9005564   5.8709770  31.8329352 112.1326806  47.5978189  58.7195701
 113.0338051  47.9078870  58.8093490 111.7356112  47.7648740  59.5743484
  11.4009989  18.7740808  28.0874080  11.3588131  19.7220998  28.2127494
  11.0982263  18.6374670  27.1896857  35.3518522   6.5397602  52.3910827
  34.5671118   6.0670429  52.1136874  35.7636345   6.8206840  51.5739268
 101.7773880  72.5921588  27.3300666 101.2302650  72.2304838  26.6328734
 102.2785248  71.8436818  27.6539153  94.6451868  68.8260047  18.2854194
  93.8607229  68.4125214  18.6458034  95.3602136  68.5005360  18.8322658
  19.4088829  51.0267072  14.7677535  18.6816490  50.6272703  14.2904586
  19.9348867  51.4521509  14.0905971  18.7081182  12.1851831  43.2898635
  18.2339514  11.5818601  42.7176684  18.0900610  12.3838239  43.9932651
  25.0870693  14.7157865  22.6874942  24.9866998  15.5453449  22.2206038
  24.3083322  14.6567016  23.2409495 115.6617321  96.7437701  55.0554294
 114.8513330  96.4777951  55.4898757 116.2501777  95.9973102  55.1683730
  39.6430147  25.5318933   7.3866862  39.3381918  25.4794985   8.2925433
  40.1974571  26.3118749   7.3652858 102.0641102 104.4164901  49.1743583
 102.4879993 105.1391511  48.7114161 101.1464323 104.4660668  48.9067000
  89.9442781  99.1920810  41.1523456  89.6358980  98.2916503  41.0505408
  90.5401148  99.3259673  40.4152698  24.2179001  21.5456873  34.9883956
  23.9513433  20.6363159  35.1233977  23.8367689  21.7840629  34.1433257
  10.9368360  37.9420953  10.4321784  11.3639200  38.5438162   9.8224467
  10.0375927  38.2638651  10.4958457  16.7731846   3.4026628   7.0621318
  16.6546047   3.3179479   6.1160869  15.9782160   3.0245166   7.4379748
  13.5604751   1.4571863  29.1274375  13.3178461   2.2358995  29.6284026
  12.9454792   1.4429336  28.3940810  62.7850521   6.8167120  12.7643699
  63.0794609   6.2722927  13.4945411  62.4589813   7.6160484  13.1778449
  45.7259453  24.4736009  16.8173141  45.1257789  24.1528993  17.4905128
  45.2639663  25.2093130  16.4153880  21.6455543  41.6252809  36.4260501
  22.3980463  41.8613630  35.8836097  21.4519871  40.7191663  36.1858100
 107.9008688 108.9815431  17.3512572 107.8918327 109.2472987  16.4317340
 108.8070024 109.1138511  17.6299209  88.0853237 109.1811423  24.0302009
  87.3147262 109.1978126  23.4626311  88.5160173 110.0215917  23.8740558
  31.6720712  23.0760961  64.8676223  31.3420379  23.8145548  64.3557757
  30.8933819  22.7055793  65.2830619   0.4298079  15.8369260  31.3599700
  -0.0552308  16.5945154  31.0328120  -0.2186358  15.1336294  31.3935012
   4.5332407  78.3597951  17.3321742   4.2501806  78.8962059  18.0726928
   4.5068811  77.4619274  17.6628894  54.2792595   4.9845176  59.8027534
  54.6645439   5.5099445  60.5039805  54.2441070   4.0971809  60.1600093
  71.2017692 101.6347175  17.4626464  70.7733477 101.7333941  16.6123885
  70.5067481 101.3327174  18.0474395  33.3367956   5.4744726  46.6469497
  33.1067169   5.1558595  45.7741469  33.1673658   6.4158588  46.6106338
   4.3500494 107.0646577   0.6392974   4.5842814 106.4251189  -0.0332814
   4.5289110 106.6182570   1.4669246  39.4165409  12.2466188  29.0574473
  39.4336403  11.4383846  29.5699805  39.6699703  11.9760137  28.1749648
  30.3284157  20.8464199   2.1926135  30.1179350  21.0600525   1.2835998
  31.1348760  21.3299232   2.3717135   9.6813429  11.0023266  26.4523334
  10.0973165  11.3737684  25.6743640   8.7658489  10.8820205  26.2000770
  53.8141334  29.7278982  25.3726024  54.3177498  29.4490152  24.6078605
  53.6020267  30.6448847  25.1983184  42.1833599  25.1395612  28.3933085
  41.9282425  26.0006815  28.0622214  43.0884636  25.2530008  28.6833877
  95.2708973  97.7362685  50.8792418  95.2415241  98.2786040  50.0910586
  94.6600975  97.0211940  50.7008475  13.1322264 109.6169667   6.7034930
  12.3662447 109.4791274   6.1462611  13.0646681 108.9387422   7.3755664
  20.4345488 106.5456872  57.7514190  20.1248621 106.2953238  56.8809909
  21.1855387 107.1150498  57.5838393  23.3823383  24.9220043  29.5073146
  22.5027836  24.7803074  29.8573703  23.2388723  25.3667455  28.6719340
   0.8666027  27.4756246  11.4905948   0.6654966  27.8813558  12.3339004
   0.0903452  27.6391416  10.9549445 110.6304039 106.7506032  37.1910686
 110.1760448 106.3403993  36.4551848 111.3367428 106.1414294  37.4060649
  77.1614279  74.2814093  49.9408359  76.6293849  74.3375378  50.7345695
  76.5647138  74.5289426  49.2345065  25.2440059  11.5182930  33.1050700
  24.7920978  10.6802707  33.2037372  24.5961750  12.0932441  32.6976603
  53.2915199   6.5751367  21.0352344  52.7722729   6.6718774  21.8335170
  53.7195862   5.7242065  21.1296004  30.8656299  55.3202062   5.2087707
  31.6465032  54.8278909   5.4619426  31.1343515  55.8135706   4.4337863
 105.8621218  15.1661497  11.3530368 106.4537790  15.3177553  12.0900554
 105.1400354  15.7780700  11.4957732  30.3792608  13.0653577  54.3921489
  30.6858909  12.1799045  54.5875377  29.4704235  12.9484850  54.1154117
 113.0791857  42.3932272  18.2154864 113.5854962  41.9133096  18.8708991
 112.1714356  42.1380048  18.3800429   5.6751417 107.6358609  67.6342505
   6.0532259 108.1563334  68.3430404   5.8601164 108.1400542  66.8418998
 110.0025251  18.6830097  38.5831470 109.7705128  18.1227356  39.3237418
 109.3081739  19.3412357  38.5540217  30.7962930  28.9741903  25.2034492
  30.6460989  29.7093301  24.6091098  30.0282514  28.9672380  25.7746810
  87.7346195  87.1971183  25.8221072  87.8328289  87.2533541  24.8716182
  87.0046486  86.5917401  25.9520740  10.8925855   0.3733640  44.0928000
  10.2277935   0.1521879  44.7449893  10.5142725   1.1038213  43.6033648
   2.2679638  98.0286460  14.5985240   2.7976297  98.7236361  14.2077846
   2.8104567  97.2435288  14.5241755  74.0185322 105.3937726   7.2918147
  74.1270364 105.7354121   6.4042682  73.4092058 104.6620755   7.1939868
  21.3406599  12.5289636  55.8204288  22.2701681  12.4530988  55.6048125
  21.2773502  12.2133022  56.7218608  13.9222849   9.7731023  26.5604991
  14.6068275   9.9533563  27.2048205  14.3793667   9.3379980  25.8407897
  10.7931173  17.7787405  25.6919211  11.2724865  17.7018791  24.8669738
   9.8856342  17.5803142  25.4609889   6.8910492  40.8708673  11.2668342
   5.9862268  41.1477190  11.1223144   7.1456754  41.3010698  12.0831126
  47.4551857  12.3994022  14.0312690  47.1808708  12.6144987  13.1398028
  47.8568638  11.5338236  13.9559955   6.7056787  22.9590707  54.2082614
   6.5459764  23.0254942  55.1497001   6.1117971  23.6007839  53.8187140
  26.6564344  96.1029487  53.8157577  25.7760786  96.1703305  53.4460563
  26.6562056  96.7186742  54.5486373  87.9571022  85.7602935   8.5113639
  88.4099401  85.9416537   9.3349380  87.6485504  86.6162686   8.2141513
  35.5273330  28.4597879  52.8356189  36.2058723  27.9084783  53.2253188
  34.7841156  27.8703409  52.7075023  66.8942261  75.8093691  90.0057030
  65.9590673  76.0099936  90.0438213  66.9398212  74.9640226  89.5590019
   5.0975298 109.3002133   3.6987800   6.0503267 109.2784314   3.7878913
   4.9479364 109.5177512   2.7787131  40.2432239  39.1254717  40.4338283
  41.1612642  39.1320997  40.1629180  40.0780094  38.2204347  40.6981105
  50.9277904  20.7542806   6.3211459  50.5159843  21.5383344   5.9579486
  51.4310062  21.0732179   7.0703238 110.0271132  29.4725805   6.4224357
 110.4807260  30.2369219   6.7777461 109.1031482  29.6310812   6.6158217
  15.4022110  28.5387140  11.3779849  15.8861435  27.8774267  10.8832759
  15.7455480  29.3739992  11.0607356  -0.1911731  43.1753397  76.9104576
  -0.0972180  42.2228956  76.9263315   0.6093203  43.4879827  76.4889193
  73.8270081  73.2948225  24.8787326  73.2880963  73.3764093  24.0918654
  73.6869539  74.1154795  25.3511065  59.8602104   5.0611341  93.1886768
  59.1687584   4.4969109  93.5347652  60.6739378   4.6215984  93.4354305
 111.7072405  79.3787508  29.7145766 111.6554893  78.6539965  30.3376979
 112.4223341  79.1377192  29.1257018  17.6080965  64.2432140  22.9406756
  17.8729414  65.1589780  23.0270785  17.0467924  64.0836077  23.6994189
  41.2919903  14.8656905  93.0495262  41.7317009  15.5350161  92.5252247
  40.3650427  14.9604857  92.8304195  48.1681347  28.3540010  86.7249393
  47.6520014  29.0604019  86.3365650  48.8973999  28.2284832  86.1177826
  86.5897751  10.9705734  77.0096970  87.5268555  10.8085001  77.1185303
  86.2128258  10.1038754  76.8581152  62.6052822  85.4064326   0.7140082
  63.4441603  85.7867079   0.4534263  62.7184857  84.4648581   0.5841845
  21.1923492   6.7550331   7.7501697  21.7903173   7.5024658   7.7531928
  21.7439163   6.0079723   7.5179881  96.3474096  92.8819733  28.2687491
  96.3709511  92.3508911  29.0647620  95.8184875  93.6440401  28.5048121
  95.8623422  83.0584841  14.5485896  96.7479147  83.1821685  14.8902053
  95.3414882  82.8179221  15.3148002  75.7155861  83.2532387   8.2212275
  76.2144412  83.9768748   8.6003322  76.2892426  82.4925690   8.3135814
  93.5089983  31.9092803  45.7297343  93.3448757  31.2782865  45.0289172
  92.7427305  31.8395262  46.2991160 107.8828729  93.3772330   7.7330703
 107.6681484  93.4216123   6.8013209 107.3982586  92.6169686   8.0545920
  93.9148296  79.8361020  21.0570926  93.5814203  79.1845636  20.4401893
  93.2626547  80.5365639  21.0414142 102.4244751  78.4361963   4.7432822
 101.7988313  77.7972608   5.0846976 102.9224743  78.7175016   5.5108088
  74.2434920  99.0525727  19.3357104  75.0888170  98.7063413  19.0497416
  73.8329996  98.3256869  19.8040694  86.1840690  67.6705103   8.1784839
  87.0315422  67.9717462   8.5060138  85.6037821  67.7157598   8.9383906
   1.1769092   2.4297863  30.7468719   1.3050401   3.1935554  31.3094253
   1.9586551   1.8954282  30.8867663 114.1986253  22.1072727   6.7443294
 113.8553336  22.9116970   7.1332854 113.7029197  22.0034652   5.9320849
 101.1228622  87.2081809  29.1482848 100.9706320  86.8345265  28.2802791
 101.7648281  87.9027133  29.0008468  14.0320276  78.9970403   9.9999637
  14.6861528  79.0590553  10.6960315  13.6487936  78.1266217  10.1082820
  62.1031631  45.9200631   5.2085608  62.4930204  45.0462120   5.2335948
  62.7559913  46.4609389   4.7641486 114.9810089  70.1197855  33.8887614
 115.8528913  70.3421049  34.2152995 114.4051040  70.2375452  34.6442050
  34.6065521  19.4008589  86.8230438  33.8492799  19.9727654  86.9483089
  34.6620893  19.2811835  85.8749771  82.2354330  97.7802997  28.5016269
  82.7123750  96.9811015  28.7253303  82.3473800  97.8690438  27.5551528
  73.5738243 109.7028117  12.0167655  72.6266159 109.7307973  11.8817061
  73.6991705 109.0424876  12.6982993 103.3629287  95.7167439   2.8962344
 103.5269130  95.1421409   2.1484584 102.5161661  96.1208158   2.7066440
  90.4856300  19.6909451  87.0655251  91.3714790  19.4071484  87.2912693
  90.5890846  20.1656747  86.2408066  54.9294281  28.0253577  90.7277012
  54.3542862  28.4214401  90.0730515  55.7570505  28.4975338  90.6364727
 110.2323677   7.0951849   6.2759704 109.8522761   7.4605709   7.0748824
 110.3549387   6.1663538   6.4721221   0.6910585  84.7777419  17.4150008
   0.8784556  85.7147865  17.3596686  -0.2089096  84.7321205  17.7378100
  65.6848324  72.1260684  10.3006762  65.6203617  72.2349100   9.3518657
  65.7924427  73.0157332  10.6370467  23.7114954   6.3304836  90.5210972
  23.8181257   6.2744462  91.4706898  24.3380642   7.0009583  90.2488708
  65.8973826  92.5006180  19.9230403  66.6714204  93.0394940  20.0864619
  65.1786388  93.1288748  19.8528022  62.0833921   5.2828014  83.0526352
  62.8809738   4.7648022  83.1611252  61.7119074   5.3378081  83.9330959
  58.3554983   7.1907723  69.7882175  58.5857344   6.9688261  68.8860178
  57.4510908   7.4998134  69.7355032  64.0096951   6.8016958  67.3604870
  64.1443729   7.6208788  67.8369665  63.6040401   7.0683652  66.5355206
  43.9472662 104.6215802  85.4501152  43.0233084 104.8382192  85.5750179
  44.1461264 104.9226447  84.5635223   3.9861559  49.4287478  27.5257606
   4.4685053  48.8127415  28.0772227   3.2070326  49.6482329  28.0366725
 104.4539143 105.0097846  84.1233253 104.3878437 104.0686619  83.9616013
 103.7139512 105.3870880  83.6475849  65.3893126  76.0288172   0.8249682
  66.0104550  75.3525619   1.0953254  64.5370759  75.6988792   1.1096877
  30.8773016  92.4019818  10.6010169  31.6986441  91.9516687  10.7981032
  30.4546618  91.8516521   9.9416560  96.8703521  84.1302257  34.3092841
  96.7621673  84.0168600  35.2535743  96.3608755  83.4180741  33.9226359
 101.3761486  51.7534279  47.0794791 100.6157030  51.2532299  47.3757190
 101.9589962  51.0983227  46.6956061  78.1153477  61.2681084  48.1618232
  78.0293430  60.6690370  47.4202365  77.2173680  61.4073967  48.4625930
  44.3933387  27.5466852  21.8955630  44.2256255  27.5899773  20.9541625
  45.3422881  27.6441197  21.9745177  47.6447487  42.4618149  83.3254242
  47.6767778  43.2266331  83.9001083  46.8490934  41.9985914  83.5873222
  82.9535007  40.9608507  95.2573586  83.0550385  41.9021177  95.3985500
  82.5389099  40.8909988  94.3974400 102.9780401  72.4476998  16.8976134
 103.8930477  72.7287583  16.8968600 102.4771179  73.2626884  16.8643874
  54.9478245  66.1469936  88.9376354  54.6618128  65.4780054  88.3156300
  55.8943129  66.2059593  88.8075829 107.6042522  53.9452768  13.1169814
 107.5503744  53.4555541  13.9376563 107.3865713  53.3039029  12.4406070
  69.2694677  88.2410722  32.2251147  68.3123912  88.2271700  32.2184485
  69.4986643  89.1106086  31.8970794  90.8509840  66.0875456  43.5220069
  90.1222910  65.5528574  43.2068175  90.5103363  66.9820754  43.5194510
  97.0593990  93.1468325   7.0799273  97.4754680  93.8971143   7.5044173
  97.5188030  92.3857384   7.4347705  12.4944769  78.4369230  90.1025200
  13.3689104  78.2256769  89.7754478  11.8988644  78.0082201  89.4879532
  19.5774448  30.2808481  50.2540416  18.8429249  30.8841043  50.1408881
  20.0433719  30.6121259  51.0217589  80.1127638  71.0884099   8.8293666
  80.4430259  71.1451046   7.9327315  80.8623804  70.7859807   9.3420428
  10.4692530  68.6385422  16.9300765  10.6276106  67.8263562  16.4489287
   9.9585985  69.1785829  16.3269156 115.5839647  85.1579719   6.3036365
 116.0739769  84.6052461   5.6948585 116.2489189  85.7120304   6.7124003
  47.4694490  36.8805408  74.4284391  47.1491814  37.0942116  73.5520792
  47.3349714  37.6817894  74.9345493  89.4240678  92.6193099   6.9620341
  88.9602531  91.7923980   7.0936507  90.2808822  92.3618107   6.6217441
 114.4700302  84.2940693   8.7708777 114.1310943  85.0679069   9.2209167
 114.8221315  84.6311169   7.9470748  56.9449139  31.8717980  88.2660294
  56.4405966  32.2756743  87.5597858  57.8512621  32.1218061  88.0864143
  90.5929483  90.0488095   2.4639720  90.6178249  89.7503285   1.5548438
  90.6590475  91.0019045   2.4050445   1.9683050  94.5285778   5.0871676
   1.7023872  94.4832044   4.1687697   2.2519850  93.6391668   5.2986068
  76.2460804  24.3059611  77.7137804  76.5141153  23.9259863  78.5504436
  75.7708216  23.6020541  77.2723341  51.0376860 104.3969731  16.9786853
  51.6913391 104.8849444  17.4795455  51.2875010 104.5309167  16.0644168
  59.1503191  25.2524471  80.3766632  59.6517611  26.0567856  80.2431393
  59.4186735  24.9437857  81.2420750  57.5435830  65.2700906  16.1383933
  57.1790923  65.2079670  15.2554912  58.4016145  65.6761126  16.0152644
  65.3227615  15.6258857  74.7499895  64.4217491  15.7760286  74.4638777
  65.8606100  15.9496653  74.0274096  38.4783387  31.6791868  91.9620895
  39.0571547  32.4414873  91.9721127  37.8065062  31.8970561  91.3160229
   9.1215490  66.8392401  24.9011630   9.6699118  66.0685198  24.7544307
   8.6944079  66.6728191  25.7414454  71.7072524  93.9469342  24.3265933
  72.2592438  94.1446905  23.5700053  71.7003955  92.9909711  24.3747443
 115.6408228  97.8607469   4.6529979 116.3416637  98.5041051   4.5474547
 115.8603967  97.3978476   5.4615420  58.1366206  66.9684224   9.6950072
  59.0898741  67.0269649   9.7591228  57.9211010  66.1252193  10.0935000
  62.3985256  97.7493672  20.5207366  62.9482449  97.5030951  21.2646312
  62.5045837  98.6979060  20.4481906  61.8160486  33.9267230  86.5853214
  62.4145222  34.0104318  85.8429909  62.3551846  33.5633516  87.2878361
  13.9671456  98.8084268  88.1941509  14.5802819  98.7708210  87.4600601
  14.1847407  99.6234750  88.6464500  48.4026003  34.6428895  86.5015602
  47.4458361  34.6322751  86.5284252  48.6694241  34.1419244  87.2723198
  79.3166841  90.1536446  22.3369807  80.0140918  90.0217967  21.6947383
  78.5526766  89.7238307  21.9525546   0.3832899 106.9625630  83.5152340
   0.8549510 106.6742998  82.7337742   1.0623204 107.0586588  84.1829967
  87.5858082  60.6563996  21.2666053  87.8460134  60.9838562  20.4056186
  88.3910955  60.6759052  21.7836684   4.4790052  77.2891955  11.8294925
   4.9610304  77.8807263  11.2515849   5.0799727  77.1210055  12.5552958
  75.5376625   2.3189780  80.2455139  75.2409554   1.6524085  80.8650970
  74.8850203   2.3027584  79.5454979  79.8803486  92.0152979  28.7579459
  78.9622272  92.0409803  29.0274352  79.9188389  91.3164835  28.1049460
  17.0213389  46.6287427  17.9744262  17.9488443  46.7474984  18.1790656
  16.5664457  46.8514334  18.7866515  15.9674334  75.0895362  27.6311320
  15.9935927  75.9578781  27.2292251  15.0770926  75.0108938  27.9737014
  93.7549032  59.8677944   4.1303557  93.4376444  59.7517257   3.2347506
  94.6829809  60.0795822   4.0301246  95.5865968  77.1544771  22.6895732
  94.7819055  77.0986919  22.1742171  95.3278221  77.6131992  23.4888476
  82.6559080  97.8787761  25.9014720  82.1596111  97.2587113  25.3672046
  83.5184158  97.9144959  25.4879207  85.5239738  38.5545926   2.3497027
  85.5062164  38.9539366   3.2194442  86.4517463  38.5324256   2.1152228
 115.0807394  76.9376616  14.0737170 114.9044050  76.1805277  14.6321887
 114.6953310  76.7067842  13.2285041 101.8771805  50.5644025  11.4611835
 101.1616720  50.5205964  10.8268565 102.4746288  51.2210895  11.1033362
  48.4519625  64.1826439  92.1416569  48.5554266  63.4775925  91.5025711
  47.8064489  64.7697639  91.7481613  79.7786487  41.8475525   2.2388095
  79.8274339  42.7076046   2.6561469  79.7004045  42.0389299   1.3042087
  19.5882105  79.4980411  27.5822562  18.9336466  79.7714763  26.9395942
  19.1829752  78.7601213  28.0377597  81.8790163  91.8314795  44.0849036
  82.6959337  92.2735004  44.3161887  81.6310419  92.2119837  43.2423228
  87.2821773  90.5470495  18.2011527  87.7931036  90.4109030  18.9990539
  86.3717378  90.5462699  18.4966773  23.0755138  24.0630746  82.4340153
  22.5827742  24.4741130  81.7237377  22.4126792  23.6074924  82.9529762
 113.2454742  57.5713922  29.7057170 112.3334421  57.7722480  29.9156684
 113.4616865  58.1641470  28.9859027  56.3254595   7.7486044  86.9586182
  56.3395929   8.6245251  86.5728760  56.8450022   7.8306705  87.7583504
   4.6349024  91.6618447  14.2933196   5.0054621  92.5136285  14.5243758
   4.9737047  91.4832621  13.4160823 105.7910789  68.1592755  12.5112075
 105.4470314  68.7133996  11.8106288 105.5999578  67.2658710  12.2256679
 103.6664451  79.3851380  13.9512652 104.2203249  79.8923116  14.5447463
 104.1243805  79.4159250  13.1112784 116.1768593  70.3971438  11.4923400
 115.4897655  70.9439831  11.1114043 115.8203138  69.5093183  11.4627761
   0.6757187 105.7280450  41.2852401   1.4868330 106.1918740  41.4930743
   0.6260513 105.0286536  41.9368667  39.7654533  22.2899413  92.4414921
  39.4598746  22.8946829  91.7653751  40.7112455  22.4320912  92.4802589
   8.4531868  13.4695011  56.2828082   9.3733871  13.6438041  56.4805049
   7.9820001  14.2111927  56.6624278 112.0026303 107.9663179  77.0004511
 112.8896857 107.6070506  77.0174408 112.1113373 108.8845643  77.2479105
  48.8569069  42.2659683  87.3640633  49.6689177  42.7626991  87.4647141
  49.0453720  41.4158106  87.7614784  40.5036783  26.0213733  71.9317245
  40.9199619  26.0944700  72.7905560  40.6294823  26.8813252  71.5306139
  85.7512296  94.4432502  17.2973746  85.0804580  94.1417294  17.9100627
  86.3930668  93.7334304  17.2765559  39.1545200  25.6182313  74.5964622
  39.3212676  25.7603574  75.5282497  38.2200003  25.7962227  74.4905043
  96.1212553  83.3418589  11.7295379  97.0424856  83.0895095  11.7918605
  95.8192075  83.3719091  12.6373309  93.8725723  95.6333880   9.9635333
  93.3586658  96.4266686   9.8124045  93.3106006  95.0845246  10.5104846
 111.4355768  96.7536693  14.5662612 112.2739042  96.6018300  14.1299266
 111.1317362  97.5912528  14.2164439  64.0794373  34.1617823  84.8509121
  64.5750856  34.8532152  84.4121742  64.5339298  33.3535910  84.6132278
  57.9253101  48.6461163  94.4439697  56.9689655  48.6058331  94.4397926
  58.1395292  49.3187094  93.7974739  15.7148730  90.2365505  84.6763706
  15.1839291  89.8863816  85.3917122  16.3048683  90.8605122  85.0992298
   1.9728554  10.0569444   9.4516486   1.4914215  10.3623157   8.6827582
   2.8666246   9.9221092   9.1366405  73.5622371 108.4546761  71.1490172
  74.2083729 109.1293530  71.3577193  73.9836301 107.6331763  71.4016074
 100.5841078  73.2672279  10.0073546 100.7547630  73.9757161   9.3867511
  99.9467291  73.6339371  10.6201381  77.4612474  16.1268747  67.4616718
  76.7551517  16.7580676  67.6004362  77.0219851  15.2766502  67.4417305
  56.6710437  59.9308150   3.4399337  57.1604789  60.5408304   3.9918059
  56.8661452  60.2082400   2.5448340  96.8758930  72.9203062  15.6614322
  96.1938728  72.2496169  15.6968612  96.9397653  73.1482022  14.7339553
  81.7541708  88.5525255   2.6238460  81.3990081  88.6412077   3.5082835
  82.3797525  89.2725568   2.5436515  94.9449348   7.2476655  84.9396610
  95.1500225   6.5942216  84.2709446  95.7953548   7.4912852  85.3052521
  60.7327747  14.9674225  73.2442379  61.4192390  15.6237817  73.3633661
  59.9153328  15.4609060  73.3112478 107.8860964  83.6647444   4.7301692
 107.5104059  82.8894048   5.1472301 107.2900594  84.3758087   4.9654693
   7.3513115   8.0881744  16.5229529   7.7209509   8.2564502  17.3897189
   7.8529680   8.6527782  15.9349078 102.7240909 102.5784974   6.7686194
 102.6920665 103.5174231   6.5852279 102.0478071 102.2013526   6.2059230
   6.7010473  81.1326342  10.9209746   6.1760401  80.3953915  10.6093997
   7.2672438  81.3529949  10.1813239 112.2939695  94.3814068  18.1141776
 111.6722454  94.8796921  18.6446494 112.7113784  95.0369840  17.5554103
 102.6415027  84.6243100  10.3253669 103.3241762  84.4195394   9.6864146
 103.0803360  84.5600634  11.1736220  45.8444488   0.4232412  22.5959319
  45.7939232   0.7383924  23.4983558  45.4522026  -0.4494280  22.6246852
  22.9516768  54.6022379   5.1923484  23.6539721  55.2184536   4.9842948
  23.3338522  54.0147388   5.8442801  64.9414529  82.8488545  18.5154456
  64.4051994  82.1400862  18.1600398  65.7075466  82.8800325  17.9424113
  40.3749931  13.4322458   9.5851439  41.2957466  13.5583788   9.8143691
  40.2492988  12.4837118   9.6118278  88.7933506  99.4462447   9.1627234
  88.8142790  98.5624175   9.5296496  88.4905733  99.9979119   9.8839873
 110.0302662  65.5330603  14.5495910 110.8711494  65.6328158  14.9959010
 109.9218620  66.3472943  14.0581626  75.6530822 109.2802863  23.5129470
  75.0075067 109.6269708  22.8970927  76.1890877 108.6854320  22.9884643
   6.5953802 104.4989686  56.6234511   7.3841356 103.9650207  56.7183131
   6.7664503 105.0446706  55.8558768 112.8392913  18.4102350  33.7676925
 112.3938014  18.6215406  34.5881289 112.3503139  18.8900381  33.0991668
  21.4713549 100.8311944  39.8557872  21.2807058 100.6802802  38.9299888
  20.7764982 101.4198594  40.1505584  85.2953829  77.7018337   4.8522967
  84.4906105  77.3109298   5.1925391  85.3000845  77.4702506   3.9235419
   9.2047476  92.9210429   0.6418056   8.8802122  92.0568113   0.8948058
   8.5689711  93.5334258   1.0119456  79.8789848  73.7518995  14.5099658
  79.8232187  74.3981235  15.2138919  80.3177656  73.0005007  14.9088401
 116.1460354   6.7451435  15.3600902 116.5222933   7.4942833  15.8220977
 116.7234375   6.6128021  14.6082133  59.3862451  75.6485372  21.0277003
  58.5235943  75.6902223  21.4404124  59.7091736  74.7717993  21.2357444
  24.0356338   6.3632684  23.6973399  24.8285520   6.8926244  23.7827033
  23.7086427   6.5614801  22.8198260 115.1810659  72.1042352  14.7945422
 114.2301811  72.1344142  14.9001044 115.3320087  71.3774984  14.1901416
 101.2939705 101.8823533   4.5597667 101.7235674 101.7167764   3.7205619
 100.4334320 101.4721827   4.4733638  33.5725916  13.1238418   6.9422072
  32.9620874  13.5242754   6.3231963  33.0384577  12.9262596   7.7115554
  25.8760107  13.5040813  20.5447597  25.5970609  13.7190157  21.4348239
  26.8213117  13.3712965  20.6155032  71.0312427  76.8511133  38.6002273
  71.3330640  77.7069716  38.2958526  71.7060245  76.2400656  38.3043784
  70.0559367 104.4525819  40.2386493  69.8114289 105.0651221  40.9323710
  70.5339302 103.7572484  40.6906051   5.9832930  82.2125964  22.2511977
   5.0718283  82.4514942  22.4196452   5.9384893  81.3157611  21.9196624
 104.5751060  99.1735272   3.7638682 103.8675703  98.9117103   3.1747455
 105.3668703  98.8182168   3.3600253  70.3046119   9.0193182  33.5746879
  69.7842205   8.2485777  33.8013572  70.7629287   8.7711960  32.7718085
  60.3677034   2.4296416  89.3194294  59.9207497   2.2634619  90.1494026
  59.8555231   1.9468626  88.6707211  53.7489986  12.0110750  62.3086977
  53.2375717  12.6049900  62.8581858  53.2719755  11.9815958  61.4793539
   7.2001719  88.0044179  11.0586471   8.1288313  87.8594975  10.8774585
   6.9714998  87.3262958  11.6943282  21.0373377 106.8092637  48.4195060
  21.3216852 106.7269998  49.3297881  21.4004969 107.6461892  48.1298465
  92.2601761  96.1099248  21.9363040  93.1829847  96.0462909  21.6901130
  91.9850029  95.2030044  22.0704955  13.5878061 107.2149758  23.0341548
  12.8186010 107.4180608  23.5664195  14.3312239 107.4706416  23.5802382
 106.2158455  95.6936460  32.4997062 107.0970548  96.0449605  32.3721332
 106.3385118  94.7448640  32.5313205  85.4672016  94.0063171  35.6669349
  85.2919306  94.0797667  34.7287864  86.1654819  93.3546405  35.7298297
 106.7334951  79.4002156  28.4964866 107.4640955  78.8357811  28.2437533
 106.9862188  79.7511582  29.3504161  46.5666056  31.1573935  90.5656433
  47.0199490  30.4193807  90.1581573  46.2084341  31.6541934  89.8300266
  30.5268991   6.3638168  19.0170688  29.7692240   6.7074781  19.4904059
  30.5141342   5.4233986  19.1950625  71.1347617  99.5968633   9.3527907
  71.4421071 100.4621272   9.6231383  71.9196762  99.0491586   9.3654078
   2.4796080 102.8012519   3.9667338   3.4310412 102.7180581   3.9028853
   2.3428368 103.5894446   4.4923514  19.4462002   0.4340749  31.9450492
  19.8451078   1.0053497  32.6013679  19.8380697  -0.4244894  32.1048755
 105.0794138  87.8063707  18.7001819 105.8140720  88.3544950  18.9759940
 104.3751014  88.4267144  18.5121650   0.8702873  33.5494738  32.4634856
   0.4791617  33.9217787  33.2538241   0.8162378  34.2520838  31.8156737
 108.2893146 101.2810187  17.9414195 107.3875393 100.9610467  17.9668445
 108.6477340 101.0555940  18.7998790  38.5960865  51.9769859  91.2801266
  38.3039999  52.5099468  90.5406189  38.1800866  52.3778248  92.0433426
  53.0264902  38.0525422  84.5530796  53.5967636  37.6528430  85.2097797
  52.1673393  37.6616645  84.7121334  36.6519821   1.5479332  46.9245070
  36.7641819   0.6350332  46.6594428  36.9063223   1.5624147  47.8471869
  73.3893013  36.7822266  94.2301559  72.6362228  36.1980557  94.3187523
  73.2030296  37.5055838  94.8287296  90.9775938 106.5647225   3.3889312
  90.7500185 106.9982581   4.2114181  90.1452173 106.2277942   3.0574721
  37.8956103  69.6972704  94.8476982  38.6191082  69.9278784  95.4304504
  38.2589579  69.0276957  94.2681408  97.7328409  80.2545814  69.4605559
  97.3881258  79.8519950  68.6634940  97.5251211  79.6285443  70.1542205
  -0.2198530  85.1463418  30.9815425  -0.0582052  84.7522836  31.8387622
   0.6372856  85.1529841  30.5555171  89.6282114  62.1556740  41.6277999
  89.5995535  61.2006282  41.5703696  90.4451765  62.3434244  42.0899123
  99.2929424  96.1016707   7.0037383  99.6567596  96.9565349   6.7733497
  99.3858780  95.5792289   6.2070960  29.0327537  13.2309919  40.6584090
  29.6028698  13.3380752  41.4198131  28.2541025  12.7929168  41.0019511
  72.5411117   1.5646320  13.2039374  71.7882526   1.6746050  13.7847442
  72.1896827   1.7117315  12.3258132  19.5802950  89.4647746  13.5327167
  19.1552900  90.1958280  13.0842036  20.3232645  89.8619132  13.9871520
  59.5351791  30.0960541  88.8601875  60.2292252  29.5502806  89.2298698
  59.9328375  30.4990149  88.0883598   2.0422815  96.3422780   9.2571753
   2.8391718  95.9512763   8.8989753   2.0246195  96.0560327  10.1703948
 108.7819589  98.3720546  28.5704345 108.4172214  97.6721578  29.1120452
 108.6899294  99.1609721  29.1046447  36.7832506  29.6207529  37.6572627
  37.3078430  29.8144823  36.8804091  35.8776605  29.7370821  37.3698634
  56.1413622  40.8067608  92.9549599  56.2858820  41.5928221  92.4282265
  57.0213223  40.4951572  93.1666279  52.0910311  31.6431665  85.3500462
  52.1181107  31.3262606  84.4472408  52.8796864  32.1781254  85.4398632
  96.6968216  74.7107701  30.1657218  97.4331392  74.9089770  29.5871181
  95.9770931  74.4958215  29.5724029  11.9113421  97.8482823  37.0497245
  12.3741030  97.0221143  37.1894759  12.5903868  98.5187726  37.1244163
  72.4111761  71.1047511  29.7501105  72.7479018  71.6508989  29.0397853
  72.4753965  71.6579382  30.5286330 109.7950615  74.9406009  38.8997287
 108.9987863  74.5603495  39.2706508 109.7092928  74.8029189  37.9563731
  91.7216934  97.2597318  10.3672618  91.9550432  97.8289847   9.6339530
  90.8506454  97.5552707  10.6321448  80.4071153  98.4789329  10.9204310
  79.9501814  99.3199162  10.9066981  79.7760690  97.8575234  10.5573100
   8.1700218  23.0746847  35.2109355   7.5228155  22.4335914  35.5048007
   7.6524055  23.7644582  34.7955913   9.8953283   3.3482319  18.4762210
  10.6051910   2.9958349  19.0130156   9.5018423   2.5789266  18.0644340
  99.8383392  76.6152506  25.9806079  99.7470678  77.2165041  25.2414149
 100.5378021  76.9944029  26.5127963   6.7462229  94.6757321  35.5818862
   7.1483110  94.3437223  34.7791881   6.5794157  95.6008248  35.4013080
 109.2573608  76.6981201  30.5921954 109.0748180  77.4347024  31.1755961
 109.2223276  77.0746498  29.7128695  67.2570133  20.8993006  84.0636253
  67.3641109  20.9068751  83.1124687  68.0585814  20.4917288  84.3916702
  38.5590828  14.3789821  22.0880050  39.1175831  14.8672014  21.4830607
  37.6682508  14.5492941  21.7819900   4.6967373  77.6084375  72.8071547
   4.2748795  76.7783737  73.0291128   4.6710549  78.1147909  73.6190510
  78.9943184  95.8087544   3.7914390  78.9837564  96.6932921   4.1571063
  78.2570113  95.7930284   3.1812304  10.4855036  87.6199012   4.1268176
  10.6984972  87.1901016   3.2984847  11.1754583  88.2732968   4.2419738
  86.2555517  90.0290947  49.3764514  87.0141090  89.5667677  49.0199679
  86.2660087  89.8216729  50.3108424   7.4761938  88.0112009  15.3965587
   7.7458452  87.9466872  14.4803924   6.6480993  87.5327973  15.4367656
  19.0695751  18.5836082  14.0323466  19.3788231  19.3446165  14.5237369
  18.3987320  18.9335399  13.4460467  20.8397281   2.8131109  13.1001681
  21.4221227   3.4638410  12.7082461  20.0284851   3.2908922  13.2729167
  97.6359237 103.9079432  20.5421084  97.1322979 104.3884282  19.8850459
  97.2233404 103.0448966  20.5761451  95.3983129 107.5276236  10.8183021
  95.8007587 108.0244117  11.5306777  95.0975002 106.7180400  11.2310046
  90.0759758 106.6817479  36.6324920  90.3970541 106.0030560  37.2262305
  89.1485799 106.4767652  36.5135688   8.5208738   8.6832290  30.3219718
   8.3992136   9.4338470  29.7405929   8.8962925   8.0043464  29.7612590
  11.0745847  12.1813780  17.8837604  11.1070287  11.2308746  17.7754706
  10.2367866  12.4378877  17.4983710  22.2125471   7.3960214  52.5034255
  22.5712669   7.6114422  53.3643264  22.2682560   6.4417940  52.4526805
  13.3178782  60.7198595  51.8460769  14.2332434  60.4425942  51.8078441
  12.8436255  59.9409311  52.1369285  25.5053413   2.8425365  68.3573073
  26.0139883   3.5994011  68.6482924  25.6072843   2.8370243  67.4055594
  26.1694789  23.6350513  77.8539181  26.4827895  22.8229475  78.2521057
  25.2158546  23.5526323  77.8604174  45.7723606   0.0102430   7.9270858
  46.3923157   0.7050234   8.1488151  44.9111641   0.4054647   8.0626220
  81.3119520  98.4317260  54.4075221  82.1617044  98.4616332  53.9679069
  81.0933269  99.3495469  54.5688743  47.0771396  15.4571682  33.6487502
  46.2535846  15.3419882  33.1747073  47.7120388  15.6925302  32.9721850
  81.2021126  73.1422608   1.3231868  81.2527384  72.2754626   0.9202880
  80.3518690  73.1527810   1.7627353  48.1854820  76.4618015  80.1866150
  48.8066196  76.9863892  80.6918144  47.7754116  77.0864487  79.5883751
  62.6756275  25.5115705   5.1326961  63.3078563  25.3412538   4.4344825
  63.1849754  25.4393011   5.9398955  75.7199849  94.3511395  30.0908202
  76.0627736  95.2310996  29.9346179  75.4877533  94.0266280  29.2207736
   5.0527357  89.7454267   5.0642318   5.3527521  89.8489099   4.1611690
   4.4773554  88.9808707   5.0393409 114.3596185  98.9671569  37.6932448
 113.9782060  99.2446761  36.8603343 114.5695413  98.0422215  37.5641841
  30.3577398  94.6797256  24.2876739  29.5938562  94.2899971  23.8624400
  30.8378386  95.1033359  23.5761279  68.3734025  88.0752234  14.2097110
  67.8723038  88.4757476  13.4992808  69.2233552  88.5145001  14.1805572
  36.9283092  27.6996141  31.1001033  36.2303388  27.1272188  30.7816237
  37.4952352  27.8316408  30.3402347   7.9822624   8.2930999  11.8365783
   8.5577619   7.5610119  12.0581073   7.7304542   8.1330877  10.9270591
 106.9189800  92.9768949  40.9958285 106.9599832  93.8740997  41.3268489
 107.6861967  92.5469189  41.3736266  29.5458817  56.1828279  84.5459938
  30.1247525  56.8562031  84.1886330  29.1691399  55.7574368  83.7757111
 112.0952047  74.7929387   8.9008159 112.5060476  74.5516150   8.0706328
 112.1936144  74.0161948   9.4514674 102.1770109  93.5741978  18.1266898
 102.0446266  94.1031270  17.3399562 102.7395929  94.1113358  18.6845511
  75.3735065  16.8793702  70.7527351  76.1882210  16.3792634  70.8013916
  75.3899479  17.2800076  69.8835659  44.0332079   7.5831991  86.1022377
  43.6034775   6.7773354  86.3888550  44.9634838   7.3601079  86.0698795
  56.1418962  36.7507267  91.9935608  56.3289881  36.3558793  92.8452301
  56.0102034  37.6795197  92.1839046  84.1249431  66.7581336  38.3181590
  84.6650518  67.2718196  38.9186973  83.8853515  65.9783368  38.8189048
  14.1538704  27.6823908  17.2149676  13.7740696  28.3677583  16.6651839
  13.4413421  27.4208742  17.7981872  25.0147283  43.6665826  31.4596004
  24.9524153  44.5720964  31.7635840  25.6034982  43.2440000  32.0849055
 111.9758381  90.1754742   6.7679042 111.6044105  90.7771068   6.1226768
 112.9118074  90.3759294   6.7713279  82.1772445  80.1782732  24.3529529
  82.7939523  79.4599729  24.4941920  82.6604856  80.8068995  23.8167304
  78.6757994  40.2070284  92.3934269  78.1606531  40.9082937  91.9945621
  78.3915472  39.4134021  91.9400120  32.3151243  13.2619291  27.2353477
  31.7896164  12.5326639  26.9063491  33.0273235  13.3489376  26.6017646
   6.8346476  78.4244256  37.7087230   6.2367796  77.6922326  37.8593177
   6.4506411  79.1518002  38.1983108 101.5760006  92.6795607   4.5131606
 100.7601465  92.1839957   4.4422263 101.8933738  92.7485614   3.6127490
  18.6452555  91.8047576  12.4419326  18.6959814  91.8109302  11.4860934
  18.4920191  92.7192430  12.6795596  89.7246612  58.6517017   9.7542113
  89.3115152  57.9343207  10.2347392  89.2523206  58.6861168   8.9223784
 107.8397001 105.1297431  12.3849887 107.6602663 104.2792468  11.9841308
 107.2916330 105.7447104  11.8974704  36.0261858  23.4960085  31.8172187
  35.2788103  23.3497101  32.3971004  36.7874611  23.2420831  32.3389644
  15.5018223  25.7040983  18.5817355  15.3083360  26.0796076  17.7227897
  14.9965465  26.2372022  19.1955203  63.0264282  16.4708614  84.1524887
  62.4693680  17.2468603  84.2136669  63.8601065  16.7436802  84.5356083
  89.4259466  94.9868016   3.8248748  89.8546327  94.2800956   4.3075961
  88.4904588  94.8049908   3.9145392  95.0479221  67.0733118  93.7674141
  95.1799297  66.7067528  92.8930855  95.0378990  66.3118649  94.3473530
 105.1747001  97.2409492  13.2855720 104.9830116  97.9610305  12.6847667
 105.4927028  97.6700072  14.0799445  87.9952431  27.8446603  75.1251411
  87.4689865  28.2503819  74.4361687  87.7257919  26.9261694  75.1228285
 112.2962536  76.7104869  15.9032840 112.0713390  75.8719425  16.3063830
 111.7478813  76.7544274  15.1199740 101.3930811  91.5713315  14.5787543
 101.6327728  92.4236636  14.2150134 101.7736639  90.9363656  13.9719504
 100.8956159  61.9085335  25.1864642 101.5408672  62.5743966  25.4241866
 101.1607565  61.1315726  25.6786651  11.5525698 101.7179446   9.8168391
  10.7963347 101.4089208   9.3179912  12.2514700 101.1012654   9.5989245
  17.6647413   6.9991403  27.5556201  18.3252514   6.3315731  27.3703784
  18.1015003   7.8285175  27.3616904  68.1780577  35.6710219  93.7266350
  67.2539473  35.4313016  93.7958050  68.3571100  35.6658244  92.7863407
  95.4878486  83.9313273  20.7695502  95.6360019  84.6857529  20.1993579
  95.5966724  84.2759709  21.6558951  82.4459900  59.1658058  18.0732268
  81.6733278  58.7178131  18.4175033  82.6274122  59.8553990  18.7117976
  13.4637999  81.8063908  26.6867179  13.8496088  81.9408302  25.8210963
  13.1304907  80.9093909  26.6637057  91.5057100  99.6254258  29.9589175
  91.3803972  99.8201280  29.0301532  90.6899799  99.2024999  30.2271670
 106.1584867  82.7473526  20.2506083 107.0958532  82.6291709  20.0969619
 105.8078207  81.8574767  20.2878589  53.7355852  23.4301949  89.9625206
  53.2333851  24.0442085  90.4982567  54.3641853  23.9795423  89.4942284
  86.5379204 103.8374906   7.8347892  87.2229637 103.2550006   8.1628913
  85.8099188 103.7185054   8.4447783   0.8461212  68.9844184  23.5038966
   0.2311014  68.5363548  24.0845984   1.1443829  68.3041768  22.9001254
  87.5740637  76.2491589   5.8776874  88.1802095  76.7831354   6.3911933
  86.7650522  76.7602377   5.8547324  44.5797909  43.1653982  39.6423644
  44.9862087  43.2025819  40.5082053  45.3132427  43.2286459  39.0305823
 101.9014276  80.7915311  39.0529651 101.0028423  80.8898311  38.7381572
 102.4367012  80.8117776  38.2596797   7.6703155   2.0495516   4.3800658
   7.5245512   1.4939361   3.6143798   7.8828609   2.9087310   4.0155620
 104.8091186  80.7402711   1.2741584 104.5488275  81.5610652   1.6922206
 105.4292787  81.0038738   0.5943412  53.0719019 105.4260640  38.6323947
  53.1195809 104.5419936  38.9962310  53.9763082 105.7393126  38.6448974
 105.3632654 105.9270244  11.2938804 105.1278747 105.6857543  10.3979987
 104.9691595 105.2445369  11.8371314   7.1581244  86.2376909  34.5010585
   7.1083139  86.9280248  33.8398475   8.0498003  85.8978538  34.4257945
  25.3316677  22.3753601  23.6821956  25.6428659  23.1194788  24.1976279
  24.3864191  22.5098329  23.6139792  22.7094543  17.1347767  48.9537162
  22.6602829  17.7395397  48.2133883  21.8615520  16.6906028  48.9568633
  18.0890358  27.3324590  15.9562510  17.5798738  27.9056268  16.5293616
  17.8914345  27.6411157  15.0719851  61.3929558  35.9983325  84.1053486
  61.2267399  35.5092430  84.9112034  61.8275166  36.7998123  84.3969250
  37.2897661  10.6931501  32.1387118  36.7361963  11.3291031  31.6855449
  36.6724670  10.1111227  32.5819034  23.1010235  35.1275259  35.3918094
  22.3981703  34.4807153  35.3296775  23.2536114  35.4029947  34.4878978
  38.0353999  39.4876933  85.5061817  38.6627150  38.8331676  85.8132648
  37.2007298  39.0205932  85.4690933  72.2109283  77.4786501  20.5717486
  72.8118647  78.0604820  21.0371322  71.4671339  78.0359535  20.3428096
  85.7019104  54.9330548  25.2288646  85.2565063  55.4898217  24.5902270
  86.6075958  55.2428337  25.2262706   6.7596888  60.5226933   1.6250247
   6.2905191  59.8957919   1.0744781   6.4974093  61.3797544   1.2890452
  13.5964178 106.7264752  14.6074885  13.0620741 107.1781449  13.9542598
  14.4984984 106.9358163  14.3653029  45.9645367  41.2622976  86.6622734
  46.8432903  41.6415501  86.6761494  46.0511017  40.4769850  86.1218739
   4.9810862  68.1221597  24.1546267   4.5646738  68.9043062  24.5166797
   5.4633307  68.4392624  23.3910006  99.5229925  82.1867661  19.8953074
  98.6355413  82.2000627  20.2537650  99.5577825  82.9461985  19.3136901
  84.7546005  62.6783562  69.7313309  85.0137424  63.5669136  69.4872999
  84.3947315  62.3044062  68.9270353  20.3159035   6.2402206   1.6240233
  19.3843735   6.1671119   1.8317145  20.5651653   5.3641420   1.3297576
  11.7899775  94.7336202  37.8500861  11.1626791  94.5958762  37.1403331
  11.7366098  93.9351230  38.3752364  30.3682268   9.9923664  15.5695456
  31.2013471  10.0913530  15.1087398  30.2184999   9.0472465  15.5933398
  47.3736942   4.6084839   9.4231338  46.9440162   4.4300132  10.2596492
  46.6912353   5.0079017   8.8837451  16.5911615   5.5802446  42.9813975
  16.5517557   5.9648996  42.1057719  16.7970312   6.3165098  43.5573882
  99.2632545 101.9619040  48.3119220  99.4376196 102.7482848  48.8290614
  98.7706436 101.3915257  48.9020270  42.0830143  10.2909475  17.5179404
  41.2658775  10.7570034  17.6949138  41.8305099   9.3681818  17.4866885
 106.4880813 102.3116641  44.8515147 107.2880567 101.8703895  45.1370830
 106.6900409 103.2444768  44.9243754  78.4953356  84.5189953  78.2783699
  77.5853252  84.7092915  78.5061789  79.0038300  85.1748180  78.7554026
  90.5174173  91.3904743  10.1356811  91.4580883  91.3264470  10.3008384
  90.3545631  92.3287349  10.0388354  74.7277820  10.9849458   5.7309646
  75.0421131  11.3870102   4.9211711  75.5240715  10.7747846   6.2188071
  33.4431446   0.7780224  37.6085204  34.0772474   1.3532453  38.0366248
  33.0839527   1.3060671  36.8955153  26.0840786  16.7758470  12.2843570
  26.3457382  16.2184387  11.5515155  26.7395294  17.4732309  12.3007792
  84.3416513  83.8437252  17.4950522  84.9319423  84.3212657  16.9121760
  84.5688690  82.9231291  17.3642653  32.2592247  10.3449588   1.8484420
  32.5013149  10.8319097   2.6361674  33.0800760  10.2464348   1.3660354
  17.1127594  21.7903858  31.8456191  16.1655653  21.9174247  31.7916221
  17.4113071  22.4690014  32.4510688  47.3124170  91.2853527  75.7726526
  47.1387339  90.8360291  74.9455023  46.5559387  91.8584347  75.8973503
  74.4720840  76.7347240  87.9265976  75.4036951  76.8565035  88.1096458
  74.3802738  75.7955313  87.7662373 112.6625503 102.8146605   4.5696467
 113.3464779 103.4611707   4.3949908 113.1044687 101.9697766   4.4853229
  67.6514614  13.5808378   4.8534698  66.7243850  13.6841922   4.6388263
  67.9576004  12.8895527   4.2664069  96.9604076  60.4685794  36.9459552
  96.0644544  60.4252957  36.6118545  96.9838060  59.8237206  37.6529521
 108.0317796  90.5803661  35.6936473 108.4745039  90.5236440  36.5404147
 107.9927028  89.6759086  35.3827495   1.8116462   9.5456892  21.3756484
   1.4597881  10.3465992  21.7642039   2.7241934   9.5206934  21.6635055
  22.6274431   2.5140052  18.5584468  21.8306387   2.3835807  19.0725726
  22.8803814   1.6334539  18.2811660  29.5113361  22.1573930  52.9373569
  30.2689970  21.7043358  53.3073920  28.8520611  22.1271473  53.6306685
 108.9671625  79.9488978   0.9528560 109.3631805  80.3457003   1.7287082
 109.5660127  79.2415862   0.7134360  65.3457344   3.9170700   3.8491267
  64.7910679   4.5794540   3.4370250  65.9838951   3.6855131   3.1743258
  49.8248005  34.2916608  79.8355389  49.1011953  34.8057771  79.4773340
  49.7137594  33.4219122  79.4515657  20.2022623 101.4677482  18.4160346
  19.8521875 101.1854701  19.2610187  20.0294661 100.7328086  17.8276175
   3.6060322  21.1178928  60.7760924   2.7646864  20.9668737  60.3453273
   3.8685215  20.2555042  61.0979861  11.8860185   7.0522457  29.2389792
  12.0245826   7.9198366  28.8590831  12.7148617   6.8445163  29.6703738
  97.0594515  86.8586450   2.6998061  97.5178064  87.6319079   3.0287570
  97.0448126  86.9749670   1.7498130  29.7868526  18.2632356  21.4368552
  29.2229307  17.5331836  21.1814326  29.9441278  18.7407642  20.6223220
  99.1678013  82.2362022  31.5999907  99.2399992  81.3746338  31.1892241
  98.9915909  82.8339295  30.8734149  95.9797062  87.5281911  28.5027331
  96.0540403  86.5740828  28.4830874  96.6563333  87.8084998  29.1190356
  25.8467043   5.1315885   5.3366012  25.7762611   4.5244270   4.5999736
  25.4845846   5.9533172   5.0051517  22.5746715   9.1077333  14.6063823
  22.8115165   9.5469194  15.4232329  21.6904962   8.7751680  14.7608870
  76.7440784  10.8821779   9.1814822  77.5766361  10.8361774   9.6515388
  76.1003483  11.1008125   9.8553199  53.4698557  90.8974652  14.4681472
  53.4335207  90.1599317  13.8590831  53.9623617  90.5645232  15.2183551
  72.5411987  89.2086601  93.8385963  72.1402073  89.2515945  92.9704952
  72.4802637  88.2857800  94.0851974  19.4860637  16.9364696  11.7415351
  19.2944801  17.6075607  12.3966426  19.9890745  16.2748771  12.2164077
  90.1706518  81.5487747  11.9241256  90.8082355  81.6199903  12.6345080
  90.6984581  81.3720326  11.1454028  91.8030370  80.9351783  47.5354213
  92.6564945  80.9735470  47.1037120  91.6529287  81.8270164  47.8489894
  29.0135944  28.8514906  33.8098639  29.8391330  28.5688120  34.2033214
  28.4535253  28.0760580  33.8451785  78.8817609 102.6657872  26.7632312
  79.3803180 102.7798705  25.9541244  78.6515082 103.5557036  27.0301742
  23.3150709  18.5216623  51.0939330  23.5556305  17.7853828  51.6563052
  23.2826889  18.1493717  50.2126998   3.9826941  99.5073132  12.9904860
   4.8972010  99.5174031  12.7079791   3.4960913  99.2232852  12.2166747
  24.0073478  23.5634046  19.5049685  23.9124429  24.1881710  18.7860126
  23.6743438  24.0288215  20.2722472  48.9297390  79.7034216  80.1557446
  49.3747950  80.0864697  80.9116650  49.2952061  80.1671219  79.4023132
  61.6189182   7.9501920   7.9113215  61.7968548   8.6765247   8.5088271
  62.2472465   8.0668407   7.1987075  68.9110649  19.5398193   3.1756991
  68.0788410  19.2981058   3.5821551  69.0246475  18.9061027   2.4673671
  56.3137996  15.2939420   4.3430537  56.7936600  15.0155645   5.1231021
  56.9328583  15.1690536   3.6237544  86.7345823 103.9777331   0.6805724
  86.3111318 103.1364827   0.5096263  87.6257433 103.8691621   0.3484839
 107.4287510  53.5252953  88.4329700 106.6276360  53.2413006  87.9927540
 107.4011135  53.0898762  89.2849541  53.3609343  33.5348654  94.7484589
  54.1272163  34.0620756  94.9744987  53.6482763  32.6300144  94.8705673
 114.7717918  96.0831218   2.7159327 115.0294269  96.8344169   3.2501716
 113.8166059  96.0636239   2.7748507  19.7103250  26.9486719  33.7308520
  20.4758442  26.6218858  34.2035216  20.0751293  27.4493795  33.0011577
 113.4512329  60.3886795  73.6491966 112.8593445  61.0865355  73.3683109
 114.2036343  60.8483028  74.0218449  12.0737528  92.1829753   8.0422610
  11.8518900  93.1140523   8.0319518  12.3196482  91.9853311   7.1385402
  69.3733740  67.2065449  93.5036087  69.1704702  68.0082655  93.0216408
  69.9529982  66.7166138  92.9203129  29.1224849  12.6054578  16.1698455
  29.4569242  13.4230095  15.8010692  29.7158945  11.9321590  15.8370227
  16.3679861  89.1496949  30.3279132  16.5154432  88.5831408  29.5706099
  16.9858812  89.8713474  30.2110785  39.5727384  42.8661066  29.3152160
  40.2383840  42.3292165  28.8852328  39.9603403  43.0977255  30.1592273
  10.2549242  89.0278797  30.5071563  10.4077314  88.8005500  29.5899791
  10.6161284  89.9095635  30.5987662  97.3252513   7.6350218  32.9220981
  98.1581786   7.1959453  33.0943603  96.9449785   7.7759414  33.7891501
  52.3572910  21.5423303   8.8657207  52.8473461  21.7327028   9.6656150
  52.5470627  22.2808366   8.2870788  22.0599258  11.4674144  61.6522521
  22.2741449  10.6311327  61.2387675  22.2563732  11.3334375  62.5794524
   4.9411905  15.3903156  35.2515906   5.1434505  14.7586542  35.9417552
   5.3285253  16.2107282  35.5567664 112.6606907  74.4555240  13.1604880
 113.4314598  74.4751863  12.5932521 112.4489082  75.3771381  13.3088321
  26.9610762 102.7416854  20.8543605  26.4062094 102.0464902  20.5007190
  27.8214048 102.5822310  20.4662246  48.6680388  88.5134821   6.1474246
  49.0133547  88.4204297   7.0353049  48.2981943  87.6546054   5.9430427
  58.0850494   4.7294479  17.3484439  57.6604927   5.3863006  17.9002780
  57.9853618   3.9095455  17.8322333  70.2344931  88.9404206  41.2343711
  69.8041381  88.2475142  41.7352790  70.7162012  88.4768681  40.5493087
  66.1868620 101.1157513  92.6652336  66.3446426 100.9516621  93.5949802
  66.7638350 100.5008411  92.2122192  11.4514387  27.2641760   7.0414561
  11.8780458  26.4725977   6.7133826  12.1740377  27.8527933   7.2596759
  53.0346489  80.0476551  69.1263533  53.8947773  80.2763462  69.4786453
  52.4830580  79.9286604  69.8995399 109.9002613  70.5129771  33.5845202
 110.8048595  70.3976207  33.2936114 109.3864073  69.9636309  32.9925746
  45.3166187  11.7797571  22.9612750  45.1453483  12.2657114  22.1545810
  44.7775352  12.2146850  23.6219233  23.6567819   7.2699361  12.7274531
  23.3211696   7.8877741  13.3769721  24.6084726   7.3245865  12.8142470
   9.5653188   4.0638881  33.0899352   9.6567142   4.8952108  32.6243514
   9.3902385   3.4219652  32.4018115   8.9645422   0.6229406  38.8209743
   8.0821455   0.6797891  39.1875571   9.4377172   0.0491434  39.4235438
  50.2834308  18.2614952   7.1709746  50.4490173  19.0483289   6.6516417
  51.1248768  17.8056055   7.1900100  53.1048632  13.9464688  83.1367397
  53.6518669  14.6979785  83.3653355  52.2134304  14.2274439  83.3432198
  16.0729921   6.5869289  29.5955199  15.9544122   5.6595522  29.8007983
  16.4912737   6.5900856  28.7345523  28.1637931  72.0104170  77.4595261
  27.4153566  71.5494537  77.0805979  28.7944746  72.0734024  76.7422390
  68.5512877  38.3997226  93.6308384  68.2701826  37.4885130  93.5477066
  69.1019106  38.5515285  92.8627205  21.7700374  37.5656706  17.3531455
  22.7173841  37.6988893  17.3211688  21.6654909  36.6513258  17.6163310
  68.2305479  25.5734038  84.1110706  67.6117802  25.4589057  83.3897877
  67.7669191  25.2405453  84.8795033   7.3295915  32.8803831  18.7626761
   8.0031765  32.7567297  19.4314212   6.5760553  33.2242685  19.2424220
  35.3027475   6.3419300  25.2427787  34.6542776   7.0330911  25.1085395
  35.9246052   6.7150169  25.8675403  46.3091839  22.3944717  26.6805762
  46.4474666  22.4646478  27.6251334  45.3599060  22.3207098  26.5823192
  37.8490198  10.7399994   9.7395152  37.0861662  10.4268890  10.2255649
  37.4834001  11.1318689   8.9464301  87.0214748  67.6752806  85.8821964
  86.2785149  67.7097607  86.4847374  86.9638348  66.8084764  85.4802418
  58.4019745   6.4406782  27.4442977  59.2406929   6.7352253  27.7992934
  58.3153999   5.5383306  27.7517146  57.4122417  19.0185600   8.2656497
  56.4571178  19.0815836   8.2619685  57.6557243  19.0167051   7.3399371
   8.7119615   8.2927375  18.9725894   8.6542261   7.6215463  19.6525878
   8.8069189   9.1143327  19.4544524  51.1728191  69.7531843  84.3084717
  51.6028214  70.2064610  83.5832977  51.5906811  70.1070452  85.0935841
  33.3755291   1.0420137  11.5584773  33.0088651   1.8127542  11.9917792
  34.3144548   1.2206608  11.5061397  34.5995306 100.7035165  15.1004046
  33.9643263 101.4127498  15.1990622  34.3714880 100.0800900  15.7900161
  99.1565860  96.6771989  18.1350917  99.5715250  97.2814279  17.5194949
  98.7612308  96.0044532  17.5807113  92.2054495 102.1308141  23.3202189
  92.4026025 102.8946118  22.7780265  91.2498678 102.1152835  23.3737105
  36.5636575  31.3445669  62.9317683  36.7423427  32.1487623  62.4443645
  35.7708681  31.5386873  63.4318084  17.2152269  18.3373027  47.5865573
  16.7302358  18.7786394  48.2838649  18.0764711  18.7549835  47.5924319
  48.8779533  45.0440984  11.4322871  47.9961670  44.8837190  11.7683810
  48.7476909  45.6342416  10.6899947  14.0440535 104.8997216  21.5536899
  13.5808443 104.2736106  22.1101588  13.8821386 105.7496171  21.9631881
   9.3082655  14.8193508  23.0175227   8.5064209  14.9699693  23.5181064
   9.1036785  15.1342779  22.1370715  23.9240349   7.2102981  20.7316321
  24.4684112   7.9895836  20.8438987  23.8969648   7.0713955  19.7849483
  11.3946318  80.2820568  59.0584678  11.8930697  80.1176219  58.2580012
  10.7554697  80.9497528  58.8097114  42.5727546   7.7439933  32.5834769
  43.1449020   8.1202226  31.9146461  42.9904449   6.9150739  32.8172797
  33.1148279   3.5815960   7.0784873  33.9786613   3.1825214   7.1822375
  32.9006517   3.9186340   7.9484099  22.6615370  45.7282358  23.4487838
  22.2406137  45.4920965  24.2754096  22.0052803  45.5302053  22.7806968
 112.7951908  78.2512331  90.1006126 112.0201111  78.6092615  89.6678448
 113.5327244  78.6599731  89.6476078  46.7403936  93.1663036  87.3595333
  46.1178017  92.4402428  87.3214817  46.3304615  93.8028812  87.9451561
  86.3704491  84.0532303  92.0125103  87.1420670  83.5049629  92.1547794
  86.0693169  84.2761421  92.8933430 100.7162393 107.0269828  21.7953319
 100.7946171 106.6235404  20.9308547  99.9484981 106.6094308  22.1857947
  13.0773580  29.5397764  13.0193061  13.2652796  28.8749700  12.3567695
  12.9412353  30.3445249  12.5192279  14.2912935  95.1910500   6.6248626
  14.5786261  95.6255059   5.8217925  13.3358454  95.2407365   6.5953750
  80.2228928  19.6472347  81.2766552  81.1721992  19.5318341  81.2350464
  79.9385738  19.0466428  81.9656277  34.3831146  45.8072191  41.1461848
  34.5764864  45.9360605  42.0747489  35.1791895  46.0875421  40.6946105
  30.4363764  11.5295368  26.1736793  30.4128492  12.0430475  25.3662318
  29.5790708  11.1056047  26.2129897 113.7623419  85.4276042   0.9816379
 113.8770879  85.3409915   0.0352973 113.2682003  84.6480517   1.2353248
 114.4626000  16.3340002  33.2455844 113.7586882  16.9689136  33.3783454
 115.0301030  16.4425092  34.0087337  57.9292095  11.5046316  29.4939918
  57.9184711  11.2941938  30.4277152  57.8896225  10.6542593  29.0563506
  29.2983711  18.2499033  31.2973708  29.1278446  18.1675106  30.3590983
  29.7020090  19.1125923  31.3926047  13.4396875  15.9355312   0.6406421
  12.7229059  16.3915401   0.1996058  14.2127645  16.4686542   0.4552669
 101.2995876  79.5269113  12.6742572 101.4457048  78.7794666  12.0944232
 102.0022453  79.4687705  13.3216590  98.3885670  75.8807039  78.9568758
  98.7930107  75.1084042  78.5616398  97.4480724  75.7088518  78.9103413
  50.0961006  27.1716886  44.7831840  50.4514206  26.3528352  44.4375724
  49.2629230  26.9215780  45.1825446  43.4219253  12.2760349   5.5416888
  43.3350647  13.1082779   6.0065097  42.5495804  11.8845611   5.5863780
  76.1659813  85.2476597  79.3097544  75.2957439  85.0528812  79.6575689
  76.0886955  86.1324024  78.9526844  38.6166609   7.7220827   7.8088492
  37.6733816   7.5628715   7.8421134  39.0063226   6.9313675   8.1818980
  29.5606935  14.7791391  51.1526317  29.1385401  15.6337362  51.2402839
  29.1984928  14.2584234  51.8694991  69.1615820 100.7571602  73.4657764
  69.6437836 100.9407806  74.2719984  69.0475750 101.6139317  73.0544615
  38.0894840  13.8094049  19.1578502  37.4245060  14.4820409  19.0108890
  37.5897110  13.0054146  19.2994517   6.8413328  95.7870011  21.7193717
   6.9703363  95.6354289  20.7830924   6.2233519  95.1075988  21.9890803
 110.3235592  80.0804071  82.4668235 110.5766071  81.0018473  82.4107284
 109.5834554  79.9982338  81.8653792  57.5046051  24.2154604  19.1534823
  58.1109131  23.9161354  18.4759635  57.9915035  24.8872953  19.6307677
  65.8393085  26.1591726  21.4190692  65.4345310  26.4002329  22.2523040
  66.5637481  26.7764764  21.3172645  97.4282421 108.6802964  43.3384818
  97.0754160 107.9967599  42.7688140  98.2655157 108.9163451  42.9391307
  85.6535339  67.4061108  82.1000957  85.0751019  67.9880476  81.6071510
  86.5325642  67.6223660  81.7890167  98.7852873 105.1604133  22.5936622
  98.4635748 104.8051505  21.7651004  98.0971111 105.7609134  22.8800887
  68.7258137 102.9892211  11.2884921  69.5409168 102.6773076  10.8953589
  68.0567468 102.8076749  10.6284827  34.2082584   4.4761091  10.5541057
  33.6006773   3.9965969  11.1172599  33.6818445   5.1832300  10.1811522
  16.0459936  13.9056783  11.8584556  15.5809105  13.8630348  12.6939792
  15.7721031  14.7384458  11.4741057  15.7295298  90.5673485  38.2087535
  15.2060770  90.1786237  38.9095611  15.8750605  91.4702849  38.4911651
  96.4837837 103.1087685  84.8793221  96.4070892 102.1553707  84.9166298
  97.1052837 103.2714748  84.1697502  22.0571840  10.4847532  34.0229339
  21.7928493  11.3775306  34.2449779  22.0681989  10.4692417  33.0659217
  76.4639461  23.8555437  31.5449161  75.8526981  23.5814243  30.8612079
  76.9553554  24.5767694  31.1517447  43.4044826  12.7692705  18.1232280
  44.0976131  12.8124433  17.4644774  42.7793587  12.1352010  17.7719516
  25.0968302  35.1496511  12.5496596  25.7746494  35.2452856  13.2187194
  24.2839277  35.3850084  12.9968947  94.3391479  82.0051246   5.6592006
  95.2340711  81.8940120   5.3382606  94.2216314  81.2960224   6.2913341
 105.5524791  89.9241190  26.7862815 106.3062490  90.2096515  26.2700099
 104.8485435  89.8214965  26.1458224  71.4798021  10.5761373  89.2376804
  71.8364620  10.9965909  88.4552193  70.9095430   9.8856235  88.8996983
  41.2482155   7.1380191  62.9222316  41.1426962   7.7298742  63.6670894
  40.3887832   7.1276718  62.5009173 109.9418033  94.9034648  12.4692649
 110.4534448  95.1845078  11.7106647 109.0683473  95.2636914  12.3158282
  69.8337043  66.7455130  14.5423526  69.1321076  66.1804287  14.2188186
  69.9857081  67.3690813  13.8322181  36.7551554  16.3395267  18.3119601
  35.8459842  16.0998207  18.1325454  37.1878135  16.2930637  17.4593944
  47.3398399  70.6572056  89.1223812  47.9379177  71.2783718  88.7068367
  47.7571154  69.8044825  88.9999962  49.5792389  81.9066334  92.6954460
  49.6151781  81.4675426  93.5452366  50.3243780  82.5073910  92.7045631
  35.9103477   8.4885650  33.3366317  36.0204780   8.5586410  34.2848891
  36.2639892   7.6265054  33.1174869 116.5577772  34.2196088  14.3238467
 115.9583285  34.9012666  14.6275538 116.8729379  34.5374017  13.4777373
  97.5564289  53.1603670  74.7525167  97.5994205  52.3651457  74.2214727
  97.5251961  53.8731289  74.1143703  72.4135578   4.7278124  12.3373813
  73.2148159   5.0662237  12.7369899  72.6845730   4.4368082  11.4666862
  13.2385706 106.0016017  69.2042083  13.4932684 105.3399472  69.8473090
  12.5947355 105.5611186  68.6495131   5.9743094  98.5449796  19.8468799
   5.7162451  97.9460578  20.5475444   6.7647623  98.9726167  20.1763457
  89.6503843 103.0995898  54.9687404  89.5050539 102.2625737  54.5277041
  90.4672016 103.4291367  54.5939845 111.2547697  85.8610277  12.8402823
 112.2116436  85.8711319  12.8173751 111.0060991  86.7849283  12.8685206
  20.4207647  33.1467920   4.1008777  20.2629841  34.0878969   4.0256709
  21.2921894  33.0804830   4.4913310  32.7477682  37.4707990   6.4416617
  32.9767072  38.2448774   6.9560737  33.3803308  36.8062311   6.7145080
  37.8112400   7.2977930  29.7645205  38.1123817   8.1458431  29.4384021
  37.6415146   7.4455124  30.6949061  62.6498985  73.7701273  77.4846983
  62.6918077  74.2957115  76.6858006  63.4878731  73.3082819  77.5117874
  25.7645643  26.2483316  20.6032676  26.1892879  25.4007440  20.4712600
  25.1312769  26.0923773  21.3038749   1.5889334  86.7183833  34.4569606
   2.2925114  86.5532618  33.8292998   1.7254757  86.0684352  35.1462668
  15.4720555  80.7048702  83.7840462  14.6271668  80.2864075  83.9492512
  15.6920109  81.1349010  84.6104336  42.4358642   1.3601404  34.4215888
  43.3559692   1.5150552  34.2079562  42.1625984   2.1489912  34.8898524
  24.8218000  13.0893760  25.7205218  24.4908083  12.4486166  26.3498897
  25.7125128  13.2775312  26.0162467   8.3117079  75.1198988   6.8701667
   7.6786112  75.1127415   7.5880546   9.1650175  75.1375465   7.3035068
  19.9600113  31.0320764  37.0692080  20.8131588  30.6049257  36.9922751
  19.5290983  30.5777364  37.7931708   6.0008310 100.7956319   8.8632602
   5.4952597 100.0643401   8.5085124   5.6940435 100.8834510   9.7657031
  16.9263434  99.0609317  25.5041808  16.7749952  99.3140845  26.4148063
  17.1117567  98.1227117  25.5440539  59.5577145  63.3829069  90.6130600
  59.7090626  64.3142176  90.4518604  58.7843561  63.3599615  91.1766338
  36.9490087   5.9439617  32.9529494  37.3743522   5.7648473  33.7915343
  36.9282377   5.0961881  32.5090140  41.8786120  95.9091477  34.7212905
  41.0475420  95.6324296  35.1072902  41.9171785  95.4508405  33.8818282
  31.5735472  16.4047580  11.6727084  32.1725834  17.1513467  11.6743010
  30.9577883  16.5932565  10.9645099  97.3793316  86.3157082  72.3925447
  96.4719486  86.0201073  72.3183823  97.3366737  87.2600269  72.2419453
  57.8452575  10.8016306  12.4924487  57.7634990   9.8495870  12.4362582
  58.7420166  10.9476429  12.7936858  54.0172184  32.0678526  29.0504664
  53.2629764  31.7453867  28.5571403  54.5194519  32.5771909  28.4144134
  50.2364719   0.3984123  27.9047793  49.8341835  -0.3700823  28.3095092
  50.6952942   0.0532060  27.1389121  57.1426094  18.2903343  19.1451568
  56.3166321  18.6852985  19.4244594  57.3287857  18.6974912  18.2991141
  37.0682419  52.1601778  23.1641597  37.6158703  52.4433618  22.4319476
  37.6892317  51.8346697  23.8158149  40.0008667  11.4173227  26.3709086
  40.5883539  10.7278925  26.0614318  39.7774971  11.9131141  25.5831737
  40.9266126   7.3106104  21.3771266  40.8912456   8.2239252  21.6614455
  41.7746055   7.2282463  20.9408301  81.6028118  92.8647804  93.8209343
  80.8175945  92.5645733  94.2786884  81.2920952  93.1139565  92.9505348
  74.7468651  11.9026571  13.6349124  74.8362053  11.1256414  14.1867274
  75.3726757  12.5285345  13.9994258  39.2352522   1.8188339  23.6911983
  40.1425588   1.6717916  23.4239882  39.2507398   1.7401748  24.6450347
  49.2541969  36.5900999  16.3193149  49.7161091  36.1084657  15.6330985
  49.6952045  37.4389272  16.3545054  48.6058223  11.1958748  45.2116412
  49.5055568  11.5192848  45.2575034  48.0645550  11.9734245  45.3483409
  88.5711468  31.7787462  24.0395755  87.7208030  31.4284425  24.3049640
  89.2091358  31.2314420  24.4974631  74.2062473  70.4612780  92.2044468
  74.8785639  70.7017756  92.8419304  73.7107611  71.2679577  92.0630360
  43.2473362  44.7606760  15.7273978  42.3274601  44.8492437  15.4780025
  43.2267750  44.6268087  16.6749686  45.5204380  30.9285265  45.7995337
  45.9052742  30.6306081  46.6237754  46.1809910  31.5101534  45.4232139
 109.6789850  88.8643031   5.8181209 108.9844955  89.4412236   5.5001945
 110.4009355  89.4547253   6.0335845   1.2037027  23.4615617  28.1684035
   2.0512998  23.1488376  27.8521556   1.4208401  24.1677290  28.7770194
  18.9091814  30.4806047   7.8659934  19.0796745  31.4083963   7.7036113
  18.9331377  30.3959089   8.8191337  48.4280193  28.2715517  25.2001208
  48.8873470  29.0672308  24.9315089  48.8573253  28.0106550  26.0148925
  78.8385820  31.5698385  94.9962902  78.0200148  31.2004209  94.6650600
  78.7258291  32.5165582  94.9112129  92.3222923  77.3309278  87.4336815
  93.2024193  77.5297594  87.1142006  91.7830467  77.2954607  86.6436291
  10.4598497 101.9714360  22.0005816  10.0712465 101.8562655  22.8677386
  11.0007547 101.1917644  21.8750400  33.4903515  42.8775221  31.3089198
  33.2564247  42.4524313  32.1340198  34.3384445  43.2861810  31.4820403
  45.9808243   2.6512581  44.5920104  46.8401134   2.5063377  44.9880618
  45.9518039   2.0429474  43.8535327  18.9560879  17.6332241  16.7945689
  18.7409342  17.2934013  15.9259719  19.8581922  17.9429393  16.7138881
  34.8078478  10.2543264   0.9771937  35.3771580  10.6754499   0.3331679
  35.0110328  10.6961208   1.8016738  14.6809172  95.9057670  25.4446143
  15.1858591  95.1113324  25.2709788  14.3728613  95.8017783  26.3449019
  27.2386873  32.7578741   0.0559730  27.9090441  33.3313471   0.4274291
  26.4415109  33.2877165   0.0594062  14.4886374 103.1558089  75.5534095
  14.1283297 102.4888520  74.9689597  15.3632521 103.3312516  75.2062720
  88.3249283  65.6519413  83.4037209  87.9279423  65.6656313  82.5328255
  88.7955189  66.4831781  83.4655190  37.7476490  28.1474596  22.3610038
  37.7775181  28.5078817  23.2472438  37.5022543  28.8897424  21.8087024
  23.6164892  30.8754640  17.6910228  23.2466305  29.9946886  17.6304072
  23.6211956  31.1958414  16.7890471  29.6613431  69.6346807  83.7528038
  29.4107366  70.5276823  83.5162067  30.4258490  69.7424126  84.3186283
  10.3794945   5.0493150  16.4219302  10.1166523   4.5972782  17.2236842
  10.0425661   4.4987541  15.7151050  25.5187881  22.9772144   0.3406447
  26.3312853  22.4784380   0.2551478  25.3210390  22.9542499   1.2769145
  60.7463062  21.4214712  29.1824264  59.9871147  21.7250400  29.6801299
  60.9964073  20.5995994  29.6045798  28.7219513  31.1417585   4.4122428
  27.9708374  31.5915590   4.0252704  29.4780863  31.4853006   3.9363498
  44.8909939  14.5377927  39.3412036  44.9598491  13.8608986  38.6679191
  45.6516731  15.0999599  39.1943187 103.7658848 105.9606318  25.1952952
 104.0096201 105.0548940  25.3862494 104.5993913 106.4295154  25.1547927
  34.3192804  13.0228191  18.6121100  33.7563122  12.9983717  17.8383464
  33.7610090  13.3788496  19.3033427  28.9167393  25.4574972  24.0964908
  29.2859113  25.3132635  24.9677772  29.5852077  25.9627348  23.6337680
  35.1027143  30.4807192   5.6891269  34.8409641  30.1765161   6.5581340
  34.3308580  30.3354650   5.1419753  44.7419441  27.7038866  34.8837775
  44.7486103  27.6413541  35.8389110  43.8140667  27.6883798  34.6492118
  93.2346535  69.1765261  93.8206100  93.9456558  68.5435390  93.7203979
  92.7357674  68.8591719  94.5733643  89.7282661  98.1074576   1.2792415
  88.8304914  97.9199986   1.0052031  90.2555860  97.9498868   0.4960841
  70.5699718   1.9619518  22.8001517  71.3107670   2.5679212  22.8162021
  70.7937420   1.3281065  22.1186751  55.8312500  38.0270773  13.0426997
  56.1789692  37.1724802  12.7877826  55.9942901  38.0807882  13.9843768
  32.0510614  19.3696170  29.4086760  32.8793705  19.7611862  29.6858233
  31.9971168  19.5609527  28.4723491  93.0452251  73.5258675  84.4392490
  92.7349472  74.4302893  84.3947411  92.2500801  73.0051661  84.5526123
  14.5001755  97.1896648  94.7502708  15.0888214  96.4702797  94.5217705
  14.2344246  97.5584602  93.9078903 101.7552627  98.3771996  23.6138362
 101.3412059  97.5147443  23.5828322 101.1718763  98.9034419  24.1606063
  33.1938255  28.3273035  29.9380607  32.7516544  28.2168871  29.0963191
  33.9222801  27.7070242  29.9091262  29.0211571   3.6956602  33.1329555
  29.4004381   3.6973577  32.2541064  29.7465360   3.4482294  33.7063903
  49.6431911  23.2272201   8.0678672  50.1859463  23.9907032   8.2646865
  49.6824539  23.1446558   7.1150512 106.4767612 106.0994105  42.0031280
 105.8497060 106.7979531  41.8158454 106.6751875 105.7198243  41.1471099
  29.0543163  45.5069643  31.0432261  29.3323934  44.9785906  30.2950782
  29.8571337  45.9277445  31.3508910  79.8326099  11.0394769   7.0984000
  80.2563942  10.5476003   6.3950461  80.0003326  11.9570833   6.8836993
  47.2746074  20.0373512  46.7876071  46.6179645  19.6097236  46.2378997
  46.9403827  19.9404245  47.6793117 105.8714702  25.1889139  20.2704352
 106.2777927  24.8198896  21.0546226 104.9391796  25.2344232  20.4825610
 112.0758880  86.4305811  24.5552939 112.7673591  85.8131080  24.7936744
 111.5907348  85.9893804  23.8580150  47.6999474  75.6810665  86.9201851
  47.2819424  74.8235321  86.8418407  47.0448112  76.2281799  87.3534203
  39.4998396  14.9289709  28.8891715  39.7984350  15.2395683  28.0344123
  39.5397890  13.9747863  28.8246173 112.4092020  96.7937522  25.5334109
 111.5864671  96.6070657  25.9856147 112.2376646  97.6002984  25.0473136
  44.3613327  20.4207950  17.9366702  43.7991417  20.0779873  17.2419375
  45.1510513  20.7147175  17.4825877   5.9071243  11.0419422  15.8380622
   6.4867723  10.7000499  15.1573676   5.8655727  11.9827991  15.6669253
  75.2214183  96.7605786  13.6143989  74.8274077  96.3759856  12.8314036
  74.4765843  97.0685487  14.1307372  41.3390625  16.4182525  31.3964576
  41.2771976  15.8495765  32.1639365  40.9775007  15.8951622  30.6810016
  89.6280098  78.9180803  83.1126595  90.1923561  78.1470060  83.0561066
  89.7737408  79.3825006  82.2884560   8.6873472  12.7424436  11.5842551
   8.2644785  12.2551447  10.8771819   7.9620064  13.0776125  12.1112937
  31.5243280   5.4793506  32.9853648  31.6697490   4.5423608  32.8544730
  32.3311842   5.7920986  33.3945102  35.5559134  89.5778971  27.3105163
  35.0997328  88.7416463  27.2166366  34.8599791  90.2125292  27.4812430
  56.5133846  10.5466562  17.4921626  56.6323459  10.1194101  18.3404178
  56.3455951  11.4641004  17.7075213 115.8261871  72.3827362  89.4424438
 116.6672707  72.5475979  89.0162563 115.9921646  71.6373539  90.0195789
  80.0066757  78.2722473  66.8039894  80.2474022  78.0698633  67.7080488
  80.2341175  77.4826241  66.3130713  22.6520336  32.8389555  54.2201442
  22.7930391  33.6301332  54.7401256  22.8479517  32.1196752  54.8205394
 101.0566330  87.7230263  88.5833931 100.4266548  88.2235336  88.0648804
 101.5123367  88.3816242  89.1076088  87.6645279  95.1845455  90.0574493
  88.0751991  94.8363495  90.8488655  88.3358669  95.7426167  89.6649265
  28.4968317  35.3004270   7.6567286  27.8589285  36.0068136   7.5551528
  28.5801780  35.1872831   8.6035556  32.6215112  16.7227750  30.1831550
  33.5423076  16.5579801  30.3861445  32.5961530  17.6410871  29.9142856
 110.8833755 109.4449716  49.5355433 111.0776724 109.8676496  50.3721065
 109.9277176 109.3989949  49.5066756   8.7474976  84.4392586  78.3584690
   8.4397374  85.3455353  78.3715439   8.0573521  83.9455318  78.8013792
  41.5211857  29.0236383  38.4309691  41.5787590  29.4717889  39.2748183
  41.1325777  28.1735426  38.6372680  21.6140020  27.7608019   5.2156085
  21.3950861  28.5713487   5.6753081  22.0991075  28.0477434   4.4419402
  78.0899382  67.2524118  93.9874935  78.6738682  66.5024519  93.8742733
  78.4780645  67.9416847  93.4485149  54.5880878   1.8112808  39.9000281
  54.4208420   1.5315109  40.8000201  55.0737274   2.6311689  39.9904078
  59.3031359  71.5995169  93.5048008  60.1091528  71.8326759  93.9654636
  58.6796665  72.2823143  93.7524128  99.5075226  61.4241648  94.6606922
  98.9267540  61.7695904  95.3386497  98.9776039  60.7736158  94.2000389
  48.7964332  21.3623052  30.8918208  49.7235573  21.5669447  31.0134238
  48.4402454  21.3281208  31.7796248  46.3041866  45.8220106  33.2165164
  47.1392143  45.4179388  32.9805297  45.7852257  45.1045709  33.5801047
  98.8126564  56.4017487  69.2063236  98.1621742  55.7798481  69.5324278
  98.3521938  57.2406387  69.1846132  29.4593275  36.3405519   3.6217994
  29.9974478  36.7262655   2.9305095  30.0431907  35.7243543   4.0641231
 107.1270956 106.8500047  21.6879195 106.4515985 106.6249375  22.3276729
 106.7199148 106.6775994  20.8389777  48.0768847  88.9179234  16.4379710
  47.5673651  88.1802683  16.7733687  48.5039686  88.5765033  15.6523150
  26.8951309  32.7550321  11.1104125  26.1624801  32.8699308  11.7156047
  27.3262298  31.9530492  11.4057273  66.3379467  12.4665933   8.9890689
  66.5735996  11.5865141   9.2825908  67.1317280  12.8001695   8.5708922
  51.0965908  22.9938703  42.3242206  51.1613643  22.9944044  41.3692111
  51.6510475  22.2645240  42.6014728  42.3311317  41.4421278  40.1441688
  42.8239143  40.6224924  40.1043338  42.9992855  42.1258741  40.0962657
   0.5621933 106.5617566  27.6484508   1.4602923 106.8902116  27.6064319
   0.2126717 106.9236331  28.4627742 114.2637933   5.0383616  80.6563377
 113.8688911   5.1114035  81.5252113 114.5058073   4.1154052  80.5800629
  68.5002506  51.2026888  16.6123885  68.5716522  51.7698389  15.8446139
  69.3399227  51.3005834  17.0613879  70.4890060  98.2108402  71.7010355
  69.7525454  98.7340069  71.3845682  70.3838158  97.3631954  71.2689829
  69.0959358  82.6964569  82.7318573  68.4781361  83.3963108  82.5203133
  69.8498011  83.1487751  83.1104279  12.2298086  28.0507379   0.8522147
  12.1588409  27.3212724   1.4679069  11.8004692  28.7818151   1.2965411
  33.3828888  92.6890373  85.3466702  33.9123688  93.3370209  85.8114243
  34.0062199  92.0088959  85.0915146  50.4742897  33.2578760   6.0094184
  50.2276504  34.0928083   5.6115455  51.1194504  32.8869825   5.4073829
  63.5282803  76.3183594  87.3171616  64.2533493  75.8097458  87.6802444
  63.4818602  76.0482454  86.4000416   1.8811249  51.2303214  25.4370421
   2.2611927  51.4715486  26.2817878   2.1245359  51.9472640  24.8514003
  86.0728801  49.6968334   1.9807452  86.1461462  50.3011205   2.7194613
  86.4125456  50.1895254   1.2336749  40.0499296  11.2646222  52.2095442
  40.4537630  11.9413173  52.7529001  39.4926620  11.7480898  51.5996742
  40.4871689  75.8490204  84.2201710  40.0832545  76.3750815  83.5299873
  40.4535757  74.9518632  83.8881779 108.7928880  62.8809016  22.3733539
 109.5937980  63.3062862  22.0670432 109.0621866  62.3971801  23.1542033
  39.1900730   4.9791428  84.9554157  39.4241762   5.6913388  84.3602657
  39.4485474   4.1835243  84.4902134  47.9989576  47.5195503  90.8933163
  47.9934549  47.0628309  91.7345142  48.7055779  48.1602764  90.9732819
  79.5129121  63.6431949  15.8731097  79.5933880  62.9319512  16.5086287
  79.8872722  64.4042956  16.3167495 114.1301740  49.4708674  41.1027163
 114.3383754  50.3077908  40.6874579 114.9692262  49.0128784  41.1524505
  84.5129455  91.7592125  22.8479785  84.9527563  92.4788599  22.3953074
  85.1944555  91.0971742  22.9640883  95.7835115  77.2871332  15.8141536
  95.0030864  77.0754747  16.3263816  95.6209911  76.8941932  14.9565906
  81.4925016  53.4198889  14.5668525  82.0047916  53.8765106  13.8995475
  81.7039074  53.8732487  15.3829402  64.7043074  32.6273231  16.5237922
  65.3405369  32.8996663  15.8625239  65.2374638  32.3143678  17.2545737
  94.8697008  51.6689359  30.4057712  95.7814611  51.9025566  30.5799788
  94.9105419  51.1031054  29.6348018  83.1526340  58.7623419  22.9649753
  83.8813127  59.2946841  22.6457995  83.4262956  57.8596168  22.8024024
  17.6663005  35.0272822  95.0811386  18.5723197  35.3035760  95.2190590
  17.5062931  35.1865411  94.1509438 109.0067447  30.9023433   0.7068271
 108.6644186  30.8664446   1.5999907 109.9126686  31.1940269   0.8090800
  90.9280647  65.6947153  31.9176501  90.3513302  64.9540095  31.7306632
  90.4868711  66.1700313  32.6216716  36.3224160  99.8006951  74.4290447
  36.9705759  99.5918595  73.7563515  35.7088696  99.0663301  74.4066668
  87.1620477  37.0003943  29.1689128  87.6736892  36.3696079  29.6754378
  87.7481140  37.7487736  29.0562839 105.5491556  71.5007751  44.1310233
 104.7323765  71.6045372  44.6192187 106.2076296  71.3193314  44.8016376
  98.5457624  68.8142889  17.7770442  98.0624021  68.6769395  18.5917396
  97.8718580  68.8233988  17.0973414  90.3505325  11.3195813  88.9585972
  90.3319263  11.1374104  89.8981190  90.6547356  10.5031085  88.5622883
  61.9436825  32.3977165  13.2977504  61.8801511  31.5705662  13.7752551
  61.0589637  32.5515013  12.9663104  78.3553113  61.3157212   2.0675677
  79.2861808  61.5219103   1.9827193  78.2318271  60.5376081   1.5239448
  30.6363034  25.8858681  75.5660725  29.8913813  25.3013968  75.7064915
  30.8367658  25.7987356  74.6341658   6.9430958 105.5759671  73.7774563
   7.7716767 105.3339928  73.3637667   6.3854824 105.8553901  73.0513525
  98.9788641  41.2744694   9.8281878  99.1202320  40.3667347  10.0970096
  98.3195699  41.2194912   9.1364211   1.3830017  74.8620455   1.2550181
   1.0855221  74.2873411   0.5497092   2.1597694  75.2944021   0.9001464
  63.0501747  34.1949487  92.1342087  62.1534538  34.4124508  92.3888111
  63.0186415  34.1279888  91.1798763 106.2202753  78.5770540  34.5397014
 106.0245002  78.9848189  33.6961192 106.6155399  77.7353053  34.3128604
  94.7464384  64.5014255  12.7338046  95.2121271  63.9125191  13.3275718
  93.8223661  64.3798052  12.9518146  88.6722387  86.3663225   5.5948180
  88.6692012  85.4197388   5.7369536  89.0734304  86.4778142   4.7329349
  24.0247034  77.2407823  14.4448108  24.7597860  77.7748303  14.1436690
  24.2322325  77.0405059  15.3575248 100.9923376  56.9943004  12.3194140
 100.3133787  56.7416697  11.6937751 100.8235801  56.4502591  13.0886764
  17.7588736  89.2201876  87.0378017  18.3017432  88.6940407  87.6249027
  18.3693491  89.8395728  86.6379070  56.2658466  73.2450263  33.8930434
  56.2616063  72.9586880  34.8064059  55.9862734  72.4742537  33.3990973
  12.0303332 104.8066311  75.9529114  12.2623526 105.7254931  76.0874176
  12.8025090 104.4229972  75.5372190 102.9567112  98.8389306   6.2074393
 102.0488990  98.8185458   5.9046287 103.4761490  98.8804297   5.4045123
  83.8375581  49.0755068  17.6968497  83.4766735  49.4320815  18.5085410
  83.4207739  48.2186644  17.6054973 104.7428812  41.1935716   0.4842872
 104.4614042  41.9865637   0.9405345 103.9720501  40.9154742  -0.0104028
  74.0455044  63.4847884  13.7163371  74.1074098  62.8212063  14.4033927
  73.1387581  63.7886380  13.7578124  99.1921104  60.1171385  28.7722510
  99.9734605  60.2616136  29.3059653  99.0972294  60.9224402  28.2636088
  70.0492001  10.3744781  73.4686136  70.9020376  10.4491222  73.8967848
  70.2466583  10.0200319  72.6016617  95.1078190  95.3030162   7.3903102
  94.5706524  95.2402358   8.1800860  95.7405199  94.5895915   7.4736423
  25.0745177  10.4621887  91.4992332  25.1790762  10.7898140  90.6059456
  24.5679355   9.6560013  91.4008999 107.1827520  89.9049334  19.6159762
 107.8036131  89.8466783  20.3421802 107.3272384  90.7761054  19.2466372
  65.9198464  47.2782223   7.8308314  66.5139497  47.7879547   7.2799701
  65.7198323  46.4997761   7.3109740  87.6678944   8.8285017  79.4449091
  88.3897877   8.2916963  79.7719193  88.0779839   9.6581256  79.2004013
  54.4673252   6.8358171  90.3284073  54.8614836   7.4630219  89.7221947
  53.6719942   6.5412295  89.8846722  60.1527227  77.4384336  18.9100093
  59.9803461  77.7360897  19.8032683  60.5678810  76.5828137  19.0185756
  10.2392517 106.2502312  84.6669483   9.9936281 106.5394976  83.7881851
  10.5273854 105.3450363  84.5493412  72.8358746   7.0597178  90.6611633
  72.2709608   7.7733648  90.9574890  72.7235031   7.0441759  89.7107029
  84.1267885  58.4463899  11.6315478  84.5304216  59.2891436  11.4239997
  84.8521293  57.8221129  11.6119117  84.7489990  53.4509065  37.1245975
  85.4534496  53.2101509  37.7262801  85.1672186  53.4760271  36.2639636
 109.3486238 109.2034432  53.3229589 109.1813684 108.4227506  52.7949619
 110.1129247 109.6097407  52.9143000  91.6319908  61.4983349  20.7123870
  91.1287941  62.2977893  20.5578155  92.1461309  61.6869663  21.4974421
  72.9382409  26.2428122   5.2480334  73.7662233  26.2413435   4.7677440
  73.1950916  26.3058572   6.1679667  86.1016334  47.5126766   7.9279441
  86.7825521  47.7382313   7.2941417  85.2848638  47.5681763   7.4319285
  80.6169857  53.9828578  19.3216247  80.6566967  53.7737780  20.2548617
  79.6998657  54.2080951  19.1654510  23.8846575  62.6664161  86.2156200
  23.5584437  62.8162240  87.1029568  24.6909987  62.1654128  86.3382721
  12.8725790  55.1759543   9.1026420  12.8624415  56.1068451   8.8799972
  13.4906935  55.1105039   9.8305720  69.3111397  94.5958423  87.6281452
  69.3748654  94.9048113  86.7244244  69.0231300  95.3625058  88.1236267
  50.0825525  61.2693374  10.5934447  50.1923145  60.6320410   9.8877257
  50.5385174  62.0515506  10.2828521  42.2355223  25.1970887  90.6940842
  42.0256948  24.2817712  90.8795452  42.7949381  25.1620984  89.9181557
  69.7914505  10.7593691  93.8277245  69.5662117  10.6776249  92.9010010
  68.9946508  11.0940158  94.2392540  81.3224615  48.4341638  29.2360991
  81.4607824  47.5273083  29.5094413  80.9698166  48.8674562  30.0133628
  65.6717587   1.3569543  93.5755634  64.9400663   1.9523016  93.7381172
  65.8152056   1.4062154  92.6304626  16.2382101  67.3900597   7.9539317
  15.4628920  67.2001367   8.4821815  16.0736441  68.2605116   7.5913543
   6.4212202  74.2252855   1.7681045   7.3667215  74.0797262   1.8007392
   6.3245558  75.1773434   1.7899341  31.6545235 107.4862883  91.0485840
  31.9923436 107.3926766  91.9392872  31.2547623 108.3558946  91.0342026
 100.2189125  34.2519121  10.8214969  99.6845163  33.5117393  11.1092395
  99.7465242  35.0238781  11.1331862   0.8052992  69.7824399  15.1339358
   0.1062178  69.1998582  14.8370952   0.6226944  69.9215918  16.0631961
 101.5969909  89.6906953   2.7541751 101.8831457  89.6732573   1.8409175
 100.8971895  90.3434830   2.7734775 101.0842909  57.4021532   2.6686114
 100.3588833  57.9769562   2.9127902 101.8667377  57.9408698   2.7860564
 105.4994024  81.0422711   8.7123698 106.2260927  81.6443639   8.5522574
 104.7335781  81.6095333   8.8016051  83.2717146 106.5330749  10.2575416
  84.1155637 106.6788964   9.8298854  82.6278366 106.6287665   9.5557612
  95.2980436  87.5259190  21.3757819  95.2428449  86.9615226  20.6046504
  95.3068269  88.4151463  21.0216254   0.9738611  62.0632760  27.5080317
   1.8413138  61.7104106  27.7061290   0.8412336  62.7523987  28.1589908
  65.4553379  78.5260062  16.5931148  64.5835627  78.1580524  16.4487189
  65.3697456  79.4476180  16.3491172 104.8511614  99.8361449   7.9146403
 104.8688759  99.1787915   8.6101932 104.3003811  99.4496779   7.2338122
  79.9357284  66.1121314  22.8824920  79.5261539  65.6745605  22.1361560
  79.2127527  66.2834983  23.4859580  50.3674484  55.0589308  17.8094596
  50.0735654  54.4845157  17.1024150  49.9847389  54.6798922  18.6007232
  22.4464798  46.2775373  68.7759495  22.2182107  47.1886063  68.5913467
  22.3076344  45.8227825  67.9451990 108.5062148   0.9475666   3.2116717
 108.6459663   1.0945326   4.1471404 108.9527371   1.6788679   2.7849978
  15.4272734 105.9844311  61.8634605  15.9211241 106.5085130  61.2328386
  14.8774420 106.6186737  62.3235130   8.2109629  89.3135714  86.7789555
   7.7117668  88.9701819  86.0379219   8.4772002  90.1904916  86.5026188
  91.8060650  74.6507757  19.0656203  91.3750471  73.8120108  19.2297286
  91.7017521  74.7936611  18.1249160  92.2785915  35.3065484  42.5836009
  91.7056669  35.5170779  43.3209342  92.7342905  36.1263769  42.3926658
  54.1388130  17.6367640  60.2026987  54.2945910  17.8478467  61.1232471
  53.2477665  17.2875714  60.1845074  98.3387388  56.4384735  26.4343757
  98.0621589  57.1798103  26.9730395  98.2595838  55.6796588  27.0124454
  41.5611601   8.8452834  65.2044439  41.3879919   9.7392803  64.9094629
  40.7743359   8.5964561  65.6894398  69.4936217  45.9234487  16.0739821
  69.6271027  46.6534512  16.6785544  69.0459074  46.3131689  15.3230494
 116.5485204  77.2883801   1.1287707 116.8833364  76.4497023   1.4461726
 115.6107916  77.2592382   1.3186378 114.4616986  89.5868468  78.4856415
 114.9627257  90.4021262  78.4628153 114.0938331  89.5564389  79.3688107
 116.3338234  24.8305755  24.7617358 116.4625981  23.9555650  25.1278037
 115.8820608  25.3151422  25.4526252  87.9468359  54.3162985  38.0455226
  87.2530521  54.1578479  38.6856669  88.6457790  54.7344327  38.5483855
  70.6206382  55.7659156   7.6664847  71.3937868  56.1185253   8.1070918
  70.7219971  54.8161135   7.7284068   8.0588185 109.2777356  88.6117649
   8.2961880 108.3543850  88.6972713   8.5512768 109.7168469  89.3052292
 115.5610288  26.8710284  43.2006377 115.7305683  26.2960200  42.4544066
 115.7410492  26.3274174  43.9676494  90.5212688  16.3546109  87.6213932
  91.3288784  16.4769244  87.1223545  90.5859375  16.9839597  88.3397007
  29.9267374 102.7266627  68.4975338  30.8244835 103.0575269  68.5260677
  29.4158112 103.4511846  68.1366253  60.2376080  17.5350142  69.9354649
  59.8136234  18.0147588  69.2239094  59.7276115  17.7603996  70.7135010
   8.7901974  27.1257830  89.2691326   8.6093795  28.0633354  89.3364429
   8.6506927  26.9207144  88.3446217 100.9409298  76.9865804  10.5533618
 101.0770525  76.2331037   9.9789256 100.2064384  76.7322640  11.1119956
  65.3099298   4.8432317  88.4160328  65.6850863   3.9868566  88.2108212
  64.7600079   5.0510496  87.6606274 107.8887666  77.3313575   2.1210307
 107.8480114  77.5806837   1.1977691 108.6565651  77.7917581   2.4597854
 106.8384041  93.3079152   5.1951713 106.9032301  93.5521584   4.2719287
 106.1656011  93.8890152   5.5499858  31.2422882 108.6389460  67.0917320
  31.4681088 109.5403367  66.8620968  30.8367382 108.7064198  67.9561424
  46.5924168  43.2486629  80.6358433  47.2041607  43.6764002  81.2350464
  46.7743111  42.3141146  80.7346630  48.2125235  33.2125044  55.0739908
  48.5025024  32.9941082  55.9596825  47.6441431  32.4847889  54.8217869
  79.4923687  25.0068831  80.5811787  79.5877075  24.3140221  81.2346935
  79.3244028  25.7978368  81.0934353  43.2322788  36.4194894  87.5470829
  42.9526329  37.3071456  87.3232651  44.1677570  36.5025640  87.7320576
  26.1403275  15.1906228  75.6936932  27.0279002  15.2237189  76.0505581
  26.0298252  14.2830479  75.4102707  75.0184406  85.6327038  10.9163016
  74.4830335  85.4698138  10.1397532  74.4135202  86.0240130  11.5465278
  68.9575100  35.5893350  85.4417324  68.5395241  36.2278295  84.8639393
  69.8957682  35.7223725  85.3067875  84.9168205  27.1863031  74.9777365
  85.3687859  27.8722692  74.4864035  85.1054382  27.3847675  75.8949423
  15.6288421   6.7106109  18.4942836  15.4398048   7.6331382  18.6658687
  16.5763653   6.6808944  18.3618182 105.5418409  82.8090386   3.2642859
 106.3521494  82.5702434   3.7144107 105.5813278  83.7625103   3.1896991
   4.3698572  67.8024869   0.5473441   4.9251627  67.5820034   1.2951774
   3.5292982  68.0442946   0.9362239  38.3835387   0.8806966  92.8206539
  38.4608197   1.8112341  92.6100445  39.1917729   0.4915907  92.4866199
  58.3654022  21.0368180  84.1425037  58.6840916  21.3028622  83.2800198
  58.4118986  21.8333983  84.6712112  24.9894511 108.0758493  78.4022188
  25.8177744 108.3920828  78.7629271  25.1711928 107.9346179  77.4731016
  61.2934685  18.8779521  82.4183941  62.1752501  19.2395258  82.3291588
  60.8562946  19.1076708  81.5984344   3.6943411  65.5317192  36.6818542
   3.4670614  65.8605545  35.8121222   2.9570459  64.9725466  36.9267100
 104.6135820  76.3639932   8.3970851 104.6403183  75.4261427   8.5867042
 105.5256571  76.6003137   8.2282561 110.2487708  89.7672581  75.7362747
 109.3952347  90.1812815  75.6086254 110.6496812  89.7720479  74.8670912
  85.7719625  69.8434036  12.1665114  85.7752718  69.1880839  12.8642100
  84.8718275  70.1684051  12.1474475  89.8091234  89.8782234   5.1656074
  89.1614546  89.1739421   5.1929587  89.8772777  90.1050501   4.2381782
 110.4616321  80.1995497  19.4051093 111.3402952  80.5249886  19.6007461
 110.5910219  79.5746117  18.6917037 112.9239368  26.5945983  59.1524839
 112.6845169  26.8728709  58.2684755 112.4058342  25.8039832  59.3032742
  80.2189316  80.1492863  14.3775100  79.9027265  80.7358794  15.0646419
  79.5177902  79.5066004  14.2698592  61.7350674   5.4368937  78.2085562
  62.5093699   5.2919078  78.7523079  61.1065531   4.7793427  78.5066032
  26.4287353  14.3644786  80.1299953  26.4030480  13.4707808  79.7881222
  26.2900972  14.2647088  81.0718346 106.5935911  68.5324137  33.4931201
 106.1379446  68.5546701  32.6516170 106.0994590  69.1349130  34.0490455
  90.2007198  16.5093517  95.0952053  90.2656555  17.1594238  95.7947922
  89.9911499  17.0195270  94.3128777 108.1058407  38.5384917  48.8767624
 107.5879192  39.2353606  49.2797136 108.1938744  37.8777289  49.5636940
   2.0502638 103.9887910  21.2898559   1.2787508 103.6899428  20.8085174
   2.5080942 104.5629220  20.6758613  78.6827421  26.3118792  78.2515192
  78.5222149  25.7851601  77.4685574  79.0267038  25.6896377  78.8924074
  76.1939634  45.6288044  11.2476176  76.9768513  45.0869112  11.1492747
  76.4980878  46.4062713  11.7159003  80.6382084  43.6740065  89.6807671
  79.7425318  44.0111685  89.6630192  80.8244705  43.5377312  90.6097317
  67.7665806  37.3886633  88.0242348  68.6771631  37.1361160  87.8716469
  67.2532654  36.7164469  87.5760651 113.9539922  58.5508900  17.6196784
 114.4868149  58.6601277  18.4073371 113.1889070  58.0570658  17.9146499
 114.3511070  63.3500265   6.5232486 114.9741377  62.7611719   6.0974330
 113.6832441  63.5141658   5.8574790  40.3367758  45.7199717  82.6955986
  40.9302425  44.9867058  82.5332832  39.5744848  45.3225040  83.1165123
  41.6768980  15.7113373  85.6529808  42.3939991  16.0212779  86.2061024
  41.8573999  14.7798681  85.5264282  15.7645643  36.2754059  81.4439011
  16.1881077  37.0756483  81.7544746  15.0423610  36.1336374  82.0559120
  79.7229624   4.1149202  93.6020088  79.0205383   4.5104718  94.1181278
  79.5221663   4.3579969  92.6982307  89.1463340  56.6181158  15.2554721
  88.3979763  56.7795569  14.6809024  89.6854747  55.9893963  14.7756022
  61.7073965   9.3450314  83.4414959  62.5047684   8.9171368  83.1295109
  61.9105816  10.2799928  83.4133244  69.5229053  19.4804096  78.7434244
  69.5878506  20.4353142  78.7303543  68.5918760  19.3018317  78.6110401
  69.8611403  44.4369650  85.8907890  69.1360331  44.4493771  85.2660465
  70.5961227  44.8204994  85.4123211 109.5501388  71.6071086  12.7036876
 108.9154257  72.2475831  13.0248755 109.1181959  71.1968152  11.9544715
  80.7400764  90.8207183  -0.0811368  80.4105200  91.1563830   0.7524985
  81.3535799  91.4904599  -0.3832894  96.2556934  16.2978852  76.1228132
  95.8118343  17.1241558  76.3138390  96.7629051  16.1102962  76.9126129
  99.8857368 106.4233165   5.8718032  99.2304815 106.7924504   5.2796859
  99.3747724 106.0298066   6.5791244 108.3344473  72.8253262   5.4447288
 108.8429798  73.6357563   5.4735297 108.9316381  72.1812289   5.0642890
  86.1515821  42.3046594  43.1862468  87.0572389  42.5454991  42.9912776
  85.7444299  43.1202309  43.4783095 116.0683155   1.8299173  84.5901966
 115.9040070   1.4565209  85.4561138 116.8191910   2.4096677  84.7179127
  18.1843792  99.9202465  90.2033615  17.8330456  99.0305280  90.2379704
  17.8088986 100.2952068  89.4067097 100.1737989  89.2473369   6.6977233
 100.9995521  88.8773041   6.3855762  99.7472776  88.5255103   7.1595401
 104.1778864  69.4850604  25.8895797 104.8455585  69.8623495  26.4623755
 103.3735861  69.9496584  26.1208266  95.2610983  69.9341528   2.3697967
  95.2698148  69.9503260   1.4127749  96.1362709  69.6315949   2.6122111
   3.3211111  64.0595232   1.1582393   3.4229254  63.2134830   1.5942210
   2.8860354  64.6125506   1.8071574  72.3620701  18.3929050  81.6729355
  72.6367521  17.4849987  81.5445328  71.6409922  18.3385646  82.3001003
  18.4860205  58.9251773  15.9714812  19.0051912  58.5353045  16.6748351
  17.9959272  58.1913923  15.6005401 108.3412517  71.0113494  35.9599513
 108.3468355  70.0741177  36.1543673 108.9746679  71.1123531  35.2494449
  77.9567623  20.7964778  91.1791992  78.1633902  21.2791109  91.9795704
  78.5880613  21.1183381  90.5356979  80.7889843   8.9783722  79.7908068
  80.9217358   8.8915867  78.8468361  79.9392939   8.5681230  79.9519014
  50.1846790  11.0619783  81.1737251  50.5111694  11.4937592  80.3843021
  50.9555721  10.6384325  81.5513134  99.1731132  34.0208321  14.1332835
 100.0163091  34.4708590  14.0810508  99.2683042  33.2656746  13.5528487
  95.6004524   4.1058815  85.5757141  96.3899326   3.6325589  85.8382320
  95.7444668   4.3190983  84.6537399  45.3979206  17.8541350  74.3483114
  44.9758196  17.4450827  75.1037836  45.1455259  18.7758458  74.4028902
  61.9481564  42.5059605  78.5942030  61.6137600  41.9116163  77.9225159
  62.8964472  42.3766851  78.5778093  47.8231239  14.8988068  89.4477463
  47.7173281  15.8378494  89.2953110  47.2928381  14.7210217  90.2245522
   1.4013920  30.9845781  94.9627876   1.3085709  30.4358816  94.1839695
   0.6824837  31.6134167  94.8997974  62.8618860  38.1129646  84.9423981
  63.6189651  38.4097075  84.4374084  63.1142664  38.2502937  85.8554554
  10.5574774  74.5796637  21.4241141  10.6922411  75.0101547  20.5798739
  10.7717108  75.2508216  22.0720977   5.3679358 102.4111568  68.9653778
   4.5595967 102.8361236  69.2521191   5.9315478 102.4217468  69.7389793
  90.4378891  31.6894436  88.3242226  90.9670162  31.7180419  89.1213703
  89.6195602  31.2730408  88.5947514  11.7204641  89.0981417   7.0850677
  12.5106310  88.8905482   7.5838489  12.0003962  89.7672634   6.4604491
  47.8284883  13.5454166  84.5968533  47.4348164  14.3064237  84.1700935
  47.5835657  13.6339843  85.5179405 107.0233917   5.3961110  83.8356018
 107.3596382   6.2157881  84.1979599 106.1215878   5.3462231  84.1525936
 102.4654961  21.2964201  89.6847630 101.8948078  21.8402886  90.2276707
 102.2474194  20.3980994  89.9331474 109.3731178  81.8059902  10.5843085
 108.6411775  82.3558526  10.8638591 110.1480211  82.3510127  10.7210750
 104.2966093 105.1333337   8.5662955 104.1771949 106.0096555   8.2001990
 103.4337391 104.7249274   8.4963817  89.8060287  68.9899950  12.6895827
  89.1798319  69.0652542  13.4096164  89.8178018  69.8599474  12.2904891
  10.4005217  67.3178928   1.9002456  10.8245825  67.9711978   1.3438243
  10.3771757  67.7212005   2.7680224  84.4146837  69.0643887  16.9252414
  84.3299164  70.0178258  16.9271201  83.7321771  68.7620752  17.5244349
  86.8725586   6.1414826  75.8874655  86.9767952   6.3430393  74.9575520
  86.2349701   6.7826480  76.2015104  88.5920538  66.2427549   5.0747317
  89.4053711  65.7604461   4.9259967  88.8400997  66.9543819   5.6648940
   1.1711204   3.1780868  15.1750678   1.6024149   2.3351484  15.0348300
   1.5769041   3.5255485  15.9693259  50.6405067  25.2359414  84.1061211
  51.2233353  25.1944399  83.3479500  49.8380899  24.8025393  83.8153839
  75.8744873  81.1912518  19.8737067  76.2656654  80.6778126  19.1668815
  74.9508609  80.9399991  19.8694056   2.3848604  80.4800158  18.0560988
   1.5214418  80.7075934  17.7112216   2.7247023  81.3010936  18.4118766
   7.1641134  88.6073666   2.8837699   7.1936964  87.7023034   2.5735778
   7.1281790  89.1333227   2.0848292  98.8976778  85.9800415  14.7258491
  99.8087324  86.1925607  14.5232505  98.8961853  85.0317268  14.8559684
  75.7429637  70.0304501  26.5152472  76.0753478  69.9170868  25.6247920
  76.1325158  69.3094866  27.0099086  81.0480608  84.3297439  12.4602717
  81.3491739  83.6962657  11.8089217  80.6711401  85.0426822  11.9446391
   2.1422947  28.1687647   3.1860274   2.0541179  28.2288652   4.1372699
   1.6212309  28.8983064   2.8506297  90.4036713  64.6903133  91.9284439
  89.9700069  65.0343323  92.7093506  90.0986576  65.2537251  91.2172699
 107.3957647  72.2905343   0.9815997 108.3070577  71.9985442   0.9588927
 107.1517528  72.2422724   1.9059104  10.6287848 101.0567545  91.1004448
  10.1978909 100.9536224  90.2519608  10.2683817 100.3524815  91.6392708
 103.4064770  14.8875725  76.5048456 103.3354473  15.8400333  76.4415693
 103.0171490  14.6741688  77.3528481  79.7040476  86.1060171  16.9071979
  78.9343609  86.3917093  17.3993319  80.2663959  85.6914525  17.5615138
 111.9354881  93.3837991  21.2175292 111.6481937  93.3908014  22.1305675
 112.6601089  94.0086012  21.1896438   2.4339747  88.1591015  28.7266177
   3.1136202  88.0103116  29.3840140   1.8570541  88.8124828  29.1222018
  63.9704514   8.7000901  58.5476971  64.8107624   9.1007048  58.3249521
  63.3978605   9.4404310  58.7483644  54.8518610   2.4327537  87.6776505
  55.2208948   2.9254010  88.4106827  54.6823883   3.0935067  87.0061398
  80.9605612  79.1663604   7.8784675  80.0677408  78.8373117   7.7744025
  80.8498920  80.0673728   8.1820506  55.1401329  34.0245891  60.1471758
  55.8744526  34.1080427  60.7554865  55.2556515  33.1617332  59.7492218
  55.7734967  49.1831486   2.9889125  56.2329210  50.0202073   2.9218692
  55.0562967  49.2524337   2.3587817  95.3014053  97.2379880  13.2515544
  94.6088566  97.8494649  13.5019607  95.4343284  97.3963408  12.3169440
  65.3787422  36.0476065  83.4614754  65.9929466  36.7809010  83.4970570
  64.7850037  36.2671137  82.7434826  95.6976223   5.3604817  83.2406807
  96.4316273   5.8093470  82.8211784  95.5779076   4.5632187  82.7246666
  97.4274219  42.8684895  29.3434543  97.0308031  42.0995717  29.7529525
  97.9767622  43.2484393  30.0290889 103.1945528  79.7959690   6.8930644
 103.3988250  79.4765072   7.7719516 102.4098076  80.3315978   7.0092982
 102.9316057  75.6248193  38.0274123 103.8173116  75.4764967  38.3587092
 103.0349077  76.3082151  37.3651904  21.7406737  96.2450241  85.3889561
  22.2029673  96.4063155  84.5664597  21.1194454  95.5469345  85.1816273
 113.8539518  50.2662690  10.0068778 114.6798958  50.0281786   9.5857257
 113.3301462  50.6530930   9.3052882  58.0318880   3.1503835  93.8967514
  58.0704403   2.4131230  94.5060158  57.1849394   3.5609746  94.0709114
 105.3484739  96.1028819   4.6877784 104.5541156  95.9089332   4.1901702
 106.0383667  96.1562543   4.0263957  83.0949320  66.6524057  56.2702102
  83.0796207  65.7335441  56.0024566  83.9995302  66.9293158  56.1244315
  94.2592239  30.1571798  85.4509830  94.7146702  30.8129025  85.9790325
  93.3341789  30.2770734  85.6657982  69.6940994  40.3599215  92.0629692
  69.5247078  40.1089144  91.1549377  68.9057732  40.8314037  92.3321819
   2.0775913  94.6347980   2.4395675   1.7090582  94.6040969   1.5566939
   2.9970717  94.3952756   2.3237533 105.9212936  64.0328436  27.8076667
 105.8394779  64.1965144  28.7472075 105.1703085  64.4822310  27.4199695
  90.1789917  25.7109027  20.0874633  89.4125522  25.8175616  20.6508750
  90.4453434  24.8004298  20.2152366  55.8680344  29.6803164  71.2558031
  55.2338409  30.3724456  71.4428473  56.0837078  29.7967482  70.3305101
  83.0497850  78.2634454  17.8847236  82.6810707  79.1166668  17.6560515
  83.9866413  78.4282021  17.9914302  30.7946276  97.3658376  13.1666583
  31.1545919  97.5681453  14.0302104  29.8467325  97.3532395  13.2992476
  55.6207336  80.4078083  21.3557643  55.7401849  79.4587331  21.3907069
  54.6767355  80.5340795  21.4514464  87.4648441  89.7604065  35.9924525
  88.1466831  89.5373039  36.6261310  86.6570772  89.4257073  36.3819713
  27.1275449  60.9011555  66.4316177  27.8305459  60.2750397  66.6048193
  26.3388538  60.4743814  66.7663717  61.5088987  18.7146211  85.2666664
  61.0503006  19.3132651  85.8561993  61.1532021  18.9123535  84.4002914
  54.4014835  28.7610340  83.8303566  55.3474236  28.7271595  83.6879539
  54.1281652  29.5857143  83.4285736  76.0281229  35.6253219  94.7291470
  75.2914858  36.2139440  94.5644474  75.6419849  34.8823929  95.1930237
  48.4290075   6.2648940  84.0569210  48.2462692   6.7708033  83.2651520
  47.8895998   5.4790711  83.9688587  27.8136765 104.6677022  92.3882675
  27.6258980 105.3586444  93.0235386  27.0856415 104.0531533  92.4805832
   7.5684536   0.6805187   1.8052215   7.7941549   1.3797527   1.1917418
   7.1693075   0.0028234   1.2596530  57.2960247  53.5129932  11.3854045
  56.5687884  53.3802666  10.7773322  57.9401339  54.0120895  10.8831519
  92.3628820  66.2485676  29.5900077  91.7431749  66.9231122  29.3121928
  92.0162739  65.9341769  30.4250258  57.7687788  25.8096385  93.3229828
  58.0093908  26.7246485  93.1777287  57.8347969  25.6921601  94.2706490
  15.5525684  23.1796718  62.4206018  16.0367775  23.9964724  62.2997332
  14.6507490  23.3989334  62.1863413  78.5281992  13.9701748  72.7325106
  78.9547968  13.8764107  73.5842466  78.9429426  13.3056045  72.1824551
  82.3714828  24.0706706  80.8639812  82.6280689  24.8478460  81.3603687
  81.9595051  24.4172025  80.0725174  85.4878582  87.3131494   0.9801978
  84.7907032  86.6797881   0.8097381  85.7013048  87.6719885   0.1188582
  85.5039467  61.7078041  15.6538314  86.4556612  61.6775047  15.7515449
  85.2067817  60.8419155  15.9334010  67.8804541  37.3971581  83.4673691
  67.6225805  37.2414398  82.5588036  68.3481216  38.2320046  83.4438801
  59.5837641  35.8152223  86.8096161  60.4607391  35.4317498  86.8195057
  59.3544245  35.9124041  87.7338409  75.6136144  34.7430377  16.9701117
  76.1790193  33.9924650  16.7879409  74.8082150  34.5591240  16.4866370
  93.3798755  74.9000399   4.1667670  93.5522665  74.4329028   3.3492679
  92.5355161  74.5603662   4.4632548  56.3427626 101.0855239  81.6645241
  55.9243952 101.9105839  81.9104481  57.2806536 101.2746137  81.6934586
  59.9074507  11.1291802  46.8501377  60.7419395  11.5326893  47.0889616
  59.5343971  11.7198229  46.1957598  63.7312174  19.6463418  81.5670967
  64.1767550  19.5458472  80.7258892  64.1826344  20.3759170  81.9915676
  92.0098699  85.2851515  21.6107959  91.0836805  85.3633933  21.8394584
  92.2228540  86.1163025  21.1864680  81.8196964  15.2863789  94.1952515
  82.2205925  14.4846785  94.5310879  82.1218777  15.9726703  94.7901630
  98.8019384  63.9896654  24.8673552  99.5430626  63.4653943  24.5638675
  98.7327875  64.6990608  24.2284507  13.5815214  89.8202519  18.2430381
  13.4673094  90.3997807  18.9962501  14.0218615  90.3622727  17.5883979
  75.0403404  13.0031466  85.9573841  75.4646969  12.6948059  85.1567078
  75.3576612  12.4115717  86.6397190  56.9991159  35.2208495  86.9748783
  57.8924179  35.4759121  86.7442703  56.6888809  35.9241986  87.5452137
  26.7443644 105.9193244  94.5152187  26.4094626 105.0229045  94.5377254
  26.8475233 106.1596560  95.4359913  12.5696348  84.2909412   8.7917155
  13.1341909  83.8737850   8.1409472  11.7237352  84.3804722   8.3527678
  88.7136650  25.6996179  68.1425047  88.6697483  24.8317909  67.7410316
  87.8946018  25.7790518  68.6314440  67.2346878  16.3086939  79.0204334
  67.2355509  15.7081366  78.2750750  67.0271015  17.1622014  78.6400843
 108.8838733  55.9308406  21.3603991 108.5483564  56.3984303  20.5955333
 108.4298910  55.0883028  21.3442153  97.2465147  69.0440528  20.0156516
  97.7238954  69.2387633  20.8221454  97.0554079  69.9022834  19.6373004
 108.4938158  77.3586683   5.9152717 107.8239883  77.5783758   5.2677459
 108.1953014  77.7801995   6.7211455 107.2821249  79.0333109  13.6200255
 107.1504129  78.4261732  12.8918380 107.0186199  79.8852591  13.2722110
 114.1294492  93.0128841   8.5239619 114.1251911  92.2058206   8.0093116
 113.7440218  93.6691575   7.9434604  79.8154116  19.0444636  73.3902979
  80.5349350  19.6485579  73.5735559  79.0263605  19.5802927  73.4710169
  94.6398640  17.3402965  82.5390244  95.2117157  16.5790701  82.6377583
  95.2352238  18.0897713  82.5471401  60.1516962  10.6188941  77.3685074
  60.6094456  11.3401687  77.8003168  60.2922773   9.8671794  77.9441738
  65.0700153  54.3775952   9.3311519  64.7200025  55.2685046   9.3290729
  66.0143388  54.4910067   9.2233485  45.8679295  21.0109949  80.4698372
  45.5594778  21.7364669  79.9269009  46.1884499  20.3622866  79.8431969
  88.9921917  47.1215032  38.4251708  89.7229494  47.2325115  37.8169745
  88.8701690  46.1738484  38.4825438  32.6498878   3.1358581  32.4001044
  33.4450042   3.0974441  31.8685454  32.3721636   2.2234922  32.4819106
  70.3232050  36.6879010  88.0431938  70.9088945  36.3430667  88.7172031
  70.6626987  37.5630283  87.8557682  77.7329063  43.9325809  87.6290989
  77.9084396  43.7265587  88.5472298  78.5728502  44.2394114  87.2876644
  25.2108561  96.2202369  65.2039146  24.6983229  96.5329587  65.9493971
  25.6356560  95.4238307  65.5225229  24.0520798  81.2478494  90.0443172
  24.5601927  80.4868578  90.3252983  23.6773716  81.5974306  90.8527851
  78.1424106  96.0876517  21.9397086  78.6300982  96.5104012  21.2328357
  78.6908854  95.3475480  22.1998137  34.0397250 105.9473633  92.2470951
  34.6239601 106.4215129  91.6554165  33.7111222 105.2161097  91.7241001
   2.6229643  82.9721384  19.0421981   3.4544634  83.4456329  19.0676803
   1.9845223  83.6246066  18.7542647 108.6094761  25.5544138  85.2627277
 109.3727016  25.6882215  84.7007561 108.9727402  25.2302670  86.0868645
 111.3611330  47.8327982  15.1571864 111.4459432  47.2789108  14.3811435
 112.2621072  48.0524867  15.3942794  96.4824308  61.1423819   3.6710757
  97.1383394  60.4647880   3.5071105  96.9855894  61.8893264   3.9953155
  54.6067810  12.4956989  68.0760956  54.1908503  13.0410612  68.7437916
  54.1486502  12.7181852  67.2656298  97.7148784  79.6096997  22.4273223
  97.4847234  80.3107386  21.8175620  97.0067419  78.9719753  22.3374003
  95.4876627  43.1324391  40.7094306  94.9995578  43.4547334  41.4671344
  96.1885322  42.5995665  41.0850162  86.8743038  23.2977414  94.9990082
  86.1515331  23.9004207  94.8240185  86.5878963  22.4649668  94.6239185
 113.2924951  52.6833917  13.1939715 113.1564583  51.7387586  13.2674140
 112.4105943  53.0468996  13.1143302  83.9637531  84.9910336   1.1397952
  84.0101684  84.7327905   0.2192611  83.1095136  85.4139833   1.2271232
  28.0746924  84.4290828  70.7762051  28.4488093  84.6517443  69.9237442
  27.7238451  83.5460448  70.6605148  97.2916235  82.4015861  49.8741168
  97.9052366  82.1122651  50.5493945  96.5812648  81.7607789  49.9055404
  96.1436189  43.9583116  38.1322974  95.6580509  43.5040383  38.8208407
  96.0728372  43.3835046  37.3701781  49.9572992   8.6471301  74.3225145
  50.2273750   8.6268693  73.4044266  49.8122597   9.5746982  74.5090914
  73.1769527  51.2176763   5.9399623  72.3174013  51.2633829   5.5212611
  73.5801161  50.4304602   5.5739325 101.8733324  74.8205178  15.3781623
 101.5826572  74.3237762  14.6133155 102.5175823  75.4380517  15.0320071
 102.3106588  26.5050416  38.0672378 102.6733030  25.7765870  38.5712928
 101.4468874  26.1986642  37.7910727  42.4833571  85.4564738  75.2314806
  41.8522536  86.0908841  75.5712795  43.2918059  85.9573769  75.1231098
  42.4438368  98.1267332  71.2686825  42.3589217  98.1115448  70.3153801
  42.7900873  98.9973735  71.4644623  48.6671925  56.7210007  88.8170433
  48.3023787  55.9161901  89.1850471  48.0893660  57.4139452  89.1366959
  74.7990513  16.1444962  88.3510971  75.4615068  16.4796031  87.7468777
  74.4516134  15.3651381  87.9173660   3.7572931  87.2158842   4.6327132
   4.4568228  86.5768151   4.4967956   3.3050131  87.2587447   3.7901896
  78.2647800  29.2024970  89.4404411  77.6823473  28.4433055  89.4152641
  78.7590075  29.1524506  88.6222267  27.6107311  38.2601333  88.0601406
  28.4097314  38.3056617  88.5852623  27.0464730  38.9429617  88.4228897
  86.8424988  32.6205611  89.6346951  86.4139271  33.2265139  89.0302277
  86.1224270  32.2130156  90.1159763  77.3041630  11.3540363  85.2487564
  77.4094868  11.3423824  84.2974377  78.1927919  11.2514102  85.5893898
  85.3500652  40.2606392  89.0268517  85.1013374  40.8479977  88.3131409
  86.1670399  39.8582172  88.7321663  78.0452455  67.2604911  15.1278991
  78.6948813  67.3799150  14.4351214  77.4920191  66.5440862  14.8165626
  64.4038582   8.4713191  94.1119957  64.6325493   9.3749750  93.8944244
  63.4564304   8.4263682  93.9831829  20.3689514  94.1712570  84.0448952
  19.8246132  93.4408819  83.7508202  20.7832037  94.4979846  83.2462215
  90.5298914  74.7721546  25.0358409  91.2372507  74.9301081  25.6610793
  90.6626142  75.4296045  24.3529242  95.5086721  82.6860790  23.4386081
  95.2089609  83.5935430  23.3846301  96.4582504  82.7530246  23.5388965
  29.2741715  98.1884074  71.1444044  29.2939364  97.9526412  72.0719004
  29.5143830  97.3824727  70.6872368  93.3369650  89.4180493   2.6900119
  93.6866392  88.8719945   3.3941287  92.3918403  89.4276886   2.8412456
  15.3426622  61.7932372   8.0836600  15.5938887  62.6961522   7.8890819
  14.6055197  61.8748360   8.6888045  61.0249996  26.2778115  94.3370438
  61.8855429  26.0477757  94.6874523  60.4354286  25.6140590  94.6949196
  68.0114508  34.0924788  87.5553322  68.3219910  34.7333145  86.9156933
  67.1268320  33.8721609  87.2635365  77.3064650  91.4122181  29.7059459
  76.4118947  91.6282825  29.9691791  77.5143923  90.6161241  30.1950568
  58.2532740  11.3939440  89.6997738  58.7472010  12.1307099  89.3399906
  58.3296442  11.4948940  90.6485653  62.9854584  23.0359030  82.6362324
  63.7523317  22.5216198  82.8885174  62.4492311  23.0706835  83.4283733
  61.8553925  12.3458779  78.6617756  62.6007271  12.2300017  79.2510796
  61.8604565  13.2793152  78.4498787  22.0746076   8.5984283  24.5303363
  22.3849619   8.8457351  25.4013938  22.5042808   7.7619844  24.3515319
  56.7148565  96.4828067   6.1038798  56.1117052  96.1180453   6.7514819
  57.5578093  96.0770659   6.3064307  21.7682718 106.0091739   8.1270045
  21.4268469 106.9022422   8.0812377  22.6298307 106.1026721   8.5334510
  74.2712511  95.5753760  11.2684173  75.0262202  95.0038581  11.1283607
  74.0858163  95.9432988  10.4044265  40.0743055  61.1110210  81.6468239
  40.9292698  60.7355928  81.8573570  40.1906443  61.5007257  80.7803249
 100.5182470  58.8971435   0.1967162 100.5627025  59.2747052   1.0751838
 100.1227583  58.0351447   0.3262347 110.2705492  83.0004578   6.2301272
 110.3916420  83.6308174   6.9402045 109.8786749  83.5105448   5.5212707
  46.7236900  29.8145962  78.5273123  46.8935585  30.3040934  77.7224731
  47.5364780  29.8869038  79.0276909 109.5507349  80.5898266   8.0506629
 109.3563904  81.0891371   8.8438529 109.7722782  81.2539129   7.3978633
  83.4852600  43.9546585  84.5151234  84.3409824  43.5272980  84.4784355
  83.1154823  43.6787033  85.3537750  18.4558653 102.4906449   8.4476871
  17.5768637 102.8689437   8.4693831  18.9857363 103.0853467   8.9785308
  41.5618324  40.4986334  55.2569342  42.1875715  40.8643484  54.6316862
  41.9415379  40.6887245  56.1147928  92.6379013  21.4074349  84.3200302
  92.2910213  22.2035336  84.7226906  93.2983112  21.7199826  83.7016392
  10.2025580  86.1687522   8.5118693   9.3768000  86.6497092   8.4567183
  10.3670668  85.8719044   7.6168555  86.4396858  13.2131636  82.5186539
  85.5936623  12.8853166  82.2136974  86.2553501  14.0998399  82.8285885
   4.7144198  83.6617498  16.1813849   4.6161150  83.7523322  17.1292037
   5.4370188  83.0433230  16.0735435  67.4721861  32.3077226  91.8945122
  67.7218151  32.3650551  92.8168106  66.5235901  32.1806812  91.9105816
  70.2746570   4.7012716  14.2695445  71.0383404   4.9315315  14.7987002
  70.6332004   4.5061880  13.4037322  62.4664164  26.3693500  85.2464199
  62.1469593  26.5457296  84.3615150  62.1727419  27.1209240  85.7613182
   9.2041754 103.4863000   1.2607497   8.2504343 103.4059434   1.2478847
   9.4905733 103.0702739   0.4476470  63.4037781  14.5010650  92.5956917
  62.7842617  13.8382173  92.2906399  63.7267685  14.9137080  91.7946720
 115.1397766  99.5868783  13.4639281 114.6321787  98.8475184  13.1293792
 115.5398334  99.2580419  14.2689437  80.9905720  19.8191035  91.5070248
  81.0702229  19.7988856  90.5533600  81.1395073  18.9135396  91.7790604
  17.7373480 108.2180934   2.9248065  16.8112635 108.4515147   2.9889602
  17.7519011 107.2662311   3.0246848 105.3985609  87.7114944   4.9387473
 105.6138290  88.4639482   4.3876571 104.4437326  87.6541572   4.9034995
 104.3262209 101.6972642   2.6448649 104.5369447 100.9585671   3.2159728
 103.5420431 101.4184003   2.1720809 114.1234888 103.2258563  33.4983748
 114.8324550 103.3809476  32.8742331 114.5577587 103.1926494  34.3507403
   7.7116083  68.5936599  28.5062617   7.9228090  69.0819423  27.7105159
   7.8470110  69.2217832  29.2157382 108.4235824  85.2827315  21.2146014
 108.8117851  84.7637730  21.9190234 107.4812378  85.2401714  21.3771075
  62.6447392  31.5032220  83.0773926  62.0973158  32.1173692  82.5881290
  63.4604073  31.4594388  82.5784016   9.0453791  90.9491949  21.8804664
   9.6663164  90.3274398  21.5008754   8.2507872  90.4356484  22.0257968
 107.8994144 104.4960980   5.0570601 108.6893095 103.9576583   5.1058692
 107.7148832 104.7335534   5.9657878  18.0189394  61.8984764  12.5911635
  18.6831259  61.5172939  13.1654376  18.1078886  62.8432958  12.7162093
  90.6787265  81.1778026  18.9754695  90.9457077  80.9545832  18.0837745
  91.4758886  81.5103440  19.3880004  97.8548349 109.0612273  36.6567630
  98.2666839 109.9092441  36.8225497  98.1475700 108.5072379  37.3803920
  58.5972118  22.1243477  59.0595436  59.4601107  22.2341967  58.6600876
  58.5568714  22.8033066  59.7330570 105.6813396 109.0268903  37.0740146
 106.5036977 108.7147384  37.4515361 105.4966320 108.4140162  36.3623256
  65.6033611  38.8424373  95.2985096  65.8600760  38.3286452  94.5327759
  65.1846266  39.6223140  94.9342346 101.5693487 109.0991454  43.7805575
 101.2850107 109.4957118  44.6040362 102.5030054 109.3030505  43.7263316
   8.0181383  87.3929553   5.1704997   8.9235949  87.4487452   4.8651046
   7.5177359  87.8984313   4.5299357  62.3978662  24.9939895  89.1874790
  62.2945690  25.2858996  90.0932121  61.5355301  24.6568656  88.9446640
  78.9866734  24.1954994  76.1698389  78.1377316  24.4638109  75.8183575
  79.6271706  24.6378469  75.6127739  83.0920601  13.7758768  74.5122480
  82.5487328  14.5599174  74.5917273  83.5067749  13.8579130  73.6534595
 109.9498762  92.7724962  17.1143741 110.6623806  93.0918341  17.6680774
 110.1600565  93.1011991  16.2402934 108.1721176  86.3726358  18.2200164
 107.5655855  87.1125512  18.1904048 108.0879368  86.0293822  19.1095847
   8.7156462  98.4329658   1.8711680   8.4477018  99.1425710   1.2873000
   8.3614992  98.6792426   2.7256602  53.0592775  25.6179523  82.1023369
  53.6871099  25.9084916  81.4407921  52.8792477  26.4013362  82.6220798
  75.8592415  42.3078299  86.6300011  76.5730095  42.7609825  87.0788002
  75.4701948  42.9748774  86.0643864 105.1904262  66.3636665  10.4714221
 104.9813713  66.4078538   9.5383758 105.0501169  65.4460983  10.7051200
  87.7399315 104.5629601   5.3712005  87.1983446 104.5589881   6.1604423
  88.5474075 104.1203694   5.6325931  57.3303556  18.7783754  87.4093437
  56.6757059  18.6992097  86.7155075  57.5622797  17.8748548  87.6240349
 109.8102726  78.9057379  53.2379264 109.4169534  78.0388050  53.1381339
 110.6851543  78.7332134  53.5858363  17.6801752  89.5881157   2.0073050
  16.8045687  89.9438481   1.8556994  17.5256609  88.6974816   2.3221415
  75.5680895  23.0770564  74.4247818  74.8107004  23.0011916  75.0051594
  75.8761835  23.9747405  74.5491648 104.9171604  76.7300634   0.9702605
 105.7916464  77.1140008   1.0342807 104.3594850  77.3182325   1.4794654
   1.8796801  93.2689910  15.9959811   2.3135637  92.7765064  16.6927165
   2.4786734  93.9904742  15.8038920  14.1961741  86.7206554  22.8875941
  14.3819975  87.1543055  22.0547408  13.4689879  87.2192340  23.2602138
  69.2516232  27.5452614  82.7496243  69.8761034  27.1797943  82.1229744
  68.9276075  26.7865729  83.2350540  92.0040287  70.6755059   5.9529418
  92.9250921  70.4238229   6.0202235  91.7296232  70.3527229   5.0945968
   8.3574366 106.9103770  -0.0820237   7.9180121 106.6208749   0.7175559
   9.2579817 107.0869832   0.1901072 111.7219366 105.7571464  44.0333575
 111.1854232 106.4427094  44.4313354 112.5796140 105.8536725  44.4472522
  22.4167036  53.8416671   8.1482524  21.5577196  54.1719680   8.4114856
  23.0005526  54.0966003   8.8626498   6.9163870  85.0924115  21.3918609
   6.2911963  84.3676500  21.4012927   6.4473223  85.8187060  21.8025989
  68.4017372  44.4016075  83.5770130  68.0090332  43.6863422  83.0766010
  67.9550934  45.1875401  83.2622910   4.5067381  75.6290941  20.7211417
   4.2439055  75.6489544  19.8009509   4.1452765  76.4346056  21.0909194
  89.5608343  70.7747965  27.2816104  88.8655723  71.2983136  27.6800746
  89.5398821  71.0142546  26.3550872   3.0170607  91.9087272   5.3637046
   3.8214659  92.2179489   4.9471015   3.1928228  90.9912281   5.5723590
  94.1104997 100.8740668  46.4758700  94.2523159 101.1365418  47.3853892
  94.4877971 101.5862374  45.9594459  13.0239843 105.8998733   6.3729018
  12.3146319 106.0797791   5.7558936  13.7809252 106.3581424   6.0078639
  83.8539219  60.5527878  87.3244190  84.6673012  60.7295847  86.8517780
  83.3667469  61.3754654  87.2788143 103.6196006  74.2670505  32.6250857
 102.7332796  73.9163380  32.5375480 103.5801185  75.1256804  32.2038573
  82.1610260  24.5069551  90.3418827  82.7595043  24.1962147  91.0212231
  82.7071190  24.5866799  89.5597935  39.0625607 109.4999869  91.8071079
  38.5998713 108.8468821  92.3320866  39.2990385 109.0373050  91.0032177
  95.4993738  76.2123280   1.1407012  96.3193763  76.3925199   0.6809634
  95.1429571  77.0774202   1.3427276  97.4465240  67.3185234   0.0763530
  97.3961319  67.4259405   1.0261649  98.3845962  67.2948258  -0.1125699
  84.1198730  67.9026413  93.0883503  84.7307968  68.4323883  93.6005783
  83.9780331  67.1193933  93.6199856  42.4974823  20.7429814  94.5670986
  42.6584244  20.5019522  95.4793644  43.1344271  21.4341760  94.3860435
  78.1491650  88.0330257  21.0045070  78.7403024  87.3449426  21.3100070
  77.3318304  87.5759988  20.8062095  93.6167717  29.7545218  77.4740791
  93.6540985  28.9370441  76.9775200  94.4978809  29.8566771  77.8338432
  70.0440741  41.5280628  86.5443420  69.7768164  42.4083996  86.8085575
  69.7114563  41.4345694  85.6516743   4.6231054 104.7837214  19.2319411
   4.5355105 105.6951051  18.9527720   5.3063559 104.8030953  19.9020404
 106.1378730  59.3553369   4.8828906 106.6403402  60.1593690   5.0144023
 106.3421215  59.0891834   3.9864177 103.8214779   5.8935368  83.8006210
 104.1127110   5.6525582  82.9212189 104.1586685   5.1969206  84.3638802
 105.9579385  96.7470269   7.1963614 105.0839103  96.9327788   7.5395888
 105.8051552  96.4536481   6.2981242  23.3615088  65.4046087  21.2693900
  23.8180327  66.1562161  21.6474074  23.2725500  65.6204991  20.3411025
  85.3581129 104.6935266  90.0562572  85.0381552 105.3864711  89.4785976
  85.9143339 104.1523754  89.4958973  41.8353927   3.3795124   6.3068313
  42.6675785   3.1302696   5.9048766  42.0481861   3.5225492   7.2290534
  57.4441863  77.4725203  27.0347136  57.8837360  77.5401144  27.8823298
  57.3989571  78.3739023  26.7158050  47.9432726  49.4704199  84.7879982
  47.8585672  48.7298822  85.3885460  48.5477924  50.0678873  85.2282429
  19.8898481  77.5019603  19.0594501  19.9876093  77.0988421  18.1967944
  19.5785021  76.7924433  19.6214885  17.0145296  89.1319971  24.3437880
  16.8484758  88.6628609  25.1614493  16.5374540  89.9563007  24.4394607
  85.4876436  76.6259723   2.2942656  85.7036127  77.4087458   1.7874545
  86.3040699  76.1271911   2.3241633  19.9476469  22.3410993  34.1834086
  19.3864334  22.3004394  34.9577540  19.8614443  21.4775758  33.7795180
 114.7388554  51.6924906  81.7224503 114.8442459  50.8200407  82.1018600
 114.5107079  51.5296936  80.8072090 101.0702146  75.1992040   8.1589145
 101.8221344  75.5536942   7.6843852 100.3179611  75.4053860   7.6040858
  23.4300934 105.5198472  75.6477356  24.3584715 105.5125203  75.4147387
  23.0225216 106.0833358  74.9900103 102.4647392  72.6975732   6.6265220
 101.5167297  72.7260666   6.7557448 102.6855673  73.5627370   6.2816161
 115.5220474  68.1801515  50.3751105 115.0693620  67.4668329  49.9251288
 115.2687324  68.0832260  51.2930793  45.2561760  27.5255513  82.6119995
  45.3409004  26.6134548  82.3342609  45.1435661  28.0146360  81.7969227
 108.6016096  91.1601858   0.8147449 108.2002367  91.0344582  -0.0450974
 108.9883579  92.0347767   0.7729644   3.1750750 107.1737056  13.0377597
   2.8838228 106.2781911  13.2093829   3.5149931 107.1477513  12.1433276
  74.7151852  33.1775236  91.4517498  75.0874567  32.3435926  91.7384624
  73.7732410  33.0798721  91.5911388  55.8601093  16.1655819  86.4987087
  56.2841845  15.4549956  86.9798088  56.0528278  15.9808755  85.5794811
  60.6735849  34.6891856  93.0964565  60.6856966  35.6070971  92.8253078
  59.7716713  34.5342278  93.3771133  98.2402910  90.1490359   8.9402217
  98.8013996  89.4107752   8.7028235  98.3846010  90.2673607   9.8790568
  94.5875086  80.2311234   7.7630538  94.9370397  80.9573059   8.2794970
  95.2064670  79.5152597   7.9068107  28.6820732 105.8521261  62.2024632
  27.7925955 105.9912895  61.8773556  28.5847985 105.8047872  63.1535292
  89.6035862  48.9169979  87.5687027  88.7337875  48.9334154  87.1694469
  89.4515991  48.6063957  88.4612560 108.2727064  60.6271093  18.1366462
 108.5990537  60.4078625  19.0093822 109.0477813  60.9209220  17.6579398
  21.0504221  92.9637175  21.7142219  21.0741304  92.0503192  21.9994754
  21.8234228  93.3602672  22.1160335  69.9287785  98.1017880  28.8715667
  69.0175141  97.9411321  28.6265868  70.0332679  97.6550870  29.7116679
   2.2923779  95.5121331  11.8104667   2.5785421  94.6006660  11.7507476
   3.0585836  95.9827189  12.1386737 114.9721492  83.6220984  42.9565352
 115.7567657  83.3970718  43.4565085 114.5057739  84.2473655  43.5113067
  23.3497118  91.7949228  27.1306914  23.7165617  91.5104299  27.9677791
  23.9884066  91.5062432  26.4787978 109.2520488  77.8448849  27.7621669
 108.6275686  77.9800992  27.0494479 110.0997509  78.0818968  27.3860568
  97.4145603  81.7221546  72.9457569  97.6060486  80.9550762  73.4853363
  97.4122143  81.3891888  72.0483398  49.6095073   5.5469328  21.2889022
  49.9665058   4.9505287  20.6308097  50.3362072   6.1329370  21.5004176
  98.0798149  44.6792603  95.1810074  98.9858723  44.3762064  95.2397537
  98.0588055  45.2199221  94.3914032  32.5948095  47.9692316  89.7649860
  33.4812689  48.2766819  89.9544525  32.5477624  47.9482126  88.8091755
 112.0583309  92.7693801  43.2589263 111.4152969  92.6800399  43.9623088
 112.1311535  93.7135653  43.1194800 116.2980283 108.0044465   9.3911952
 117.1728147 108.1101708   9.0172881 115.7273258 107.8775887   8.6332816
  97.6089967  97.2500186   8.5371989  98.0462755  96.6621690   7.9212016
  98.3224643  97.6483397   9.0357322  60.1155758  13.0040693  85.4508305
  59.5807934  12.4189758  85.9874058  59.8397541  12.8238356  84.5521259
  84.1955376   4.1187423  89.2178059  84.0322399   3.9368668  90.1432705
  84.8039627   4.8576787  89.2226601  53.5637545  90.8797865  21.0943908
  52.7296804  90.8328276  20.6271190  54.0684961  91.5388422  20.6178302
  67.3444510  30.9088421  84.4056892  67.2717237  30.6741977  83.4805489
  67.0191193  30.1400661  84.8740673   0.2919745  75.6375937   4.8097915
   0.9555983  75.2826171   4.2183322   0.2390074  74.9992566   5.5210990
  59.5509720  37.2839117  92.2931480  60.0815964  38.0771756  92.2196102
  58.8858271  37.5003958  92.9465580  46.3685392  64.3575602  11.0760516
  46.5925192  65.2695684  10.8908385  45.5236887  64.4045483  11.5235538
   6.2683653  83.1815343   2.6382274   6.2333082  82.4900680   1.9772643
   5.5225538  83.7458162   2.4343223  98.7305130  85.7227330  23.6479491
  98.4982027  84.8079376  23.8073653  98.5041536  86.1726694  24.4619197
  56.9593143  20.1454711  75.0119877  57.0695114  19.2659342  75.3732395
  57.7265978  20.2731299  74.4541216  67.4479282   7.4884563   3.6419410
  66.9011009   8.0171161   3.0608005  66.8248737   6.9698959   4.1509932
 101.6256905  18.2768786  91.0696888 100.7670212  18.3810675  90.6597233
 101.5374088  18.7031794  91.9221592  59.3842970  91.6292154  72.7831459
  58.6137949  91.0837161  72.6250648  60.1197134  91.1004090  72.4737024
  43.4535110   1.7905431  40.2351874  43.5874737   2.7277332  40.0939006
  44.0046203   1.3678461  39.5765132   7.1638941  55.8920405  13.2482547
   6.3118242  56.0934055  12.8613872   7.6698088  55.5131685  12.5294131
  22.4127745  93.2779174  14.2904872  21.9022440  93.6779718  14.9944324
  22.5336908  93.9813857  13.6527175  17.8924154  93.1254773   3.2858676
  17.4955629  93.9553194   3.5506362  17.9874586  93.1976776   2.3361320
  51.0926008  15.7463264  83.5630417  50.9004164  15.7109141  84.5000839
  51.2512302  16.6735291  83.3859539   8.9970945  77.5174980  56.1416263
   9.1194128  76.6180901  56.4454860   8.1473707  77.7771358  56.4976996
  10.7408117 101.5352302  32.3939437  10.0320505 100.9070878  32.5329417
  10.3208708 102.2781186  31.9603652  11.7479025 107.5660557  89.1895771
  12.4266468 107.1092241  89.6864223  12.1681105 107.7887941  88.3588886
  84.9225010  97.6333003  47.6054305  84.8999656  97.4357753  48.5417575
  84.0783037  97.3256879  47.2753638  87.3184013  22.5528812  79.4247627
  86.6199780  23.1088090  79.0792513  88.0702400  23.1389332  79.5114851
  84.1602707  19.3954492  78.0814075  84.7877979  20.0516033  78.3845711
  83.8345051  19.7414958  77.2505283  37.4804759  21.6451550  88.9397335
  36.8675375  21.0804081  89.4104767  36.9363928  22.1144629  88.3073044
  74.8821688  38.8365984  85.0265980  75.8084488  39.0099359  85.1945019
  74.4421864  39.0746713  85.8426666   4.6665167  96.8093591  18.1221789
   5.0335859  97.6869779  18.0159682   5.3748392  96.2994437  18.5152453
  83.8611221  31.5108323  87.6315212  84.1722012  31.5405345  88.5362720
  82.9363060  31.2747979  87.7038479  36.1151575  85.8097200  26.7456073
  35.5703234  86.5840201  26.8864840  36.8134665  86.1107640  26.1642474
  82.6454353  41.2217140  86.8850517  83.2290745  41.9535160  87.0852184
  83.2248974  40.4620075  86.8276215  24.7139335  27.9838395  93.0071449
  25.3110814  28.7303042  93.0565262  24.5989990  27.7084851  93.9166546
  28.3231867   4.8717981   7.8588981  29.0653360   5.4515653   7.6876945
  27.5942076   5.4640251   8.0435389 108.7615980  86.3428955   2.5547904
 109.0022100  87.2684197   2.5130862 109.1563905  86.0292058   3.3683986
   4.1272425  83.6837225  11.8994159   4.9942946  83.7096577  12.3041171
   4.0316080  82.7810483  11.5956611  23.7410867   4.6727186   7.0787639
  23.8139427   5.4653841   6.5471572  24.3222988   4.0435320   6.6515178
  54.6771419  33.3979326  21.6558761  55.5568588  33.4758955  22.0249862
  54.2866314  32.6584821  22.1216506 107.5584316  43.4834528  84.6063995
 108.0787849  44.1060972  84.0986824 106.6691494  43.8365507  84.5795536
 103.6143494  20.4206300  87.2418976 104.5337200  20.2538967  87.4497414
 103.2895851  20.9302330  87.9842281  30.7676386 102.4347453   5.7741279
  31.4588141 101.9666438   6.2425059  31.1785482 103.2534747   5.4965228
  90.2865232 108.1779246   9.8572368  90.9661497 108.1445889  10.5304545
  90.6203045 108.7996917   9.2105311  16.6369318  91.1601596  14.0655440
  17.0915674  91.5846615  13.3379954  17.2981142  91.0925798  14.7543925
  41.9326757  97.8627639  19.7997684  42.7459120  97.3641162  19.7208518
  42.0434736  98.5985331  19.1976089 103.4567941  97.4104123  17.8713721
 104.1038860  96.7857556  18.1989497 102.9048456  97.6031213  18.6293048
  41.7138075  96.9664388  16.1172790  42.0689940  97.8474956  16.2347812
  42.4365973  96.3837628  16.3502807  18.9021944  82.9016976  11.0969562
  18.2792543  83.6139159  11.2416095  19.5575308  83.0131106  11.7856807
  16.9016146  94.5936518  36.8803233  17.5801825  93.9791684  37.1599311
  16.4000582  94.1131740  36.2216777  88.2845688  54.0474796  94.7700500
  89.1795349  54.0700626  94.4312859  87.7825451  54.5836258  94.1562557
  18.5451496  -0.2179903  13.0580253  19.0877903   0.0048071  13.8144225
  17.7432049   0.2900272  13.1806106 107.6273359  92.3272901  18.8101119
 106.9760574  92.9628973  18.5133475 108.4603513  92.6679473  18.4841365
  93.0996227  51.9506168  79.6135855  92.1959686  52.2218895  79.4521666
  93.0202866  51.1152792  80.0741768   9.2478905  67.4168301  65.8141088
   9.2263184  67.4293900  66.7709827  10.1797829  67.4202681  65.5954790
  90.8620262   0.4533778  89.1252708  90.4244709  -0.2086678  89.6605015
  90.3507233   0.4838604  88.3166409   3.3345198  45.9287952  44.7089786
   3.9448427  45.4737245  45.2891940   2.7030539  45.2571629  44.4513053
  72.0155895  18.6846691  21.7010898  71.2926185  18.0728298  21.5625400
  72.8037822  18.1586223  21.5659446  88.2955993  91.6775804  26.0223311
  88.3960499  90.7263379  26.0581130  87.7178682  91.8852048  26.7567367
  99.5164490  51.1001396  84.8789310  99.1660500  50.2727842  85.2089882
  99.4195843  51.0391521  83.9286041  29.9454187  93.2150536  21.3052100
  29.3924402  93.9548163  21.5565890  30.6041216  93.5950689  20.7238788
 110.7335091  96.6646576  89.0022087 111.2015724  96.8166637  88.1812096
 110.4412746  95.7548714  88.9463997 106.6272831  20.2370930  52.5191736
 106.2013054  20.2695870  53.3757448 107.2457504  19.5096505  52.5866842
 114.9999012  96.6540770  23.4400863 115.7834543  96.1672740  23.1845588
 114.3109192  96.3164763  22.8677672 103.4667683  97.5287914  83.7084866
 103.8101006  97.5185204  84.6019363 103.3713150  96.6046810  83.4779453
  47.5201023  32.1510797   3.3984393  48.3437050  31.7851740   3.7209624
  47.0600784  32.4376398   4.1874141  18.5037363  10.7106214  60.1592463
  17.7921951  10.5815321  59.5321292  18.8162744   9.8266941  60.3521747
 113.7456335 101.4482503  15.6834144 114.1053737 100.8127456  15.0645846
 112.8450359 101.5853553  15.3895396 108.8897289 109.7821050  14.9034518
 109.7173990 109.3161015  15.0219459 108.6322368 109.5876126  14.0022868
  45.3109253  18.1725698  14.8996943  44.9332989  18.5641771  14.1121215
  45.8262623  18.8764387  15.2936858   0.8490906  39.0197206  86.3949871
   0.0416432  38.5072422  86.3544559   1.4648018  38.5408688  85.8401585
  57.5863636  12.0991569   3.4276599  57.8265751  12.7344328   2.7531547
  56.7969597  12.4626880   3.8288039  95.6738472  66.3385105  81.4881420
  95.2138710  65.5608511  81.8042183  95.0095463  67.0276499  81.4915848
  32.5267637  13.8483291  11.9265098  32.9727066  13.9594894  12.7661532
  32.1094501  14.6941333  11.7631263  72.9581022  35.6240773  86.3726044
  73.5030270  36.3571382  86.6588020  72.6620770  35.2140880  87.1853256
  76.8473148  61.1542177  86.2013626  77.1877670  60.3644133  86.6215324
  75.9303093  60.9510374  86.0168266   8.9232706  84.1854696  10.7650870
   8.0491041  84.4267135  10.4587287   9.3385576  85.0193577  10.9851092
  87.9632092  53.5085821  72.6198912  88.3482170  54.3843412  72.5875044
  87.5131321  53.4758806  73.4640408 113.0509663  32.8887105  88.9337063
 112.2581196  33.4047556  88.7876892 113.7555885  33.4235716  88.5680962
 101.6274357  59.6496296  77.6423693 101.2261391  59.6373844  76.7734385
 102.3346901  60.2906132  77.5705433  27.2282480  58.7841408   1.2118548
  26.4405417  59.3192183   1.1147231  27.9079031  59.2717533   0.7465190
  42.1912658  18.9477449  21.7615336  42.6480186  18.9592271  22.6026553
  42.6278007  18.2582098  21.2613315 108.5754789  79.2545896  23.8052005
 108.3665956  80.1761632  23.9578456 108.3089603  79.0953808  22.8997439
  35.1896547  75.9571366  12.5944442  34.3946146  76.4901881  12.5947398
  35.8283400  76.4793568  13.0798453  12.5423597  96.2437158  27.8188819
  11.7814421  96.8215041  27.7605552  12.9882311  96.5151172  28.6212367
  63.8298512  84.8251820  72.6195192  63.5696697  84.1727638  73.2698154
  63.4951115  85.6532288  72.9637861  36.7359627  12.8992229  28.1442565
  37.3589742  12.6375204  28.8221950  35.8828151  12.8650814  28.5769290
  69.2678821   4.8111540  41.7544288  69.7546375   5.1294428  42.5146789
  68.3490455   4.8719078  42.0157260 100.0079931  98.4451108  16.3726062
  99.8033775  99.3257623  16.6869563 100.9641803  98.4026961  16.3845271
  25.1969885  96.6636901  19.0460509  26.1166452  96.4697270  19.2272777
  24.7797560  96.6722589  19.9074859 116.2842239 106.0221963   6.7554111
 115.5657829 106.4456897   7.2252292 116.7766441 106.7458920   6.3680953
  87.1773624  59.8961878  91.8376446  87.3406506  60.6781960  92.3649406
  86.9183350  60.2349329  90.9806824  99.6343864  60.5641632  35.9691829
  99.0834631  60.2128308  36.6686648  99.7439302  61.4885967  36.1920184
  62.1271312   0.8339887  31.1982459  61.2042988   1.0670286  31.2997645
  62.3203457   1.0159259  30.2785796  10.0102209 108.4769731   2.2216910
  10.0976824 108.8351684   1.3383502  10.3984808 107.6038508   2.1656150
  99.9997616  77.5578117  70.6018448 100.5093670  76.7525339  70.5120516
 100.4246712  78.1775284  70.0088596  67.7759504  22.8150105  81.1623764
  68.1556559  23.6386156  80.8562183  67.0183086  23.0798364  81.6839886
 106.7120552  10.0813711  74.7300816 106.0886574  10.6738675  74.3099022
 107.3246765   9.8450702  74.0335894  70.4660404  17.8474289  28.2454890
  70.6842029  17.6254898  27.3402900  70.8139408  17.1198040  28.7610072
  22.4214720 106.1085753   4.0710467  23.2662844 106.4301782   3.7562388
  22.6361059 105.5926280   4.8481959  59.7035873  10.3521019  39.0843600
  59.0215481   9.9104791  39.5903510  60.4619396  10.3689581  39.6681804
  61.1679792  76.4825726  93.2464027  60.5383730  76.6910887  92.5562286
  61.6404343  77.3016691  93.3950615 115.1986980  26.9938350  86.4192963
 115.4466057  27.4962330  87.1954155 115.4131317  26.0878968  86.6418362
  66.9933033  30.8015943  88.5334110  66.3045502  31.2623382  88.0542755
  67.5015688  31.4973497  88.9503288  42.2750175  19.8820358  16.1095828
  41.5105427  19.7560554  16.6716689  42.1313083  20.7337862  15.6971473
  46.6137314  89.5106983  86.9590282  45.7699108  89.7145557  87.3623180
  46.3959265  89.2612267  86.0609436  97.4104118  25.8224845  84.0178490
  97.8270912  25.5996513  84.8502922  96.6126442  25.2938080  84.0002441
  93.1906128  83.8809586  79.9290085  93.9770699  83.6125374  80.4040527
  93.4752560  84.6216869  79.3937206 101.6697563 106.4118915   3.6579627
 101.0430683 106.6412263   4.3441886 102.5236334 106.4587979   4.0880031
   9.1423391 107.5677447  11.0216063   9.1441225 107.0334773  10.2273864
   9.7894739 108.2521777  10.8513087  22.9119848 107.5413852  57.0831889
  23.1638407 108.1707578  56.4073962  23.3705591 107.8377728  57.8693789
  23.5753095  19.2409282  29.5161361  23.7283457  18.3460956  29.8195857
  22.6732576  19.2342954  29.1959876  94.5412827  42.1383190  88.0046463
  94.3697548  41.2812614  87.6144314  95.0834084  41.9486856  88.7703896
 109.7003521  97.5103955  22.9175204 110.3527321  97.6844935  22.2390479
 109.7385372  96.5630441  23.0490512 100.9230137  38.7328196  72.8716946
 100.4760647  37.9865122  73.2710648 101.5299797  38.3406186  72.2440052
 106.6536522  33.3342409  82.5534916 106.7651939  32.8302383  81.7474079
 106.5270138  32.6729488  83.2338524   5.3421091  81.2887363   0.8597392
   5.7559084  80.5184417   1.2491626   5.1386522  81.0236053  -0.0372201
   3.9935278  98.6833911   4.4096202   3.4087252  98.5917954   3.6573905
   4.1486525  97.7856021   4.7031230   1.6672097  43.1002188  71.2864304
   1.8087826  43.9383554  71.7265606   0.7237873  42.9519701  71.3512993
  17.5021719  97.6098494  54.0043181  18.4217238  97.3685412  54.1157454
  17.5254511  98.3980803  53.4617442  85.8953190  67.8908014  65.1879835
  85.5053139  67.2779894  64.5646095  86.3042164  68.5613251  64.6407795
  82.9096378 100.6628852  36.4629573  83.8384498 100.8144288  36.6378230
  82.8866352  99.8255639  35.9997195  50.1369261  81.5090351  15.3377646
  49.6072268  81.1065822  14.6495265  49.5033907  81.7685204  16.0067481
  15.2779827  50.6451130  86.2755108  16.1528645  50.3949165  86.5725231
  15.1769028  51.5518236  86.5651417  47.1374405  26.8338590  18.6951083
  46.9410503  26.3830858  17.8738517  46.9824112  27.7588087  18.5036582
  65.7054495  96.5705066  20.3312701  65.3356718  97.1866517  20.9636134
  66.5666079  96.3505702  20.6866092  94.5563698  85.8042812  83.0608654
  94.3614197  84.9066639  82.7915764  95.0454140  85.7083035  83.8780880
 101.7171110  86.5360241   4.6140594 101.7872299  87.4753194   4.7844714
 100.7776655  86.3794451   4.5183486  67.0119369   5.1889949  35.1527804
  66.9379604   4.4031435  34.6113032  66.8989361   4.8735576  36.0494155
  82.5310707  70.9087181  90.9900570  83.3391666  71.2722826  91.3520336
  82.4153137  71.3651562  90.1566887  39.9908054   8.1552034  16.8995780
  39.9548376   7.4145561  16.2942809  39.7680176   7.7794843  17.7513045
  27.6111006  75.5001740   8.2642383  28.4329199  75.9027915   7.9836387
  26.9944834  75.6981187   7.5593680  29.2747057  16.2074810  16.4835376
  28.9101875  15.7820182  17.2596473  29.3229997  15.5108076  15.8289069
  52.2560585   1.5133005   3.8142508  52.0739448   0.6550365   4.1969413
  52.6694477   2.0081478   4.5216865  65.8940780   7.3248583  15.0165576
  65.3115547   7.9836183  15.3946322  65.3051842   6.6919094  14.6056861
   4.3053030  91.3798146  24.1889686   4.3755125  91.4405017  25.1416511
   5.1212668  90.9611468  23.9148444  14.8309301  76.8998461  23.8610000
  14.9186586  77.5821214  24.5266074  15.0809549  77.3296266  23.0430621
  86.9921303  91.7428684  90.9000874  86.2871933  91.8851376  91.5317917
  87.7954483  91.8530846  91.4087772  72.2217512  27.9982090  93.6889744
  72.5511551  28.1581950  94.5733547  71.2708235  27.9588509  93.7910557
  99.1111374   8.7132573  82.8958416  98.5941219   7.9129237  82.9874420
  99.1361809   8.8756043  81.9528484  28.8077343  22.7279669   3.4939593
  28.9562166  23.5147672   2.9694289  29.4043625  22.0773082   3.1239337
 104.1604614  50.0390196  65.2857876 104.3639565  50.8726835  64.8617268
 103.8571167  49.4758511  64.5737076 115.8454241  80.4349689   6.8023032
 116.2417663  81.2769060   7.0265502 115.4710163  80.1198201   7.6249427
  16.7314505  89.2593698  10.9589976  17.4253153  89.6522884  11.4885158
  17.1837877  88.6223226  10.4060191  30.2453875  57.8426411  10.5660838
  31.1405825  58.1248738  10.3784198  30.2725958  56.8893697  10.4838294
  26.3359986  61.5106201  87.0011044  26.4451275  60.5711460  86.8537426
  26.1382447  61.5852356  87.9346848  91.5877056  60.8186245  81.1290646
  90.9306240  61.1530304  81.7395210  91.8478203  59.9738026  81.4962864
  91.6887474  55.7948828  91.6859531  92.6160240  55.8661938  91.9124508
  91.3557529  56.6896057  91.7553329  94.8517799  48.5214806  81.7268944
  95.0642967  47.7068472  82.1823502  95.7021904  48.9010143  81.5055752
  64.4196796  41.1262608  87.1800804  64.1238117  41.9748640  86.8505764
  65.2834606  41.0042763  86.7860794 106.5877355  62.9505073  25.3009814
 106.1639751  62.9245155  26.1588782 107.3827470  63.4645991  25.4420108
  98.0259609  45.1503658  84.5773315  97.8559113  44.6006536  85.3422642
  98.9786243  45.2405119  84.5541763   4.8763441 101.4894586  15.4630584
   4.1720556 101.3763194  14.8247737   4.4550966 101.9104629  16.2124175
  31.6738355  14.4045692   5.3770560  31.0273683  14.7510009   5.9921092
  31.1774862  14.2399507   4.5753211  80.4244900  65.7005262  93.1759834
  81.1524582  66.1837435  93.5668659  80.8236217  65.2009487  92.4637032
  77.7212381  72.8267384  87.6975060  78.4779930  72.9998970  88.2574749
  77.5553799  71.8898249  87.8019524  18.6837362  98.1390386  19.9336261
  18.4625601  98.5555272  19.1006488  19.2926954  97.4393516  19.6973151
  11.3410639 105.8932166   4.1932124  11.5353750 105.7351689   3.2693690
  10.8894610 105.1002126   4.4820518  72.4272907   1.7678457   1.5208167
  72.9276359   1.8984276   2.3263186  71.5120399   1.8163496   1.7968482
  29.8123621  68.3216207   1.9891662  30.3696322  69.0963690   2.0629519
  30.1191305  67.7388887   2.6838225  68.3273315  18.0738318  88.0506897
  69.2126751  17.7707565  87.8493214  67.9006386  18.1507957  87.1973133
  80.6519890  79.5821762  85.3870296  81.1352825  79.7622442  84.5806503
  80.7084560  78.6325502  85.4931164  76.5129805  65.4529190  91.5612030
  76.8965578  65.9327078  90.8270931  75.6028032  65.7477760  91.5906334
  63.4104431  17.5016266   1.6894454  63.2010639  17.0079094   0.8965796
  63.5262382  16.8328958   2.3644465  95.4301929  68.0987120  87.3408985
  96.3338280  68.3744907  87.1872234  95.3199291  67.3225927  86.7916107
   9.8695540  75.2765422   4.4720477   9.9655222  76.2289195   4.4714183
   9.1276907  75.1109557   5.0538177  64.3279827   0.9480053   4.0369243
  64.7393024   1.8093162   4.1089648  64.6420372   0.6017070   3.2016582
  89.2786121  84.7038078  69.5606327  90.1796913  84.4238567  69.3996620
  88.8154984  83.8988209  69.7924614  99.1194820  94.0228271  80.0595093
  98.5245800  93.2882309  79.9089289  99.6159267  94.0998936  79.2447519
  96.4949989  71.6915464  86.8682861  96.1908436  71.0364199  87.4963951
  97.3965263  71.8757772  87.1319866  31.7009901  94.0976672  26.5149421
  32.0903181  94.9471908  26.7222327  31.1675715  94.2619996  25.7373256
  10.7080912 104.5096641  43.2209128   9.9157309 104.0598540  42.9275435
  11.1699270 104.7328858  42.4127597  99.9856472  42.6070738  90.3285122
 100.3426838  42.9413891  89.5057201  99.9326134  41.6601086  90.1993656
 115.9968246 103.6859612  31.6130084 116.1595644 104.6291070  31.6278380
 116.8569721 103.2921605  31.7589396  36.8068636  19.3205124  14.0851897
  37.5356567  18.7279468  13.9009112  36.9349659  19.5813232  14.9972266
  13.6423754 102.8843455  23.6994380  13.3764719 102.0653205  23.2814330
  13.5797953 102.7057080  24.6377295   0.1804123  47.2722483  80.9945297
   1.0529862  47.6584816  81.0698032  -0.3779926  47.9956865  80.7098389
 103.7831306  73.5702324  84.9343872 104.7256374  73.6742687  84.8036385
 103.4617424  74.4601536  85.0792122  83.9845943  14.0790617  81.5678596
  83.5713959  13.5354722  80.8970356  83.4396935  14.8649848  81.6084003
  92.5104618  61.7166662  76.2765217  92.3352814  62.4372768  76.8817186
  91.6624069  61.2874746  76.1632729  79.3333244  74.3022490  85.5124569
  78.7235785  73.5784626  85.3690338  79.6424532  74.5322180  84.6362305
  64.1525829  23.4769445   9.2952460  64.2984474  23.1515270  10.1835364
  63.7540901  22.7398210   8.8325614 106.2323570  62.1931791  81.8856049
 105.4190540  62.4713659  81.4644337 106.4463329  61.3597536  81.4662552
  58.6926830  22.3808962   7.0061416  59.0904033  21.6972118   7.5452346
  59.4348419  22.8223615   6.5931910  84.0084267  61.5256882  90.1726818
  84.1555691  61.0882044  89.3341160  83.0558777  61.5705204  90.2555466
  32.6678919  93.3232789  13.8016242  32.1250032  93.8955836  13.2594317
  33.1941771  92.8275971  13.1742972  78.7233305  71.2572098  63.4791565
  78.1913996  71.7879248  64.0721369  79.6157217  71.5801144  63.6040497
  90.7096004  53.6031246  75.5023098  91.4960098  54.1023588  75.7226896
  90.9872341  53.0175304  74.7978735  46.5411651   1.4004331  12.6102561
  47.4593151   1.6700988  12.6328105  46.0593117   2.2063738  12.4244994
  16.5078901  95.3025298   2.5574035  16.5198492  96.1908011   2.2009486
  15.9615969  94.8069553   1.9473189  81.6060543  40.4464054  92.4883461
  81.8080235  39.9985838  91.6668224  80.8018112  40.0291872  92.7971268
 109.3056393  84.5549679  87.0076084 108.6703396  84.0857410  87.5483894
 109.0194607  84.3946648  86.1083698  67.5496948  14.8936754   1.8862170
  66.6947639  14.5586258   1.6159076  68.0894935  14.1110235   1.9971866
  80.2018356  84.2518425  76.2593174  79.4684172  84.5695400  76.7860079
  79.8807240  84.2829418  75.3581238  76.3906850  97.2987370  31.7338294
  76.5727771  97.6608090  30.8666629  76.6442002  97.9934792  32.3415202
  82.3686123  72.5732946  88.9436054  82.8735256  72.3610783  88.1585884
  82.5955200  73.4831715  89.1356277 109.1802372 108.3115582  24.7637481
 109.5134271 109.2053609  24.8433131 109.7827161 107.7838092  25.2878970
  48.2761848  16.8525892   8.5937613  49.2324341  16.8168169   8.6167830
  48.0681026  17.1239906   7.6997394  58.6154068   4.2455202   4.2424029
  58.8608444   4.3977028   5.1550025  57.7997482   4.7334867   4.1291732
  52.4328411  13.3118683  11.6490287  51.7905605  12.6292377  11.8432445
  53.2798851  12.8975778  11.8136901  66.0145426  59.1791439  66.7859936
  65.8828974  60.0091934  67.2441578  65.1497126  58.9556837  66.4419508
  48.4161556  22.7986818  35.5762404  48.0783928  22.8071886  36.4718265
  47.9420936  23.5033851  35.1347751 101.6696835  73.2839108  87.0651627
 102.4126720  73.2651043  86.4619541 100.8998966  73.2312822  86.4986897
  51.5781582  11.4407306   6.7376536  52.3962868  11.3892513   7.2318667
  51.7282188  12.1366888   6.0978431  39.8039758  45.6964784   9.6041316
  40.3629196  46.4634805   9.4795913  39.3815363  45.5675321   8.7549228
 113.0115604  68.7933445  93.8656807 113.0805492  67.8973103  93.5361385
 113.8983727  69.1454887  93.7895298  17.2235655  97.3823934   6.4415950
  17.7092623  97.3689656   5.6168765  17.2285341  98.3018975   6.7075366
  55.2284706  20.8472210  35.9655398  54.6391952  21.4729505  36.3867873
  55.9902179  20.8088451  36.5438956  56.4944732   5.2127510  22.0797366
  55.7926548   4.5935064  22.2802848  56.7549408   5.5635935  22.9313868
  32.5712656 109.1942124   4.8728675  32.1179651 108.3837800   5.1051253
  32.1190332 109.5053105   4.0886897 100.0660419  54.1867161  40.5679131
 100.6384373  54.4623613  41.2838840  99.7939777  55.0040340  40.1505470
  55.2342749  73.1117392  79.2597294  55.1981544  73.5043859  80.1319408
  54.8828316  72.2294855  79.3794918  86.7270279  64.3294573  62.8370285
  86.2703514  63.4907675  62.9023886  86.0981655  64.9709892  63.1674910
  98.7523746  66.5916348  83.8514137  98.3045864  67.4234295  84.0057850
  98.7700558  66.5023613  82.8985500  82.5468540  64.3794441  80.3239059
  82.3467445  63.8473415  81.0940075  82.8291035  63.7473631  79.6628094
  78.0379856  23.0563932  28.3944530  78.6291492  23.7402635  28.7092132
  78.5678852  22.5442224  27.7836246  35.2779520  27.8905683  41.3988608
  34.9704397  27.1846109  41.9674415  34.5154608  28.4586054  41.2885398
  75.1544714  71.8134451  72.5500870  75.6270885  71.5526342  71.7596149
  75.5669546  72.6354122  72.8155327  54.8590648  23.9973264  19.7355670
  55.7287014  24.3281036  19.5107478  54.5377720  23.5991054  18.9266128
 105.7704735  95.4479408  89.8114300 105.1563072  95.7781887  89.1557121
 105.3884220  95.7077312  90.6497478  76.7673767  10.7080417  15.0402945
  77.5252331  10.7762390  14.4595736  76.8830002   9.8696714  15.4875106
  30.0212896  22.1950823  27.0132750  29.5180071  22.2840696  26.2039489
  30.6389606  21.4860302  26.8344897  19.3709791  32.1337610  19.3693847
  18.6894071  32.7996927  19.2786521  19.0387905  31.3825327  18.8779181
  79.8169886 102.9806840  85.2152824  80.6870829 103.3702093  85.3015709
  79.4592081 102.9946642  86.1030006   2.4255333  55.1250744  92.5247669
   2.7666436  54.2312670  92.4934483   2.8324852  55.5630779  91.7772579
  84.3402183   8.7192636  12.2831649  84.3768490   9.3550258  11.5685386
  84.5960129   7.8899770  11.8793220  28.4543299 103.2405000  23.3078689
  28.4773230 102.7572589  22.4819297  27.5700640 103.6048226  23.3476657
  12.5883555  99.3475585   5.7571811  13.2569002  99.7123723   5.1773662
  12.8446745  98.4325414   5.8724040  44.6669090  23.0761200   4.2324847
  43.8129795  22.6574665   4.1239661  44.5645798  23.9374071   3.8275832
  32.3580158  30.4327970   4.3361777  31.8420780  29.6454626   4.5097941
  32.5632274  30.3836351   3.4025306  13.1734060 107.9476027   1.5774745
  13.0828642 107.9963498   0.6258124  13.4640097 107.0510631   1.7448062
 109.2745972  67.8655767  58.2745934 110.1160526  67.4979353  58.5448217
 109.4164658  68.8122034  58.2723045  80.0823689  63.9104271  87.3363209
  80.0872517  64.7733831  86.9221783  79.2053938  63.8296938  87.7113247
  28.5049986  91.2166457  12.8617305  28.9948153  90.7130294  13.5118693
  28.1928991  90.5619411  12.2370833  79.6815205  81.7145538  63.1520128
  80.2204990  81.1708927  63.7266207  78.7995291  81.3527012  63.2379770
  94.5980156  33.4840494   6.4635581  95.1269710  33.4851843   7.2613257
  94.8636997  34.2776018   5.9988898  33.7209200   7.0015479  76.4929438
  33.9221357   7.5381709  75.7262707  34.2090582   6.1902762  76.3522530
  32.8855360  18.1677347  33.4932822  32.5206602  17.5353199  34.1122645
  33.7164200  17.7807909  33.2173461  59.0018642  16.4195734   6.7541331
  59.7453010  15.8657175   6.5158481  59.0883816  17.1907478   6.1937446
  98.6395168  69.5259476  59.8564005  98.3680153  68.7130499  59.4301081
  98.9331722  70.0865078  59.1382313  70.2731216  12.3194462   8.7631721
  71.1273945  12.2471243   8.3374804  69.7368133  12.8119045   8.1418151
  89.1356863 100.1732402  20.6522960  89.4225277 100.6260495  21.4453429
  88.2171692 100.4234652  20.5525607 114.2166042  53.3139515  79.4095039
 114.6124458  54.1477823  79.1560030 113.2739162  53.4770298  79.3782759
 101.3035393  52.8999615  69.4628429 101.9378281  52.8924751  70.1796818
 100.7207775  53.6315489  69.6663141  53.3392286  58.5252857  91.3765717
  54.2956924  58.5513830  91.4035034  53.1229448  58.6241817  90.4493809
 115.9961224  66.9620323  86.4789391 116.6723156  67.1226215  85.8207607
 115.2219200  67.4128485  86.1418724  45.7495868  32.0855718  14.3952483
  45.6617916  33.0074125  14.6376246  45.0277031  31.6491800  14.8476619
  92.7585125  51.7656946  93.4573269  93.4796619  51.5626192  94.0530968
  93.0348873  51.4047956  92.6149559  43.0430305  32.5940805  20.7295436
  43.8790977  32.1407610  20.8378238  42.4729049  31.9485479  20.3118438
  45.3905094  10.8294588   2.7225322  45.6661976  10.0015407   2.3291129
  46.0523212  11.4608246   2.4403686  80.5796337  74.7027111  80.6515598
  80.3606987  75.1964569  81.4418125  80.4049015  73.7904930  80.8829784
  70.4853142   2.1052557  15.2096671  70.0901211   2.9373079  14.9493999
  70.9783352   2.3122364  16.0036010  63.6625755  16.8891817   9.1658992
  62.8699768  17.2547823   8.7730140  63.8474071  16.1059099   8.6476726
  12.3644123  73.5415077  59.2710400  12.8821335  73.9356375  58.5690022
  11.8360958  72.8740644  58.8332844 113.4470367  63.5454798  94.6527290
 112.6846409  63.1294918  94.2503071 114.1034126  63.5672903  93.9563751
  87.7698421  68.2787275  80.4754639  88.3235168  69.0394497  80.6514835
  87.4175930  68.4364128  79.5995140  64.0420330  24.1470533   2.7706164
  64.7123516  23.8932138   2.1362132  63.4682834  24.7419315   2.2877425
  87.6490116  27.8144717  62.4566126  88.1728840  27.0751667  62.1480322
  86.7579460  27.6121950  62.1714449  55.0832260  13.9838844  21.4973754
  55.9755314  14.3296819  21.4762038  55.1261413  13.1785970  20.9817142
 103.7185669  29.2002106  86.3542747 104.1120911  29.7808218  85.7029247
 103.4565735  28.4252858  85.8571911  16.7028272  15.7247978  38.6931819
  17.1282614  16.5234810  38.3811873  17.3907221  15.2558428  39.1655368
  97.8555202  47.7980471  81.9365692  97.2813129  47.0646906  82.1572590
  98.2090950  47.5747108  81.0755539  57.0358419  77.2401857  84.9076366
  57.9865551  77.3513842  84.9032974  56.8712854  76.6127777  85.6115627
  68.9609098  80.8631897  92.9483604  68.0257654  80.8616829  92.7440834
  69.3077946  81.6207027  92.4771023  91.6754532  58.6861181  74.6452618
  92.4706268  59.1808844  74.4474220  91.8947315  57.7813435  74.4227171
  60.8536720  65.6643248  89.6197987  59.9500704  65.7706976  89.3224525
  61.3377142  66.3548517  89.1669083  90.8901501  72.2837067  85.2533722
  90.0023460  72.4544382  85.5678177  90.7699203  71.7114258  84.4955635
  79.0887308  85.9889317  88.3292770  79.3656015  85.0979137  88.5429478
  78.1328487  85.9438801  88.3070278 104.7449398  24.4829440  67.2269630
 104.8123169  23.5503554  67.4318314 103.9155579  24.7551370  67.6197338
  79.6175277   7.1247726  26.3211745  80.3537357   6.6162735  26.6612452
  80.0111854   7.7171760  25.6806106  82.1623516  58.2548237  89.5728779
  81.3860226  58.7605762  89.3325329  82.2879124  57.6476860  88.8436031
  71.5428734  41.8631411  88.9274502  71.8093157  42.7221489  88.5998154
  71.1129332  41.4450550  88.1814003  80.5053329  72.5042391  69.7439337
  79.8608923  72.6598501  70.4343796  81.3305664  72.3747587  70.2113152
  12.8611921  15.4406596  76.2241220  13.1341433  16.3533450  76.1306572
  11.9820665  15.4137088  75.8464575  54.9487484   2.1295028  55.0848121
  55.3086174   1.2467867  55.1716346  54.8984802   2.2758251  54.1401977
  21.7466793  46.2671471  50.0603151  21.6964302  45.5417299  50.6827879
  22.2122155  45.9043121  49.3067503  29.9853933  33.5940080  28.1856078
  29.0490186  33.5153108  28.3679313  30.3682649  32.7960115  28.5500926
  75.3197718  98.4326649  84.6993637  75.7987022  99.2039299  85.0026894
  74.8096371  98.7459373  83.9524651   4.6898245 108.1699758  15.0466365
   4.1552710 108.6923890  15.6445998   4.0788054 107.8823619  14.3682784
  82.3743248  68.4616137  73.2937956  83.0064487  69.1765833  73.2198715
  81.7342854  68.6354637  72.6036072  49.8954475  24.4433742  23.9005298
  49.6738708  23.7268787  24.4953174  50.3782547  24.0231949  23.1887835
  29.8844564  52.2859579  23.5333747  29.9244058  51.6766840  24.2705459
  29.8765791  53.1528097  23.9392585  23.0458998  88.9481811  43.0467910
  22.4473929  89.3510871  42.4177569  23.1792521  88.0600815  42.7155322
  57.3419571  80.9194469  90.1748180  58.0783510  80.8630657  90.7837296
  57.4531364  80.1666546  89.5941448  44.0604770  25.6522470   3.8648337
  43.3155430  26.2519937   3.8247222  44.3100918  25.6418138   4.7888488
  80.1402760  81.1652756  70.3129911  80.3939056  81.7322159  69.5846415
  80.0880432  80.2902603  69.9284744  10.0972424  81.4284515  75.0396252
  10.8071003  80.9187984  74.6490002  10.5365811  82.1668243  75.4615450
  77.2700310  65.3485203  87.8114414  76.3284254  65.3895998  87.9785347
  77.6649857  65.8090258  88.5518360 103.2989944 108.0272775  31.7745036
 102.9566063 107.3265986  32.3295325 103.8288130 108.5631232  32.3647517
  66.5121353  16.7335230  42.2613353  66.8190944  15.9304004  42.6820487
  66.0347355  17.1969944  42.9494590  73.5224712  14.4586473  13.4614486
  73.6035908  14.9744039  14.2637271  73.6055267  13.5501819  13.7513083
   6.8053316 100.0000005  16.6416472   6.7571997 100.4611306  17.4790687
   6.3068747 100.5493836  16.0367125  25.9548319   5.0827366  15.7342071
  26.4459455   5.2595764  16.5365619  26.2170065   4.1970163  15.4832095
  92.3720741  72.6875925  52.0168781  92.7796936  71.9964314  52.5387716
  91.4371395  72.4833488  52.0373249  16.1334204  96.8045764  19.4900435
  17.0066332  96.8395286  19.8805541  16.2941336  96.7623239  18.5473842
   2.6036810 107.7392917   8.9514274   3.0975889 108.0026202   8.1749267
   3.2346987 107.7999740   9.6686191  28.7040079  16.0591894  32.5699538
  29.6390093  15.8542400  32.5718230  28.6535490  16.9443088  32.2090548
  10.2883314   6.2801314  88.8378048  10.1557516   7.1350241  89.2474556
   9.8921274   6.3660289  87.9706955  42.6545799  18.9302641   9.3164462
  42.4060810  19.5942217   8.6732978  42.3306835  19.2712932  10.1501292
  52.9909313  35.2433878   6.3801497  53.0375660  35.8679109   5.6562537
  52.9921711  34.3850713   5.9564418 104.2953014  52.6974058  70.3339911
 104.3625259  53.6119127  70.6085634 105.0939465  52.5391245  69.8306608
  84.8880768  54.4829512  94.5284843  85.0279903  53.5625076  94.7508335
  85.7412624  54.7869062  94.2187881  45.7225216  13.4163767  15.7632560
  46.3474357  13.0009323  15.1690215  45.2969063  14.0888124  15.2313632
  22.3763346  98.1109529   1.7511481  22.8114103  98.9236932   2.0088214
  23.0493044  97.4374156   1.8495673  66.1333561  77.1743441  48.3324957
  66.0717869  77.3402691  49.2731905  66.2713861  76.2295961  48.2644510
  68.8171196  87.2065258  76.0830736  68.9719915  87.2054386  75.1384878
  68.6430454  86.2902260  76.2982988  75.6534624  94.1011715  62.0620489
  74.8419762  94.6031284  62.1379185  76.2559223  94.6875668  61.6044331
 103.4262657  70.8762598  84.4898415 103.6044025  71.7119980  84.9211597
 102.4850368  70.7440519  84.6031952 112.4466337  59.7759949  61.6495246
 112.0470632  60.6322442  61.8025416 112.4873365  59.6975740  60.6964129
  68.7150192  92.7605343  75.0759363  68.2448673  93.4618473  74.6249914
  68.1689358  92.5555611  75.8348894  44.9148834  30.5925852  20.4476565
  45.1002300  30.3821855  19.5324439  44.6070183  29.7686296  20.8252257
  38.6471247  95.2704530  43.2987327  38.8877462  94.7368531  44.0561027
  39.3002104  95.0512938  42.6341361 101.2842369  30.2034903  84.2742348
 102.0336342  30.6930423  83.9351654 100.7147694  30.0808597  83.5146904
  58.8802385  83.2971382  92.9518223  58.1370831  83.8995934  92.9834938
  59.6404457  83.8439274  93.1501865  80.6680000  44.8410898   1.2005729
  80.2046383  45.6703764   1.3181037  81.5209854  45.0915342   0.8457202
  55.4872870 106.4175038  12.8199786  55.1547979 105.5246787  12.7275390
  54.8125338 106.9668679  12.4210566  23.4820805  98.2462025  87.9433727
  22.5426922  98.4291553  87.9612637  23.6217652  97.6392555  88.6702347
   2.5070343  69.0991640  95.2003765   2.1339665  68.4870577  94.5660400
   2.1222649  69.9452496  94.9716568  29.5360458  59.9996858  26.4394111
  29.7225464  59.0697580  26.5685576  28.6471403  60.1146131  26.7753810
  64.6530998  27.8755861  31.6059894  65.0163639  27.0318418  31.8750018
  64.7921932  27.9053980  30.6594199  73.1683350  71.8428612  68.3814859
  73.9305639  72.4186611  68.4422541  73.1294870  71.5935802  67.4581337
  25.4782427  30.5363851  14.2335433  24.8810613  31.0558706  14.7718162
  24.9202287  30.1571375  13.5545558  39.7876394   6.1394602  24.1443843
  40.4309070   5.4814869  24.4080371  39.7729147   6.0904890  23.1885547
  89.0917110  92.0420742  76.7218065  89.9139214  92.4108887  76.3990259
  88.4936047  92.7883625  76.7612362  55.4520691  15.5141597  39.0443820
  55.5562580  15.1570087  39.9263305  56.3472259  15.6470829  38.7325114
  33.6888016   8.8895279  12.8570575  33.7538755   9.7887378  13.1786555
  34.4670809   8.4539514  13.2045955  79.2837763  66.2158155  85.8419609
  78.5203886  65.9405136  86.3495731  79.1395235  65.8440685  84.9717712
  53.4232223  29.1959196  10.4491538  52.9153145  29.6605402  11.1142749
  52.7724540  28.9067369   9.8095340  36.0142029   9.3993908  43.5631675
  35.9458006   8.4448915  43.5411185  35.1221311   9.6994882  43.7374610
  72.6982975  76.3042212  95.1910782  73.3563709  76.8939924  94.8231888
  72.2795773  75.9065199  94.4277096  78.5290611  15.8286625  18.5311145
  78.2976234  16.6058212  18.0224818  79.4783390  15.8870989  18.6392135
  77.4017525  84.1102791  72.2377634  77.0828438  83.2799053  71.8841982
  77.3940229  84.7077465  71.4899635  99.9428070  45.4748064   8.2889575
 100.6598652  45.7403188   8.8647670  99.1572750  45.5616098   8.8289947
  40.4546058  11.6527658   3.3039493  40.0740135  12.2785574   2.6876945
  41.3123214  11.4437395   2.9339904  24.7769916  22.8497749  12.3822326
  23.8630951  23.1222587  12.4645633  24.7723377  21.9218403  12.6170749
  16.2980436 102.8069882  23.4838695  16.6106390 102.1088176  22.9084796
  15.3536486 102.8385024  23.3310050  88.4477997  79.0047836  79.7411728
  87.9414940  78.4329653  79.1641855  87.7986050  79.3804598  80.3358555
  76.9862509  80.6972885  59.3347120  77.0186996  81.5789795  58.9634848
  76.5992308  80.8166790  60.2020073  88.8083076  72.6496792  80.0026608
  89.1572952  73.4880447  80.3052902  88.2019711  72.8824377  79.2995119
  44.4768608   8.1992346  20.4388064  44.5568645   7.7145248  19.6172923
  45.2054298   7.8849941  20.9742373  99.8209190  65.2564335  71.5741444
  99.8636532  65.0890017  72.5156212 100.5780602  64.7945166  71.2141275
  52.7990234  28.3827406  22.0120067  52.0083416  28.1509691  22.4991721
  52.4777019  28.6756330  21.1592406  51.5558040  27.4294954   8.0036181
  50.9760559  28.1453233   7.7433890  51.7551124  26.9734102   7.1860045
  28.2928824 100.7298236  38.3822555  28.8655256 101.4572434  38.1390017
  28.2256388 100.7863240  39.3354148 102.9487194 100.0183253  12.2213477
 102.0531620 100.3146653  12.3837966 103.3746399 100.0625663  13.0774230
  71.5806866  80.5378246  79.8510027  71.3219690  79.8974657  79.1882515
  71.9165277  80.0102043  80.5756092  83.4049499   5.3062397  37.5418967
  83.1936920   5.9751611  38.1931609  83.3111751   4.4771629  38.0110091
   5.4102028  42.7709299   4.7140902   4.8061502  43.3931547   4.3088836
   6.0880935  43.3184915   5.1101607  29.6919954   1.2544113  20.7474631
  28.8081062   0.9293466  20.9186477  30.2424038   0.7983070  21.3840598
  65.9658718  73.1468916  56.3389349  66.5440893  73.7351418  55.8532763
  65.5137873  72.6428986  55.6622934   5.3456663 102.4198108   3.9532203
   5.7261156 103.1941705   4.3677730   5.8652281 101.6890721   4.2883510
  76.0705328  62.9696894  68.6903000  75.8298445  62.5408649  69.5115232
  75.2632856  63.3902550  68.3941460 102.8076744  88.8796234  78.7605619
 102.5849152  89.8017120  78.6326838 103.2353783  88.8530159  79.6164799
 106.2204075  77.5912523  91.2756634 106.6815376  78.1539297  90.6535816
 106.0589886  76.7812347  90.7918739  36.7971456   4.0290075   7.5078601
  36.3585270   3.1783205   7.5211734  36.7970836   4.2841058   6.5852756
  32.3074711  11.3553959  10.8451957  31.6204202  11.3051372  10.1806087
  32.1786535  12.2089630  11.2587852  13.3587990  69.1425943  58.4995794
  14.0114842  69.7918034  58.7617826  13.1996212  68.6295128  59.2918158
  41.1767662  40.7409673  11.0919875  41.9633472  40.3281694  11.4485377
  40.6951082  41.0435301  11.8618506  43.4939850  22.8918415  11.5744037
  42.9916275  22.0977264  11.7567557  43.6531627  22.8632026  10.6309623
  13.1584893  57.7928448  76.7370129  13.3219014  58.6483908  76.3400555
  13.4617577  57.1633911  76.0827637  57.4533928   5.4806667   9.3605727
  58.3461178   5.7903248   9.5134849  57.3093212   4.8207431  10.0387877
  49.6001423  12.0749145  24.9675197  49.8106182  12.8484255  24.4444293
  49.7553528  12.3477989  25.8717746  47.0576847  33.3915525   1.2013263
  47.1992672  33.0388933   2.0798606  46.1648929  33.7361055   1.2225646
  96.5121759  95.8004956   2.6954097  96.6555275  96.2362676   3.5355205
  95.6474127  95.3986173   2.7785319   6.0697422  69.6672392  94.9604225
   6.6233406  69.1679192  95.5607891   5.8588944  69.0501308  94.2597389
  77.8316677  13.6569124  23.9441890  77.5230110  14.3688112  23.3836764
  77.7715385  14.0082460  24.8325461 111.9678497  66.3367414  73.0842400
 111.1363125  66.6928434  72.7712440 111.7800808  66.0359192  73.9733315
  67.0780838  29.6357923  14.6335525  67.9018295  30.1127439  14.5325965
  67.3428619  28.7248331  14.7611732  80.1429844  76.5714645  94.2780590
  79.7805643  77.0444632  95.0271606  81.0418797  76.8920994  94.2044449
 100.8931065  44.5449066  94.1172314 101.3707542  44.6175194  93.2909012
 101.3744736  45.1089811  94.7224903 113.3402443  50.0199509  90.9153080
 112.9942322  49.7210693  91.7562485 112.7385998  49.6560812  90.2657986
  46.8709743  32.5663953  29.0085620  46.1736191  33.1586652  29.2898864
  46.5306175  32.1562200  28.2134932 100.0116158 100.9484005  77.4485064
 100.8995056 101.0667229  77.7859640  99.4477558 101.3405609  78.1152248
  32.5380123  21.7542701  35.9242934  33.3976686  21.3667255  35.7598895
  32.0660150  21.6493087  35.0982017  47.6353252   7.7106529  25.1487559
  47.0558250   7.6052433  24.3942374  47.8779781   8.6365133  25.1368922
  28.8168705   5.4985052  35.1802463  29.1189707   5.1725965  34.3324584
  28.2662618   4.7953945  35.5247611  13.4472822   2.8491927  70.9391785
  13.5035299   3.6452819  70.4106808  14.2918848   2.4171019  70.8119869
 103.3731365 107.5434017  89.2541885 104.0481758 106.9632149  88.9021397
 103.7597084 108.4177303  89.2057037  72.6775348  49.5712476  16.4241237
  73.0774391  49.1517835  17.1859378  72.0970428  50.2363496  16.7941302
 102.7456188  86.6293621  58.4767723 103.3175373  85.9286690  58.1634665
 101.8693256  86.3676643  58.1941795  87.1564472  14.8820644  28.0746097
  87.0806396  13.9329677  27.9761142  86.4873016  15.1100975  28.7199515
  56.9025791  54.4526106   7.3353690  56.0563648  54.8899465   7.2411174
  57.2569645  54.4225889   6.4466876  33.5217226  33.4602361  26.5225333
  33.0014551  32.6653677  26.6397685  33.9304245  33.6069685  27.3755568
 111.4283371  77.4926186  80.7382870 110.6720734  77.4411058  81.3227940
 111.3573360  76.7143297  80.1856041  91.6972816  60.1092725   5.7864589
  92.3776901  60.1264005   5.1134128  91.7626369  59.2351156   6.1709231
  11.1305008  75.1014185  62.9382086  10.7557259  75.5176640  63.7144279
  10.7504998  75.5810833  62.2021675  60.9010113  48.8951498  14.0905589
  61.7942703  49.0390688  14.4029922  60.3569401  49.4356638  14.6633262
  56.0512054  22.3871284  14.6394557  56.9973648  22.2778850  14.7347564
  55.7129181  21.4944654  14.5691794  92.7575577  44.6210867   8.4799308
  92.7617252  45.3642278   9.0832156  92.0292175  44.7996050   7.8850478
  21.9119511  75.1039839  81.5635109  21.8313084  75.5023813  82.4301147
  21.6538296  75.7973528  80.9561825 100.1942348 107.3895931  75.7588148
 100.5904579 107.6340771  74.9224710  99.7336578 106.5707779  75.5753803
  98.5866642  99.3693256  91.4712048  97.6514244  99.1739178  91.4132118
  98.6679745  99.9229908  92.2477818  53.1085014  93.7232971  75.5569553
  53.4028769  93.8451767  76.4595747  52.8670263  92.7984333  75.5065966
  73.8952434  27.7630239  10.8853263  73.2208431  28.1790643  11.4222831
  73.5415828  26.8962198  10.6857795  27.9164875  17.8532701  42.9020804
  27.5864160  16.9805961  42.6882476  27.1571291  18.3165794  43.2555694
  37.9260420   3.9333678  93.1029415  37.1208357   4.2008925  93.5459900
  37.9247355   4.4288207  92.2839451  67.1024215  56.3628011  17.7223224
  66.6744221  56.6182237  16.9051284  67.3087108  55.4354864  17.6049918
  21.2225139  29.1025358  14.0088672  21.1841095  28.5097986  14.7594756
  20.3066957  29.2482000  13.7716025  59.2307842   2.2516685  38.1652564
  59.5058525   2.6654630  37.3471183  58.4684074   2.7581840  38.4453505
  30.4135406  18.5054260  42.1673888  30.2833545  18.5163217  41.2191504
  29.5333469  18.4011894  42.5288123  40.6151175 107.8358178  29.3174762
  40.5056643 107.8898530  30.2668685  40.6030058 108.7464385  29.0227717
  99.1101742  73.2010221  90.5028629  99.0772724  72.4436808  91.0873127
  98.7933064  73.9295483  91.0367966  20.0040996  37.3396021  21.6068381
  19.1630781  36.8841749  21.5680808  19.7797287  38.2653528  21.5126056
 110.2680206  54.3403196  82.1830559 111.1212730  53.9196014  82.0772171
 110.3277397  54.7950077  83.0232525  86.6805458  66.0111475  54.5941305
  86.5275955  66.3764429  55.4655600  87.4763393  66.4463520  54.2882872
  60.1681984  27.6598840  22.6327151  59.6302021  27.0687204  22.1060962
  60.1526058  28.4885126  22.1537894  13.6862049  84.2678642  73.5933065
  14.1505680  84.1178226  72.7698469  12.7794323  84.0264130  73.4043694
   3.9312611  54.2463636  83.8675117   4.1682968  53.4159470  83.4546471
   3.3731709  54.6830654  83.2240295  12.3666916  71.4101505  76.3765049
  11.8474732  71.0882092  77.1133900  12.4159298  70.6669044  75.7753515
  65.9211147  15.5590254   6.7099589  66.1666382  15.5545288   5.7847899
  65.8894527  16.4864164   6.9448489  52.2002971  26.7785650  12.7150935
  52.6036823  26.2318807  12.0408172  51.3042820  26.9159799  12.4076575
  66.1509407  42.0900255  41.6996020  66.8283642  42.7282339  41.9232482
  66.2173832  41.9931608  40.7496375  78.1262577  28.1995302   6.5536899
  77.2353733  28.0490595   6.8697661  78.0127704  28.5033041   5.6530971
 110.3835297  96.7050076  68.3979511 110.4052448  96.7253304  67.4412155
 110.9959793  96.0092163  68.6367035  90.5178833  62.4067879  83.4079552
  90.3529453  62.9599667  84.1715145  89.7396755  62.5149727  82.8612232
   4.5548115  75.9222555  58.7874985   5.2149353  75.2699232  59.0218449
   3.7227784  75.5230141  59.0415859  85.0927925  44.9205494  59.8966599
  84.5992088  45.7028723  60.1427889  84.4266033  44.3004942  59.6000767
  43.2761562  18.8511329  24.3289298  44.1642273  18.6056572  24.5883674
  42.7542866  18.7364441  25.1231116  58.4222400  42.4150568  34.5864696
  58.5557831  42.6528364  35.5039996  59.1429889  42.8400331  34.1215724
 101.3186073  45.2165699  70.1189232 102.1761417  45.5398750  69.8426294
 100.7008553  45.6314564  69.5168543  88.8387203  52.0275593  67.2837973
  88.9671898  52.9049587  67.6442194  88.1349087  52.1323156  66.6435575
  56.7041767  57.8368669   0.8278197  56.1228168  57.4356085   1.4737624
  57.4622715  58.1267553   1.3352603   9.1794644  68.2697392  89.0911198
   9.2062531  68.7403488  89.9242115   9.9357281  67.6838207  89.1225910
 114.8990917  81.4053249  90.9645462 114.2127419  81.9468784  90.5748272
 114.4779205  80.9896469  91.7169189   3.0761681  64.7584295  94.5244408
   2.7204476  64.4257832  93.7003994   3.8979397  65.1822329  94.2768383
  52.5188339  49.9000841   3.7708682  51.8068397  49.7523981   3.1483859
  52.9631317  49.0544325   3.8316268  53.2766807   2.1849828   6.0898894
  52.9111660   1.4959579   6.6447467  54.2232883   2.0493084   6.1317939
   8.5651932  79.5988512  71.3001442   8.6682377  79.0202284  70.5446243
   7.6472149  79.5012236  71.5531588   3.6724053  65.5189705  83.9719105
   4.0554390  66.1701632  84.5596695   3.3757363  64.8177862  84.5520496
  95.6987667  61.4190960  93.3196068  95.9757328  61.4261770  94.2358398
  94.7876263  61.1270475  93.3470726  47.7938736   3.4750992   1.1255950
  47.9238022   4.1822057   1.7575377  47.5052536   2.7312809   1.6544360
  56.7850960  32.8363901  12.4132842  56.5479553  32.2066503  11.7325229
  57.3249328  32.3358350  13.0250472  72.9707229  29.4026952  29.7823638
  72.4825943  28.5831552  29.8618716  73.0844963  29.5232206  28.8396281
 108.2815933  78.2994699  89.3780708 108.5434532  77.5139189  88.8978863
 107.8921223  78.8677073  88.7135029  80.8754432  27.4842840   6.6119403
  81.1624801  27.0317655   7.4050826  79.9709785  27.7384287   6.7952079
  38.1941198   8.4401465  78.2340622  38.2355093   9.2752505  77.7681065
  38.9776110   8.4335852  78.7839127  59.1715038  23.0121427  25.2491492
  59.6537769  22.2290044  24.9839419  58.9476002  22.8563076  26.1666507
  58.8478554  11.8862253  21.7221469  59.2200554  11.3768202  22.4420089
  58.4488571  12.6454120  22.1471995  90.0471497  80.7533360  73.1417561
  90.4536915  79.9047327  73.3173275  90.3436184  81.3138771  73.8587856
  86.3541412  75.0200844  64.7296906  85.5081081  75.4103088  64.9491978
  86.8834400  75.1362848  65.5187225  45.4897106   3.0359893   7.5179595
  46.0003078   3.6942106   7.0465106  44.8902595   3.5441404   8.0644626
  24.4327711 107.0641570  25.9865111  25.2483152 107.4465804  25.6626910
  24.7135996 106.3464265  26.5541572  90.7039261  82.4588680  81.6738510
  91.2789536  81.7993832  82.0619869  90.3725338  82.0477009  80.8755112
  58.3639133  19.0277725   5.3477591  59.2469108  19.3360906   5.1440734
  57.7945125  19.5295339   4.7644538  56.2214363  14.0927272   9.7723884
  57.1753967  14.0713459   9.8482055  55.9359157  13.2400947  10.1006049
  91.3559246  63.9555359  64.1457701  90.8026791  63.1744194  64.1431236
  91.6303062  64.0577888  63.2344532  68.6726940   6.2812954  45.8279342
  68.0562580   6.3529163  46.5567130  69.3617714   5.7019525  46.1531562
   8.0580960  79.5446777  86.4959908   8.0551300  78.9520645  85.7443047
   7.8352318  80.3996658  86.1278057  14.8488605  42.1895986  12.4715823
  14.3780840  42.3222166  11.6487712  15.7682741  42.1238046  12.2135562
  61.2055862  33.7364870   3.9190215  61.5104568  33.5804468   4.8128528
  60.4450023  34.3084818   4.0218085  87.1345222   7.8761392   6.9505710
  86.6778553   7.3080831   6.3300914  87.6798046   8.4402805   6.4022559
  10.1377939   4.1288615  85.3774643  10.8929705   4.2299224  85.9568787
  10.3255438   4.7051097  84.6365833  91.5268421  61.4855337  61.8567610
  92.3063374  60.9362841  61.9400406  91.5997410  61.8742323  60.9850740
  78.6203003  65.4605484  78.0682945  78.8754129  65.2580070  77.1682262
  78.2051277  66.3211632  78.0116653 113.6535740  75.6796646  53.5503435
 113.9042664  76.5720415  53.3115053 113.1717110  75.3545809  52.7898455
 109.4686604  96.6300583  71.5002680 110.0997353  96.0200977  71.8822622
 109.4764233  96.4280128  70.5646658  42.3542297   8.2819896   8.6064357
  41.6836441   8.2189899   9.2865676  42.0413959   8.9751249   8.0251140
 105.2811909  76.1417723  65.7259178 105.9771538  76.1947298  66.3809538
 104.7808456  75.3632593  65.9704733   3.7746678   9.6467972  90.7001019
   4.1986809  10.4962695  90.8219337   4.4454632   9.0076262  90.9403610
  92.9211617  96.6487217  75.3480196  92.0792866  97.0777321  75.5010509
  93.4969044  97.0022774  76.0260773 105.7808876  83.6342239  74.6952534
 104.9612904  84.1282940  74.6754932 106.4150715  84.2377186  75.0823498
  29.4440232  91.9824219  63.2940578  29.0343724  91.2628078  62.8138828
  30.3436909  92.0063686  62.9680777  70.1798248  87.4237633  85.9360790
  69.6325016  87.0725346  86.6384411  70.2529383  88.3575058  86.1335850
  64.5709276  70.1621866  82.9085636  64.9707937  69.5177174  82.3246098
  63.7769079  70.4394197  82.4514961  42.4489200  53.5946184   6.2320346
  41.8922985  53.7015920   5.4607028  43.2565296  53.2085901   5.8929271
  25.2036915  22.1884084  68.4816885  25.0392495  21.5705323  69.1940260
  25.9931908  22.6585221  68.7498760   6.7805539  23.6861181  80.9639072
   6.4970074  23.5045290  81.8599224   6.0527001  23.3894801  80.4175854
 105.5105579  12.2784048  11.1277026 106.2682045  12.1491104  11.6982097
 105.1501262  13.1235748  11.3960475  33.9190233  21.6941124  25.9176082
  33.4661663  22.3295360  26.4720363  34.7918833  22.0659738  25.7908553
  90.3845871  43.6826616  19.7240275  91.3307369  43.6483389  19.8649615
  90.1257408  42.7679258  19.6122760  81.4706409  18.0567175  23.8133735
  82.2672165  17.5801950  23.5796470  80.7584465  17.4594789  23.5846442
  99.7420967  31.3325411   8.1510562 100.2056396  31.4963251   7.3297614
  99.0419185  31.9850641   8.1651515  54.6507633  30.9646230  32.6571387
  55.4727543  31.0091310  32.1686954  54.9188030  30.8174425  33.5641784
 113.4586430  44.4551754  48.9711142 114.0131760  44.8806810  49.6250772
 112.6329422  44.9380684  49.0065050  96.8263626  46.0095644  72.1012926
  97.5237942  46.4777422  72.5602531  96.8045044  45.1467323  72.5151443
 112.6435947 106.6601753  81.4817333 112.4402523 107.5890827  81.3721657
 111.8828392 106.2043571  81.1215878  87.3589706  77.6378870  92.1774101
  87.2723007  76.9478464  91.5197086  87.6356697  78.4082747  91.6812515
  93.0957508  61.5277910  70.0421476  92.2790051  61.1436367  70.3608751
  93.7336445  61.3394833  70.7305241  31.5997849  76.5930796  92.3013210
  31.8716584  77.0026779  93.1226349  32.2105656  75.8656788  92.1827602
  74.7674549  37.4925047   1.6830844  75.6741607  37.7904993   1.6102141
  74.4143856  37.5809484   0.7977885  82.9956627  37.9303765  88.8026524
  83.5699558  37.2387004  89.1312885  83.5903072  38.6397648  88.5589314
 115.2642155  78.2865429  94.3759918 115.0564098  77.5485277  93.8029385
 116.2030697  78.4275818  94.2539692 111.4067268 106.7902851  84.9170017
 111.2379646 105.8505440  84.8489380 112.3475361 106.8764400  84.7630501
  84.0815926  68.2150030  90.3820419  83.5613537  69.0000772  90.2110481
  84.4097710  68.3345509  91.2732410  21.9531403  90.8020592  53.2704926
  22.1145497  89.8585606  53.2714128  21.2806759  90.9293556  52.6012945
  33.1391989  58.8305616  93.1754589  32.2079455  58.6127614  93.2150364
  33.4890543  58.2625436  92.4890232  95.1889945 100.7499462  54.8064804
  95.9409619 101.0250007  55.3310013  94.9430431  99.8986297  55.1684237
  18.7809359 100.8642315  62.2540760  18.3882080 100.1190399  61.7994499
  19.0833842 101.4406400  61.5522861  21.6122174   4.3497556  73.0974722
  22.5490999   4.1659608  73.1660509  21.2152672   3.5008839  72.9023361
  40.0709378 106.7340493  88.3557129  40.5369650 107.5689825  88.3117485
  39.2136132 106.9177684  87.9716873 109.4863701   6.8372744  55.7280016
 110.0343513   6.6363263  56.4866638 109.9789429   7.5015330  55.2459621
   1.8647944  97.6458227  70.4668522   2.3195301  98.1331407  71.1538553
   0.9725581  97.9922675  70.4779768  85.2177108  31.9122200   3.7694568
  85.9606231  32.2683077   3.2821006  85.2060474  32.4108725   4.5864314
  25.3165423  87.3079109  80.6149101  24.5685231  87.5412082  80.0651169
  25.4675232  86.3803815  80.4329014  45.8582611  36.5209143   9.8446006
  45.6029249  37.1572463   9.1766757  45.1257421  35.9058921   9.8819369
   0.2231227  98.1924581  84.7243214   0.9622012  98.7674236  84.9228287
  -0.2317752  98.0898475  85.5602455  45.6178045   1.6800262  91.1448669
  44.7438622   1.4710234  91.4746857  46.1615896   0.9433381  91.4238262
  48.4200478  13.8564670  74.1114140  47.4737597  13.7128031  74.1227722
  48.5180426  14.8084223  74.1316748  69.3497838  30.6072454  12.8495902
  69.7294081  30.2449923  13.6501426  69.7557796  31.4695268  12.7608699
  83.6944199  19.1898239  56.3104343  82.9713154  19.3231118  56.9232798
  84.0186691  20.0715876  56.1271477  98.6597408  40.3884821   6.2691134
  97.9543413  40.5968337   6.8816775  98.2171072  40.2526181   5.4313487
  67.4730539   7.4014705  94.4435501  67.1480465   7.6878053  93.5899639
  66.6958237   7.0792735  94.8999882  98.4292186  63.8740747  16.2664432
  97.5503935  63.4947519  16.2623424  99.0138353  63.1252902  16.1490554
  33.6958647   5.7993585  59.3548775  34.4135857   5.9599423  59.9675131
  33.9684319   6.2347925  58.5472012 109.9395562 106.0686552  90.8400917
 109.1902853 106.6170903  91.0725594 109.8055149 105.2588045  91.3324451
  55.9355818 109.3986253  92.0434952  55.0545203 109.0675999  92.2178173
  55.9979521 109.4223434  91.0886192  57.9636765   8.4771860  89.1774464
  58.1587505   9.3956161  89.3636322  58.7439156   8.0034322  89.4655704
  11.2384449  96.2353122  59.6816778  12.1734845  96.4375328  59.7139406
  10.9262453  96.4033043  60.5708027  64.6116972   8.4125638  51.0866833
  63.8794279   8.5381508  51.6902065  64.8857689   7.5063801  51.2279177
  71.9019938   6.7134309  87.9095745  70.9607267   6.8810737  87.9559517
  72.0675087   6.5310830  86.9845963  44.1921806  22.9645777  58.9861822
  44.3558741  23.8687205  59.2544365  44.8688555  22.7819157  58.3342791
  59.3242264  28.8023973  81.8052959  59.4930029  28.3069897  81.0038471
  60.1525688  28.7728500  82.2840595 108.1683983  30.5121808  17.6243037
 107.3514522  30.8663850  17.2730655 108.8443388  31.1130600  17.3108024
  52.5696039  32.7276325  73.6594296  52.0156336  33.0710649  74.3604326
  53.0459356  32.0026112  74.0640068  51.6460085   6.9403827  83.4565258
  51.2496901   6.2092364  82.9826164  50.9865808   7.1923757  84.1029739
  77.8501987  15.2711368  64.2182827  77.8581572  16.2283027  64.2186975
  76.9323587  15.0393128  64.0766430  82.8527069  14.8443818  64.4760227
  83.2598400  15.7085824  64.5363092  82.6925182  14.5911396  65.3851080
  21.1110960  88.1835245  50.5028820  20.6545721  88.5367321  49.7392988
  21.2859570  87.2701668  50.2760935  22.1098172 101.0735910  81.8203640
  22.2281157 101.4913117  80.9672832  22.1244417 101.7980074  82.4458504
  65.5514860  17.5006652  84.5810032  65.5629539  17.5242960  83.6241627
  66.3321829  16.9998944  84.8175907  57.6825809  21.3352394  67.8916359
  57.0081329  22.0103502  67.8169775  58.0371714  21.2520003  67.0064402
  67.9779421 106.7082646  66.4648581  67.3598563 106.7365693  65.7345104
  67.6090323 106.0610267  67.0658779  19.3414198  98.3191013  38.9094543
  19.3441807  98.0084144  38.0040812  19.9245154  97.7165961  39.3712068
  50.2680206   7.4358499  71.7583895  50.1976204   7.4732512  70.8045149
  50.7627630   6.6347677  71.9308138  41.6983115  83.5686039  77.8122759
  41.0394608  83.9966058  77.2654963  42.2179686  84.2888736  78.1692028
  38.3310448  98.3455765  73.0073929  37.7954708  98.5500025  72.2408390
  39.0600621  97.8316378  72.6600695  63.6471891  25.4617190  94.7245026
  64.4809437  25.5219650  95.1908207  63.8251591  24.8734689  93.9906597
  89.6607507  83.9088016   4.5938415  90.3485883  83.5024505   5.1210898
  90.0822271  84.6708231   4.1964549   4.8860251  85.8765005  66.2745285
   5.5752503  86.3480067  66.7423773   4.6115004  86.4781808  65.5825424
  20.5295740 104.9716320  65.9928942  20.4519497 105.8396360  65.5969477
  20.0206028 105.0307979  66.8014002  95.8874321  21.3771367  66.4553738
  96.7828846  21.4180541  66.7911100  95.6054211  20.4800320  66.6339970
  32.0210253 105.6235521  94.0223694  32.7028786 105.7004919  93.3549881
  31.4158093 104.9698579  93.6721802  22.3606825   9.4362324  70.9512949
  21.9640827  10.2079248  70.5470276  21.6345882   8.9989972  71.3960934
  59.1792631   1.7236698  86.7295170  58.5109901   2.3568985  86.4674664
  58.6830139   0.9714480  87.0522118  40.7235575   9.3534511  87.9459572
  40.4376650   9.6757168  88.8007355  41.3839483   8.6907995  88.1484509
  44.9694907  75.5543303  84.9609756  45.5567728  75.0744175  85.5449390
  44.1122328  75.4963159  85.3828526 105.5051089  84.8348355  62.2882366
 105.1485873  84.3544411  63.0354643 104.9101902  84.6310853  61.5665770
  98.1202234 101.5692811  10.1085967  97.1920646 101.7177634  10.2894229
  98.1639160 100.6604819   9.8112601  30.5340457  30.5838299  88.0205631
  29.6671319  30.9498453  88.1958485  30.6716204  29.9473333  88.7221146
  57.1008873  13.5695398  87.5878716  57.4974203  12.7157009  87.4148083
  56.8059969  13.5168326  88.4969902 107.9691566  28.1686668   9.5080394
 107.0886673  28.3880501   9.2033404 108.1396545  27.3005133   9.1427058
 107.1568121  44.7221248  27.6610869 106.9341291  44.3815451  28.5274810
 106.3687767  44.5778768  27.1372241  71.4724922  10.9389460  80.8560181
  71.1031866  11.0781646  79.9839687  71.5664101   9.9890506  80.9274960
  75.0627279   6.0464436  91.9950867  75.4557943   6.6745132  92.6010990
  74.2715120   6.4822072  91.6783428  15.0820433  94.3281256  68.2904053
  14.2856394  94.5530187  68.7714386  14.8011767  94.2669915  67.3773813
  79.8603392  23.6357021  91.4361954  79.1583824  24.2789054  91.3372993
  80.6308937  24.0626359  91.0617542  26.7758404  90.5158829  66.1106110
  26.4557587  90.8664691  65.2794266  26.2033974  89.7705983  66.2925243
   6.5938448  86.1598043  12.8030128   5.9522509  86.1844115  13.5129279
   6.7096685  85.2280121  12.6170367  22.3309504 109.4744073  48.1947279
  22.7532898 109.3923119  47.3396730  21.5879427 110.0576654  48.0398560
  68.9252901  17.4898350  73.5165310  68.5635471  17.8305376  74.3346357
  68.2344294  16.9285226  73.1645775  82.3780823   3.6562875  82.8913498
  81.9875908   3.3334422  83.7034607  82.4240780   4.6051905  83.0083942
  77.9109383  16.1620772  93.0109882  77.8355694  15.2941191  92.6144981
  77.0178223  16.5063691  93.0052948  61.4020395   4.8360321  88.1655312
  61.0767698   4.0101993  88.5239124  62.0328379   5.1469773  88.8148689
  92.5300182  56.4723966  18.8724727  92.1057380  57.1646412  19.3794364
  93.4661020  56.6545691  18.9549083  54.1505991  76.4185762  88.2327271
  53.7392508  75.8531021  88.8863850  53.4825789  76.5275597  87.5558949
   4.4284319   8.6741214  16.0447234   4.7319101   8.2747607  16.8599814
   5.1864599   9.1595130  15.7191104   8.2922779  85.6518697  72.4113369
   8.6932741  85.6831693  71.5427446   7.3942601  85.3622984  72.2502708
  88.7090791  39.9169867  30.5480594  88.8903392  40.0454156  29.6169967
  87.7585567  39.8143904  30.5950946  15.9496247 105.1972716  68.1648636
  16.5846573 105.3534334  68.8638449  15.1051174 105.4262301  68.5529566
  57.1256434  70.6438755  92.1482563  57.9871641  70.6593584  92.5651169
  56.8585669  69.7253989  92.1843529  82.9876423  21.1060882  68.3064985
  82.1004391  21.2181807  67.9651260  83.4799385  20.7319641  67.5758028
  13.9644800  92.3262727  73.4751987  13.9849411  91.4151203  73.7678003
  13.7506901  92.8260898  74.2630482  69.2611313  21.6514134  68.9530849
  69.7311831  21.6287899  69.7866154  68.3613348  21.4157629  69.1790581
 116.0031999  52.6583725  13.7600631 115.1039613  52.4621777  13.4971732
 116.0317148  52.4461182  14.6930045  49.7808599  27.8144336  84.7547150
  50.0722694  26.9108462  84.6328831  50.4181051  28.3390212  84.2699909
  61.3860893   2.1082057  80.5571842  62.0138645   2.4634945  81.1863899
  61.9089365   1.9188842  79.7780657  10.4185807 103.3887791  83.9611816
   9.4761835 103.2288276  83.9108181  10.7862269 102.5596630  84.2671776
  38.6330509   8.5425210  66.1310577  37.9812074   8.2071728  66.7465830
  38.7706113   9.4510287  66.3992405  28.1637799  88.0000948  64.6436644
  28.6536347  88.7594628  64.9593115  28.3920227  87.2977924  65.2526855
   5.8372771 102.8475993  87.9662228   6.6496979 103.1907385  87.5941277
   5.3231846 103.6266666  88.1783485  94.8261906  96.3762593  80.7015896
  94.5468820  96.8225765  81.5009785  94.3460942  96.8173718  80.0007629
  31.2148510  80.5552673  94.2031193  30.6808173  79.8676919  94.6009636
  30.9483849  81.3565110  94.6539307  53.2439791 106.5396514  55.8014250
  53.1198965 106.6538643  56.7436504  54.1752993 106.3407605  55.7048655
  26.0865532  98.4098148  86.9029617  25.2145706  98.6785983  87.1921635
  26.0161578  98.3538436  85.9500027  83.8814510  23.2025747  37.2607059
  84.7685827  23.3254724  37.5985354  83.8137926  23.8222604  36.5343207
  77.7894629   6.2244945  20.1009292  78.2332171   5.4177051  19.8393840
  77.1022595   5.9359746  20.7015437 106.5569473  99.5745932  84.3825340
 106.7612673  98.6482703  84.5106411 105.9583713  99.7890138  85.0980473
  83.0580807  12.7309263  79.3407202  83.1454468  11.8072033  79.5759535
  83.4577942  12.7960563  78.4734154  96.3581432  45.9467332   3.8420981
  96.7776979  45.1436292   3.5335082  95.4999126  45.9467243   3.4182185
   8.5684382  64.5237684  87.4357128   8.5292612  65.0429343  88.2389355
   8.9546810  63.6911296  87.7073097  12.6122641  40.6321995  12.8662986
  13.4776186  40.7852070  12.4868602  12.5498175  39.6802216  12.9442042
  82.3057903  72.2740047  17.8139228  83.1357254  71.9276350  18.1417388
  82.0443548  71.6600125  17.1277064   4.4325339  96.4513861  77.4775124
   3.9211546  96.6782557  76.7008209   4.4299256  95.4943466  77.4948597
  32.6026427  95.1567995  75.6067085  32.8675686  94.3933594  75.0936699
  32.4299799  95.8356070  74.9542952  47.7313614  10.9535038  71.8030405
  47.9982471  10.6877565  70.9230518  48.4619045  11.4811027  72.1258020
   4.8344683  74.1239850  12.1366900   4.0686964  74.3987148  11.6323680
   4.9066137  74.7738581  12.8357524  89.5012296  34.5714955  19.7288627
  88.6453642  34.4661765  20.1443595  89.8170532  35.4189329  20.0424499
  10.7978617 103.8158732  79.0410280  11.3928829 103.8725226  78.2933855
  11.2827669 104.2142760  79.7637844  68.0506468  24.9046469  35.2767587
  67.8474951  24.4023514  36.0658455  68.3780289  25.7425332  35.6038666
  62.0853329   8.4099245  86.6654491  62.3267317   8.5415208  85.7485867
  61.6786814   7.5435996  86.6840839  76.6009413  99.1852891  78.5762644
  77.4547755  99.6143925  78.5208511  76.0114275  99.7611450  78.0893421
 107.1936430  95.5647044   9.1361255 106.7183031  96.0321956   8.4492892
 107.4078811  94.7176795   8.7451190  48.2534456  34.8706889  59.0322304
  48.3096266  35.0251985  59.9752045  47.4713612  34.3294430  58.9243841
  95.9644604   7.4870872  91.5529728  96.5217209   8.0014020  90.9688663
  96.4923000   6.7195523  91.7732143  59.9670792  16.3452029  94.5767784
  59.6114445  17.1676469  94.9134445  60.8906174  16.5339172  94.4103718
 102.1510614  64.8613553   6.2397593 102.2632469  63.9729272   6.5779036
 101.4987434  65.2570467   6.8178100 105.1836872  18.8067555  58.4129715
 104.8870087  18.9721990  57.5180769 104.9220753  19.5879650  58.9003134
  65.6225777  23.9976406  82.5231647  65.2025509  24.1391993  83.3715534
  65.1471424  24.5709324  81.9218922  81.0501289   1.5121630  68.6803198
  81.1905193   0.6146380  68.9819336  81.7982483   1.6934367  68.1113911
  47.0356989  20.6213355  63.0776691  47.5545406  20.3700352  63.8417912
  46.5043259  21.3576198  63.3805895  77.6360703  15.4672050  70.7819653
  77.9135418  15.2590132  71.6740942  78.0337858  14.7842729  70.2419138
  18.8257097  48.4915792   5.1811809  18.6298822  47.6528649   4.7635192
  18.3096670  48.4839623   5.9873313  69.4055653   6.3725913  71.3257074
  68.6510324   6.4619803  70.7435322  70.1637936   6.5102446  70.7579279
  99.9223518  10.4750812  34.9563098  99.0856647  10.6354368  34.5198703
  99.8220444  10.8741856  35.8205366  46.9477654  33.3265138  79.7808599
  46.8964243  34.2780685  79.8710918  46.0731459  33.0657530  79.4922924
 104.7600902  68.0398731   5.0503940 104.7859920  68.9339416   5.3912753
 103.8275779  67.8490214   4.9492663  64.3336487  31.3038683  85.1982307
  63.6038160  31.3494492  84.5805740  64.7194910  30.4405475  85.0497723
  45.9142208  14.9033439  91.8492222  45.5094004  14.9836087  92.7128792
  45.6780338  14.0237021  91.5548134  20.2548098  72.8470283   3.6459846
  19.4312166  72.9140739   4.1291350  20.3176188  71.9223087   3.4068603
  32.1006811   2.7156883  15.2667922  32.0500839   1.8750053  14.8119086
  31.7877138   2.5283724  16.1517829  45.2543806  82.7731328  20.5934066
  45.0732874  82.0071845  20.0486487  46.2072062  82.8620462  20.5724925
   8.7817263  38.9831285   4.0112895   8.9097475  38.9862757   4.9598807
   8.4581923  39.8612993   3.8103503  21.9892012 101.8020236  72.7338791
  22.8620564 101.5920233  72.4018288  22.1192967 101.9545000  73.6698580
 109.5654978  80.9239392   3.6397857 110.0257934  81.7228012   3.3825320
 108.9363397  81.2123923   4.3009871  86.8549156  23.8161111  85.4278374
  86.3265991  24.0266156  84.6578979  87.3180580  24.6290302  85.6300640
  58.2482386  17.4298024  90.3447151  58.3795452  16.9346809  89.5361137
  58.4678411  16.8120682  91.0421562  76.6504097   6.7801106  60.1739407
  77.0840788   5.9376711  60.0380707  76.2489796   6.7059660  61.0397291
 103.4563828  28.4452224  69.6738434 103.4720516  28.2562065  70.6120634
 104.1242218  27.8689170  69.3022251  71.4902544  23.8404918  89.9054909
  70.9971523  23.8399696  89.0850735  72.4039125  23.9336944  89.6357346
 108.1936073   9.2419779  72.5954866 107.3875141   9.0616149  72.1118355
 108.8939476   8.9567077  72.0086527   0.7202362  59.0106254  22.0098609
   0.2190756  58.9067175  22.8187293   1.1875271  58.1812980  21.9094199
   6.0459780  81.6849451   5.4505176   7.0011210  81.6674881   5.5107898
   5.8624243  82.2879105   4.7301215   5.8374476  85.4983263   4.7827453
   6.2934279  85.2047424   3.9939994   6.4847063  86.0251670   5.2514953
 110.6107820  93.8573246   3.9030761 110.5492414  94.2625170   4.7680968
 110.5001224  92.9210834   4.0687198  44.3834959 103.7064933  88.1848240
  45.1893126 104.1164982  88.4991360  44.3134676 103.9849567  87.2716999
  22.3801171  92.8423690  85.4756737  21.7687641  93.1497716  84.8063564
  22.6316916  91.9655251  85.1856899  49.7671175  39.5632720  68.6225796
  48.9810610  39.0700626  68.8572979  49.9267340  40.1321173  69.3756866
   6.3874089  93.2077979  49.9285221   7.0153509  93.1195747  49.2114878
   5.8364044  92.4279558  49.8616695  97.8622783  69.6126108   1.8485564
  98.5897173  70.2025669   1.6510505  98.2810415  68.8200419   2.1842689
  32.3963380   2.2706062  83.0491352  31.9437122   1.8883136  83.8009453
  32.6534033   3.1444561  83.3433056 101.7599297  12.4431181  45.7067966
 102.0185089  12.9275811  46.4908028 100.8228493  12.2849393  45.8211851
  46.2414252 106.6795795  74.1417599  45.7561671 106.7663320  74.9622631
  45.6051623 106.9029718  73.4624290  29.1232371   2.8043723  70.4523373
  28.2811689   2.4219368  70.6991100  29.2950201   2.4600612  69.5758867
  69.8406124  13.3533502  72.0661545  69.5270777  12.7882385  72.7722549
  70.1937628  14.1222739  72.5136709 113.2688583  86.6866713   9.8994845
 112.4489511  87.1732120   9.9846858 113.9447941  87.3627834   9.8524016
  39.5465933 103.0499404  86.6894722  39.3638455 102.1423387  86.9325638
  38.9519821 103.5676544  87.2322750  91.6305256  23.3413959  91.3517666
  91.0471821  23.2114673  92.0994759  91.0426998  23.4234619  90.6007957
  65.6715631   7.1320486  74.4084644  64.9981022   7.7197045  74.0659189
  66.4972830   7.5771558  74.2179489  80.5152988  13.9537191  79.0896320
  80.6867313  14.7871304  78.6511469  81.3126850  13.4423208  78.9522362
  26.3493239  79.7609329  78.9776087  26.3203083  78.8601732  78.6550856
  26.6959702  79.6859502  79.8666811  23.6710334  17.5582337  74.3254805
  24.0288711  17.1155846  73.5559034  22.8002596  17.8470230  74.0523863
   6.2900244 107.5138291  75.5757475   6.4148556 106.7917200  74.9599504
   6.8369614 108.2197528  75.2311230  74.6648550   1.5996817  85.4038143
  75.1032543   2.4186224  85.6348419  74.9235821   0.9870211  86.0922527
  87.9710102  19.6998131  78.7235928  87.7287292  19.5095932  77.8173113
  87.9097557  20.6525278  78.7929726  28.7994742  91.0024004   1.9282264
  29.3665957  90.2323704   1.8875045  29.4038557  91.7445354   1.9418830
  12.7641045  97.0564937  55.2712536  12.9368817  96.7389750  54.3849373
  13.5980927  97.4273538  55.5596352  50.5633150  93.7156224  78.6969233
  49.6960818  93.3577334  78.5070562  51.0487543  92.9808854  79.0720940
  94.9218239  56.1989871  10.1502246  95.5327715  56.6525974  10.7309264
  94.5661653  56.8891995   9.5904559  81.1054100  69.3581204  20.8893317
  80.7362379  70.2365952  20.7986278  80.4102005  68.7737660  20.5869311
  72.6513624  14.3153119  88.5248184  72.7509403  13.9982748  89.4224834
  72.4568558  13.5298002  88.0135727  59.2870020  46.0574912   1.3647193
  59.2915415  46.7922782   1.9781512  60.1158499  45.6063871   1.5251845
  84.6828651   3.5314077  42.6851892  84.9018574   3.9827785  43.5003805
  83.9552593   2.9549155  42.9186201  53.5058928   1.8809623  80.0871754
  53.1525707   1.3202891  79.3964958  52.7334929   2.2611485  80.5056190
  62.4777685 107.7982805  50.2157593  61.8166815 107.2288244  50.6093407
  62.5518500 107.4905255  49.3124151  65.0693512   6.2579012  62.0620155
  64.8855925   7.1972299  62.0507669  64.3381882   5.8650881  61.5852213
  71.3814831   7.7966225  75.6649494  70.8645916   7.6091337  74.8814249
  71.1528969   8.6977929  75.8927059  59.3744659   6.1435157  90.6006813
  59.3926525   5.9475446  91.5374279  60.2953863   6.1517298  90.3397846
  74.9743462  19.8097360  72.0461130  75.5021715  19.6620643  72.8308535
  75.0194883  18.9818347  71.5678072  91.0357857  28.5058832  64.2733765
  91.3179779  29.1512489  64.9215317  90.4057121  27.9571199  64.7403765
  66.7430782  26.5873480  75.2238417  66.2496424  26.0745645  75.8640003
  67.3100901  25.9488630  74.7913265  61.0139799  20.8535504  91.0329056
  61.1563635  20.5741525  90.1285362  60.0771570  20.7226324  91.1793613
  91.9246197  17.2139764  82.7012539  91.6556644  16.3532877  82.3801422
  92.8795910  17.2061002  82.6364708  15.3182960  16.1806953  84.3592644
  14.3965220  16.0099089  84.5526409  15.3375208  17.0933878  84.0714169
  56.1032248  26.2965560  55.2709007  56.8927288  26.3723111  54.7350121
  56.2242031  25.4839349  55.7620668  67.5003529   9.8484111  58.8850307
  67.0004654  10.3775418  59.5066118  66.9697475   9.8497236  58.0883551
  82.4744225  36.2687111  92.1525574  81.6602707  36.5960932  91.7701912
  83.1042862  36.2934852  91.4322090  30.5386709  73.0257051   7.3359508
  30.4961657  72.0711391   7.3927611  30.0613379  73.2394235   6.5342635
  12.5422644  76.6854076  11.4680690  11.7207979  76.2651973  11.7227286
  12.8615355  77.0943265  12.2724837  13.9525580  53.4066053   6.8182391
  13.5558867  54.0732684   7.3789901  14.5743822  53.8901417   6.2744063
  47.8620577  18.9382851  86.5932655  48.1691980  19.1808093  85.7197189
  47.1972656  19.5939350  86.8039989  24.9792038 107.7501004  83.0287170
  24.6911227 107.3182797  82.2245026  24.2168843 107.7136124  83.6064529
  66.2451553  11.5256989  79.0570164  65.5642653  10.8639717  78.9356327
  65.7641649  12.3399138  79.2051125  58.7279415   4.2864659  76.1020422
  58.9986229   3.3770064  75.9761524  58.9266968   4.7130793  75.2685356
  64.6371924 100.1027130  88.7570953  64.8812376  99.2416512  88.4176064
  64.1600596 100.5171692  88.0382061  63.5103989   3.0881196  93.5769367
  63.0278969   3.0046377  92.7544689  62.8320503   3.2088819  94.2413807
  90.6005001  11.7035997  71.8280888  90.1528645  12.5494707  71.8470621
  89.9213886  11.0788929  71.5735626  27.4179732 100.5584734  90.3284645
  28.1710469 101.1475157  90.2822113  27.6700150  99.8051047  89.7944736
  41.3793945   0.6954143  61.5802813  41.9633198   1.2531637  62.0942640
  40.8923531   0.1926351  62.2331429  61.0192537   2.1610078  69.5788956
  60.2886438   1.9217700  69.0086269  61.5737772   2.7209505  69.0355730
  98.4609127   4.2035931  49.0301418  98.0427933   3.9147273  49.8412895
  98.6758041   3.3925384  48.5694408  39.2016922 102.8853797  71.4283848
  39.6887909 102.9667419  72.2483540  39.4372593 102.0196831  71.0947514
  70.7163525  19.6470118  64.2750120  69.7913265  19.8661017  64.3870640
  70.8084393  18.7834907  64.6776056  66.7611074  -0.2521976  70.7464695
  67.1836472   0.5815120  70.9529066  66.3626194  -0.1125167  69.8874378
  47.7877188  12.7718747  81.9168949  48.6779881  12.4536145  81.7673588
  47.7833366  13.0495572  82.8329277  59.9927794  98.9067447  85.0864315
  59.2980086  99.5509993  84.9505615  59.5291888  98.0849623  85.2476692
  84.5996094  31.4658237  64.0843487  84.2083645  31.4058900  64.9558830
  85.1685524  30.6984329  64.0239286  50.5656897 105.2351200  65.5407858
  51.4434897 104.8558458  65.4978132  50.6703554 106.1211204  65.1939726
 102.3165001  84.2208080  16.5672034 103.2146705  83.8988500  16.6437835
 101.8933119  83.9457850  17.3805350  53.1810760  38.5595679  80.3407383
  52.6833582  39.3696594  80.2300262  52.5408459  37.9280186  80.6685925
  35.8958817   5.4046869  82.9908562  36.7090297   5.0996274  83.3932972
  35.4280639   5.8451778  83.7003231  78.2836962   8.3389837  79.7794151
  78.0466366   8.0203682  78.9084816  77.5261116   8.8516593  80.0613022
  89.1659641  26.0215640  60.8265018  88.6768436  25.8276224  60.0268888
  89.6156788  25.2031279  61.0366344  93.6569118   8.2702327  93.2817936
  93.3901787   9.1892052  93.3057690  94.5533562   8.2896942  92.9467678
  36.3327109  93.6321580  93.3373547  36.2134253  94.5370268  93.0488873
  37.1708380  93.6366712  93.7996960  92.7438927  27.9620647  89.7000694
  91.8003750  28.1140280  89.7541428  92.8762341  27.5845551  88.8304710
  85.4931545  31.5095305  78.8050652  84.8657513  31.3867521  78.0926561
  85.8575821  32.3819280  78.6555815  43.9684296  24.9491763  88.4788990
  43.8273907  25.4887033  87.7009201  44.4024944  24.1623282  88.1492138
  91.3922882  28.1725931  78.4300184  92.2344780  28.6261535  78.4651232
  90.8113003  28.7812424  77.9736948  52.2301626  23.6198092  73.7960815
  52.6073265  24.1584849  73.1005192  52.8269291  23.7318468  74.5360470
 112.6105690  60.0958586  67.2454643 112.4572563  59.3270826  67.7947426
 111.7474270  60.4986954  67.1509838  93.5394382  21.2597680  89.6454906
  92.5979996  21.2318420  89.8161697  93.9348316  21.3992262  90.5059814
  94.5800018  22.0737362  74.0031481  94.0832520  21.2576079  73.9448118
  95.4942036  21.8046165  73.9134789  69.5951223  12.2387004  78.5855627
  69.7023869  13.1682801  78.7870741  68.7790585  11.9919026  79.0207195
  78.9112009  59.5432042   4.4503135  79.4352115  59.8471944   3.7092036
  79.1116584  58.6097162   4.5184916  89.2359161   5.0138170  65.1073742
  88.6520863   4.3745369  65.5156612  88.7881088   5.8524621  65.2186441
  91.2328924  63.9195358   5.0979156  91.2314523  64.6770029   4.5127028
  90.9650911  64.2720382   5.9465999  90.8947372  50.9538221  90.6868362
  90.0288391  51.1863852  91.0220623  91.1225319  50.1479435  91.1504173
  39.8021555  15.9804225  71.1477041  39.0279508  16.4110827  71.5101576
  40.5233192  16.2775242  71.7025852  43.0724669  10.4936004  73.8507843
  43.9109421  10.2910972  73.4358263  42.4845028   9.7989213  73.5542297
  81.3090611   3.4010199  72.6809263  80.9715843   3.6982813  71.8359566
  82.2585773   3.4965625  72.6066303  35.7060419  95.3119432  74.3588829
  35.7249485  95.3355789  75.3156042  36.5656220  94.9717271  74.1106701
  37.5964485  86.7636704  72.1504307  37.4127947  87.5147080  72.7147388
  37.8651892  86.0708236  72.7537298  96.4452362  39.9249196  81.6789246
  96.7778778  40.5137634  82.3563004  95.4931355  39.9772239  81.7625427
   8.9662777  72.2280335  76.9028759   9.1267668  72.0963549  75.9684610
   8.0371367  72.0281624  77.0168114  21.7144941  65.6924264   3.0946940
  22.1849226  65.3140657   2.3518867  21.4925741  66.5792923   2.8110522
 105.4385185  26.6338730  69.3258667 105.7156849  25.8122802  68.9204121
 105.5172539  26.4752603  70.2665424  49.5298563 103.9409094  93.5152340
  48.6289488 104.0495484  93.2106113  49.6106039 103.0042123  93.6949825
 102.7709770   8.8936621  89.0247154 102.1487045   8.2303995  88.7262249
 103.2516193   8.4686977  89.7350788  15.0907015  62.1405201  21.9805449
  14.2662977  61.7289268  21.7213649  15.7397150  61.7768292  21.3782615
  72.4788857  17.4441528  78.6734819  71.5875721  17.7287781  78.8754416
  72.8816080  17.2930515  79.5285892   0.8603262  50.1861669  17.9250068
   0.6246971  49.8640333  18.7950343   0.9598707  49.3949889  17.3955173
  69.2422390  29.9569225  91.7383194  68.4040213  30.3919888  91.8943405
  69.4859219  29.5940685  92.5899029 112.1527590 100.1684098   8.7425536
 111.3290418  99.9709086   8.2967776 112.8232921  99.7482018   8.2039947
  69.6916628   5.0843894  84.2521477  69.0867329   5.7732761  84.5273399
  69.9794436   4.6777907  85.0695133 109.9758161  51.7090892   2.2131461
 109.3606342  51.7241942   1.4799613 110.8129038  51.9695287   1.8288440
  85.5779171  20.5915928  80.2491856  86.2548828  21.2539196  80.1103497
  85.8755112  20.1020193  81.0159874  80.4103947  16.6176784  72.6597023
  80.6442642  16.1226952  73.4448957  80.1302338  17.4715078  72.9894161
  28.5366307   9.1016257  86.5388584  28.6574993   8.4334695  87.2135353
  29.2351971   8.9327222  85.9066296  73.8468612  57.5164350  20.6221694
  73.1953372  57.9617135  21.1639041  73.4821047  57.5440146  19.7376269
  99.6414280  38.6255741  91.4586639  98.8253307  38.8836718  91.0301685
 100.2067184  38.3359122  90.7425880 108.7995434  32.7924061  85.8942127
 108.6184216  32.4887824  86.7837334 107.9869080  32.6294184  85.4153728
   3.5908579  70.3385990   6.4383143   3.4900164  71.0167913   5.7703990
   2.7636122  70.3516226   6.9196910 110.9937490  43.4593241  15.5418605
 110.5464901  44.1382616  16.0470695 110.5633272  43.4741895  14.6870250
  23.5288881  61.0724370  25.4249782  24.2460608  60.6387489  24.9625796
  23.6620497  60.8411561  26.3442248  93.6958599   6.7117095  80.9164524
  94.1875935   7.5221813  80.7839012  94.3002415   6.1394632  81.3892078
  69.7977018  21.8355322  74.0969849  69.6034479  21.0635924  73.5653782
  70.3397751  21.5033364  74.8125505  12.2395884  63.8479614  81.2379646
  13.0043684  63.8208246  80.6629848  11.9438635  62.9388713  81.2862492
  22.3151528  84.6770381  86.5107250  22.9419266  84.1026782  86.0708427
  21.7536675  85.0023746  85.8070755   6.2384390  54.5087104   7.3932475
   7.1205210  54.2019056   7.1833724   6.0247110  55.1223051   6.6903514
  96.3241959  17.6982868  87.3731613  96.2358570  17.4793839  86.4455318
  96.2474346  16.8583798  87.8258228  12.8737055  88.7340092  88.9977360
  12.3956000  87.9053377  88.9670086  13.7937151  88.4829139  88.9154720
  99.6402897  47.7378379  25.6556624 100.2930607  48.3413618  26.0104674
  99.6203388  47.9306208  24.7182864  58.6133099  21.2915111  65.0396156
  58.9591694  22.1820402  65.0993681  58.3594799  21.1942267  64.1218233
  44.0010916  93.6088180  45.9789276  44.9203383  93.3484780  45.9201908
  43.9100539  94.3128537  45.3368425  38.5312080  13.9948165  76.2321806
  39.4610548  13.8586485  76.4140511  38.1249571  14.0587807  77.0965338
  49.2034340  26.9136310  66.2938547  48.6321592  26.4040160  65.7192469
  48.7090874  27.7129364  66.4754200   2.6889204  55.3994691   8.4584540
   3.1048464  54.6021469   8.7863463   3.4133123  55.9257111   8.1200046
 106.7977238  20.0570798  93.4047890 106.3838291  19.2612076  93.0708599
 106.4970589  20.1211667  94.3112755  94.6838284  21.1888433  92.1018124
  93.8357639  20.8889389  92.4290371  95.3256989  20.7230020  92.6377583
  48.5864626 108.9471058  84.8820782  49.2778574 108.3932584  85.2446651
  48.7477003 108.9446486  83.9385605  36.1765229  80.0954603  72.2835302
  35.4771744  79.8838043  71.6651917  36.3319861  81.0315751  72.1580410
  47.0195280 107.2341877  64.8758507  46.8126093 108.1687554  64.8765850
  46.9119631 106.9643425  65.7879066  80.8210291  24.6814947   9.6268100
  79.9808563  25.0045423   9.9523467  80.8324159  24.9322634   8.7031096
  32.5143849  89.7628927  86.2696075  31.9632088  89.5206141  85.5254745
  33.2443653  90.2443194  85.8802700 106.6349792  17.2258246  44.8456573
 107.2856426  16.7152393  44.3638086 107.1164513  17.5851524  45.5908442
  22.0208334  52.3666390  21.9378871  21.7585539  53.0871354  22.5108832
  21.5744471  52.5443395  21.1100024   5.0621544  89.3605804  92.5391960
   4.2812907  88.8163637  92.4376202   5.7489525  88.8832974  92.0736504
  88.8148117  10.7898414  83.5274506  88.1558132  10.4835260  82.9044533
  88.6067104  10.3308642  84.3412495  29.7022044  98.4431850  61.1240435
  29.4792639  98.7779724  61.9926310  30.0012862  97.5477337  61.2820005
  34.2751252 103.2570385  84.1449356  35.1324116 102.8384136  84.0671825
  33.7406765 102.6217275  84.6213627  80.5244697  30.0424485  18.8486022
  80.2432979  30.0787668  17.9343528  79.8209966  30.4746942  19.3328780
  67.8629671 100.5185639  76.6871214  67.2389303 100.2949654  77.3776388
  68.6991297 100.1720356  76.9985580  31.7560898  90.2145862  81.0054207
  31.3384949  90.8842277  81.5471077  32.6854502  90.2723848  81.2271881
  37.3235451  98.9460050  81.5177059  38.0242573  98.3116590  81.6688442
  36.5758358  98.5970818  82.0028973  84.4340897  39.6241832  40.9339285
  85.3196526  39.3702292  40.6740856  84.2710876  40.4410601  40.4623604
  86.3267136  14.7658324  64.9735212  86.8740654  14.6794999  65.7540226
  86.4987946  15.6527197  64.6572113  13.6316465   7.2702031  39.3010730
  13.2941984   8.1627612  39.3765944  13.0740904   6.8584065  38.6409301
  46.5415287  10.1741934  78.5184765  47.4982643  10.1447165  78.5230589
  46.3029623  10.0655615  77.5978708  75.4980516   9.7665650  73.2928467
  75.7944918  10.6757057  73.2501936  75.9592819   9.3993807  74.0469551
  24.1577791  65.3651600   6.0579127  23.8028120  65.9918063   6.6884154
  23.4047770  64.8346238   5.7976359 101.6092300  12.0096350  51.5357351
 101.3214493  12.7502334  51.0019493 102.5422859  12.1668839  51.6803598
  35.5786085  29.5605564  94.7001553  36.4967871  29.8310733  94.6993160
  35.5778766  28.7141681  94.2530918  20.5099163  15.3111732  58.7860584
  19.7332631  14.9556553  58.3540344  20.7110463  14.6785915  59.4757080
  59.2431784   9.1792017  81.1942673  58.8254261   8.5132223  81.7403412
  60.0262690   9.4328159  81.6828251  61.6138601  28.6175728  90.4150200
  62.1576786  28.9811969  91.1137867  61.2300587  27.8280115  90.7964993
  45.7187939  14.3895698  87.0051098  45.6186771  13.5020173  86.6609383
  46.2373352  14.2802751  87.8022385  62.6526976  -0.2429662  69.4230032
  61.8148518   0.2198154  69.4138861  63.0880070   0.0338561  68.6167145
  88.6341763   5.1976252  57.7573442  88.1853962   5.3340679  58.5917330
  88.8088989   6.0807705  57.4321365  58.9085484  25.1830053  72.8312349
  59.2230654  24.2792916  72.8560352  58.0407524  25.1457143  73.2334328
  84.8752594  57.1643400  56.7382717  85.5879498  57.6256561  56.2961245
  84.3514061  56.7952013  56.0272551  89.7107792  10.0418854  92.6075172
  88.9492512  10.0556910  92.0277691  90.1871109   9.2498732  92.3584080
 101.0900606  61.2638472  19.9605960 100.6162656  60.9274785  20.7212562
 101.7620100  60.6048022  19.7863120  64.5460176  44.1211128  88.8400269
  64.0952444  43.6030674  89.5068550  64.0913725  43.9097118  88.0246544
  11.2596869  62.2543900  18.4529418  11.6785883  62.3944865  19.3021411
  10.7079863  61.4829563  18.5823840 105.1528515  79.4625502  11.5363044
 104.5321382  79.0790706  10.9167117 105.9729494  78.9966946  11.3730639
 111.4731611  68.9804773  11.3319320 111.4731563  68.2870440  10.6721038
 110.6215490  69.4059746  11.2322253 108.8990879  19.2943895  90.7674599
 108.5396004  20.1815033  90.7723522 108.1429577  18.7304389  90.6048107
  91.4932251  20.1794052  79.6963596  91.4770603  19.7084582  80.5295372
  91.6700935  21.0884380  79.9384499 102.5017929  63.0146456  91.1015034
 102.9616451  62.2292042  91.3979053 101.7797947  63.1177664  91.7214394
 115.6545223 106.1606364  11.1738128 115.7324566 105.3763347  10.6306476
 115.8542312 106.8841701  10.5798072  76.9049835  27.2109604  94.9861431
  76.5842819  26.3140559  95.0807190  77.8475904  27.1456814  95.1393223
  86.5482426  20.2592659  91.3950157  86.2558365  20.6895161  92.1985149
  87.4829865  20.4587245  91.3430595  75.0070524  35.8804727  91.3810349
  74.7478962  36.1889267  92.2493267  74.7216463  34.9671483  91.3562679
  30.7709490  96.1409151  57.7756500  30.4525505  95.5252873  57.1154594
  30.5928932  97.0046031  57.4034023 101.6797924  36.6954517  90.6134033
 101.2809467  36.6868234  89.7432995 101.2533569  35.9763241  91.0794926
  81.8071556   0.3219714  72.3627424  81.2992096   1.1073094  72.1590948
  82.6695251   0.4892138  71.9825220  86.1311913  44.4461727  91.8508720
  85.5771637  43.6792517  91.9962406  85.7754803  44.8522425  91.0604286
 109.4878578   3.9426804  86.5209770 110.1521111   4.6192530  86.6523075
 109.5712376   3.7010223  85.5985451  32.5859140  94.6453910   2.5134105
  32.0502638  95.1213841   3.1480235  32.4962496  95.1448874   1.7018146
   0.9084677  76.1508589  22.4503821   1.3304781  75.8867912  23.2679385
   1.2747454  77.0144348  22.2598285   4.3506012   2.2642913  80.4966736
   5.0269757   2.8136939  80.8927917   4.4393216   1.4195612  80.9380245
  83.1515503  28.0577040  88.1918526  82.4690342  27.5274062  88.6031818
  82.7588844  28.9260674  88.1024551  87.4044895   2.0278600  63.6660624
  86.9499874   1.9799574  64.5071125  86.7368507   2.3291454  63.0498457
  96.5489578  27.3575234  86.9392681  97.3319912  27.5450206  86.4216423
  96.8586349  26.7898631  87.6450253  90.2081680   7.5290436  85.3313732
  90.8910370   7.5100619  84.6608829  89.3905735   7.4307293  84.8433971
  84.0497125  77.7608566  14.1180343  83.7034477  77.3832254  14.9265594
  83.3341135  78.2988052  13.7792701  78.1917429  34.1939783  83.8713264
  78.9806747  34.4112992  83.3747482  77.6770306  33.6485076  83.2765388
  29.2396139  80.4645472  19.0905112  29.5107531  80.1751094  19.9616927
  29.9458288  81.0412745  18.7991733  64.7313690  12.5576234  72.8177595
  65.3467417  11.8244898  72.8099537  64.5417166  12.7012753  73.7449217
  14.2023825  79.9092131   6.6063231  14.3406176  80.8563404   6.5978259
  14.0723490  79.6944194   7.5300044  10.1331412 101.4298999  73.3244085
   9.8444830 101.6015010  72.4280500  11.0178076 101.7931681  73.3648300
  62.9378689  17.6287323   5.5613727  63.7362182  17.7618986   6.0723895
  63.0664623  16.7828136   5.1322764  10.1971983  68.1244473   4.2971248
   9.7198938  67.6787012   4.9969214  10.7210516  68.7863605   4.7484225
  16.7555307 103.9936213  13.4756297  17.5636553 103.5233788  13.6806506
  16.5393805 103.7209134  12.5839251  44.0045916 105.8360528  82.9447269
  44.8946463 106.0128730  82.6401329  43.4997546 106.5999164  82.6656628
  83.3764267  33.4867477  75.5180120  83.4806633  32.5772119  75.7974958
  82.7040768  33.4526730  74.8375607  73.8683319  15.4561424  37.9520059
  73.3609295  15.5311441  38.7601852  74.7407722  15.7723463  38.1867313
 108.0742611  71.2520831  24.7655410 108.9929832  71.4345353  24.5683211
 107.7973140  71.9847708  25.3157252  16.5320086  68.0749326   2.5214881
  17.0983194  67.3860197   2.8692359  15.7624411  68.0623524   3.0905551
   6.7106495  19.6357000  57.0049810   7.3726521  19.7596800  56.3248158
   6.0202179  20.2607489  56.7839813 112.1940422  17.7818239  74.3151188
 111.6950321  18.1751418  73.5992098 112.6878548  18.5103703  74.6914148
  17.5937783  72.3747658  71.7951632  17.6266466  72.7301740  72.6833296
  16.7433106  71.9386243  71.7430353  83.8623142  22.6198721  86.3808250
  84.7052765  22.7807784  85.9568310  83.3269787  22.2097158  85.7015514
  99.5418358  27.9887390  63.1203413  99.8201942  27.4402571  63.8537693
  99.6412754  28.8853121  63.4404993  68.2237517 108.1820604  92.8223896
  68.3538424 109.1301609  92.8020382  67.7773558 107.9838232  91.9991875
  88.0534267  16.1924469  62.4687910  87.7947330  15.7426310  61.6644430
  88.8035107  15.6931639  62.7917910  84.1518484  92.2548544  72.1800613
  83.5394179  91.6632473  71.7428398  85.0166689  91.9028007  71.9694042
 102.5242043  20.1045823  76.1070728 101.9346714  20.8369255  75.9271717
 102.9184914  20.3167510  76.9530916  39.2659079  96.8671822  81.9559002
  39.5348440  96.8564057  81.0373211  38.7205349  96.0868084  82.0549679
 106.4683151  21.5186262  76.4933395 106.5269661  22.3079181  77.0316792
 106.4380646  20.7997966  77.1246862  49.2159830 107.9345616  89.0660477
  49.3063055 107.3616795  88.3045483  49.5460402 108.7823462  88.7684631
  94.5117283   6.3554657  58.9725256  94.0788364   5.7969320  58.3268738
  95.1420498   6.8654901  58.4637928 112.7172756  25.5347776  81.2529755
 112.7668476  24.8655128  80.5704308 111.8274879  25.4597831  81.5977764
 103.6070824  24.2735529  72.9390812 102.6944065  24.1698480  73.2083273
 104.1026974  23.7437725  73.5635328  63.3231544   5.2209592  80.4357815
  63.5108519   4.2865333  80.5243778  62.7537632   5.4223478  81.1783886
  21.5661501  79.7583346  30.7525462  22.1961760  80.2004509  30.1834792
  21.0667967  79.1929345  30.1632995  93.3543396  23.9566469  52.5327730
  92.5722313  24.1151977  53.0613613  94.0158749  24.5413780  52.9024792
 116.1653519   3.2580233  75.5690527 115.7972145   3.2453090  76.4525414
 117.0464993   3.6145243  75.6818438  29.2664122  67.9570942   6.0347575
  28.9991640  68.7657635   5.5978698  28.4527086  67.4658697   6.1480159
   5.8374857  63.1368499   0.1931685   6.3387560  63.8848584  -0.1315576
   5.0335669  63.5209690   0.5430144  85.2993393   5.5072606  65.5017614
  84.6277618   6.0242176  65.9467077  86.0676861   5.5739558  66.0687065
  76.5662826  91.7075543  12.1201056  77.2023739  92.2884326  12.5374812
  75.8668674  91.6140537  12.7668780  74.6131277  11.4526796  91.6075230
  75.2105618  11.7491293  90.9209156  73.7431240  11.5223813  91.2145042
 106.5184940  71.7672281   7.1737498 107.0459903  72.2670858   6.5507621
 106.7959751  70.8597248   7.0485705   7.4762129  94.5861630  45.6635589
   6.7285513  95.0246053  46.0697574   8.1767725  95.2380757  45.6849689
  53.9786911  11.8066823  81.6139030  53.5717010  12.6388264  81.8550014
  53.6263037  11.1766982  82.2425365  13.5735106  76.0240440   7.9375857
  14.0876936  75.9515767   7.1334762  14.0174078  75.4465203   8.5585994
  50.0216246  11.3728058  85.9353065  50.3716373  11.8728626  86.6726398
  50.0555754  11.9802296  85.1963139  85.4432964  14.7674775  89.4809914
  84.8436260  15.4125464  89.1061306  86.0362339  15.2816939  90.0289249
  76.5333080  17.4725711  59.6894264  77.2026587  17.6016641  60.3613901
  76.6332579  16.5582585  59.4243336 109.4957079  75.9932952  11.3589210
 109.4687570  76.1064796  12.3090190 110.3831686  76.2532668  11.1118144
  76.4848089   7.0415026  89.7425556  75.6278801   7.0193094  90.1684761
  76.8045759   7.9309136  89.8939800  82.0281696  11.0036159  87.3934841
  82.8493690  11.4592886  87.2084999  82.0479488  10.8482015  88.3377743
  51.1724460  12.8709179  14.7426433  50.3589714  13.2326608  15.0942439
  51.8410480  13.5155397  14.9742717  90.2631664  43.4184456  90.9387016
  91.2124062  43.3562422  91.0449886  89.9413681  42.5400877  91.1415958
  64.2180300  32.1383286  93.4873295  64.1519642  31.3106656  93.0110455
  63.6893988  32.7514410  92.9765606  40.1168333 103.4424567  54.7111988
  40.2945505 103.5252839  55.6481028  39.4889151 104.1402226  54.5239210
  26.4268374 102.0503383   8.8186473  27.2964739 101.8748336   8.4592742
  25.8406138 101.4875035   8.3128852  67.8537703   5.7698679  61.2295866
  66.9240713   5.8912635  61.4223385  68.0227137   6.3517547  60.4885721
  87.8381920  18.8475585  81.4853382  88.0704689  19.2033815  80.6276226
  88.4739876  19.2363000  82.0860672  30.8387242  38.8248181  69.1401052
  30.6658421  38.2746744  69.9040937  31.4634571  38.3209181  68.6185360
  67.4055672  14.2137051  63.8817930  66.9332409  14.4916570  63.0970144
  67.8913689  13.4363449  63.6062193  99.6150875   7.6509053  49.1948175
 100.0262642   8.3541304  49.6974516 100.2350235   7.4668181  48.4891129
  75.8308268  21.4502311  52.2754717  75.2901697  21.1736393  53.0153465
  75.5958843  20.8486009  51.5690184  86.4690876  15.5758274  75.3805304
  86.2578201  16.4824426  75.1577139  85.9920788  15.4117250  76.1940145
   4.7831879  28.3503938  73.9102364   3.8706169  28.0893278  74.0338707
   4.7318612  29.2129779  73.4984732  69.6667671  28.0227900  94.1050625
  69.6596050  28.3246374  95.0133896  69.0688658  27.2753453  94.0963268
 100.9967327  24.6957803  94.5143318 100.3070927  25.3233981  94.2981815
 101.7507935  24.9814343  93.9985561  64.9260092  42.5133276  77.5857735
  65.3105354  43.1066275  78.2310390  64.8164463  43.0509567  76.8014383
   7.5317072  95.2836375   1.3156623   8.1715941  95.9755950   1.1484355
   6.7509626  95.5580668   0.8346576  55.8953333  22.6444674  75.2363920
  56.1023903  21.7488050  74.9696541  56.3094711  22.7407765  76.0939741
   1.8799363  50.5917263  61.0541105   1.9018326  51.4661932  60.6654406
   2.7209816  50.5082130  61.5034533 113.2255363  41.6541433  95.3065586
 113.7903214  41.3091373  94.6150208 112.4657917  42.0055342  94.8423004
  16.9124483  81.9703965   7.0276946  17.0279287  82.4944406   6.2350577
  17.7405619  82.0629339   7.4987620  66.0522127  43.9380980  86.4794254
  65.8170748  44.1889858  87.3727322  65.8996487  44.7280121  85.9607792
  69.8672569   4.9785762  10.6116122  69.1632831   4.6037632  11.1409205
  70.6614387   4.5508581  10.9318751  55.8652962   1.2858682   1.0461349
  56.6371048   0.7623249   1.2616652  55.7782352   1.2044340   0.0963897
  16.5051817  58.5653763   2.6253623  15.6237005  58.4527438   2.9810828
  17.0657324  58.0524193   3.2074946 105.3424358   6.1657214  25.8462405
 105.8981037   5.3863382  25.8407927 105.7298946   6.7407334  25.1863408
 100.7985592  13.1341469  68.5753918 100.2214050  12.5324321  69.0455675
 101.5960407  13.1632638  69.1039801  92.4979019  14.0504467  90.4444790
  92.6964188  14.9346817  90.1363373  92.7839375  13.4786940  89.7320843
  59.7983717  72.1354060   6.3029403  59.8960184  72.8944676   6.8778533
  60.6827711  71.7772620   6.2268085   8.0185770  61.1699949   3.8725013
   7.6888346  60.6700175   3.1258220   8.2560801  62.0211934   3.5046882
 106.7220306  12.8589213  80.0647736 106.1608219  13.0997920  79.3277121
 107.6023102  13.1145513  79.7891045  10.4764138  45.3579092  92.9112816
  10.6930504  46.0757208  93.5062981   9.5210514  45.3049755  92.9376793
  46.7740130  64.8929344   0.9766311  47.3930334  64.1871117   1.1633414
  46.0568213  64.4650261   0.5089206  78.1905222  37.6321530  86.6291618
  77.9740238  38.4167385  86.1253834  78.9123201  37.9033089  87.1963596
  38.1100880 102.4160378  63.6155748  37.4807822 102.9684036  64.0793610
  38.6279904 102.0082682  64.3096447  77.9398441   2.6735798  78.9348125
  78.2397795   3.3423385  79.5504665  77.0070219   2.5740570  79.1249895
  18.9423727  31.8432026  11.0811347  19.7477030  32.0389037  10.6021995
  18.2421373  32.1680670  10.5151290  29.6216177 103.2014708   3.0583877
  29.4691156 102.7859883   2.2096557  29.3240713 102.5549464   3.6984652
  91.6852093  36.4707851  88.4626198  90.9064960  36.2950921  87.9344368
  91.3469982  36.6206765  89.3454456  11.5288805  45.2651410   1.5296477
  11.4023375  44.3842320   1.8820971  11.4302420  45.8424740   2.2867412
  64.3207073  37.5979161  80.8562469  63.8215017  36.8352914  81.1485195
  63.7248278  38.0637717  80.2696133  81.4648056  30.5699253  88.4844875
  80.8425140  29.9579597  88.0914402  80.9166241  31.2440991  88.8860035
  85.7751179  17.6847899  63.3696413  86.6085339  17.5214255  62.9280996
  85.1546097  17.1006405  62.9337835  44.8976599  83.1805348  66.4376974
  44.7862040  82.2313690  66.4914989  45.3964316  83.4079766  67.2223806
  73.1126261  18.5313118  88.6881924  72.4200916  17.9963684  89.0760803
  73.6115360  17.9205966  88.1456470 105.9631824  43.4805632  73.0397367
 106.6395187  43.9240503  72.5277519 105.2243519  43.3948040  72.4372435
  87.5835514  57.7305508  88.1095982  87.4872780  56.7819691  88.1941509
  86.7213535  58.0798435  88.3350658  74.4537067  21.7933106  68.1427860
  73.7250614  21.5020442  67.5946331  74.0358877  22.2401547  68.8789845
 106.8398094  28.5223103  82.9053783 107.5805569  28.7464595  82.3421001
 106.8491650  27.5659394  82.9441071   7.2092877  28.5252643  62.9179144
   7.3680649  29.4675970  62.9729986   6.3034211  28.4176564  63.2078457
  66.6519213   9.5369530  82.0427704  66.6148567   8.8737732  81.3535309
  65.8211517  10.0065291  81.9682503  10.4522572  31.3978362  81.8916893
  11.3558731  31.2894368  81.5951157   9.9619255  30.7275605  81.4157391
 101.4263071  84.7406678  45.5665225 100.8156742  84.6549110  44.8343963
 101.8220819  83.8732414  45.6511802  86.5832424  43.9363575  61.7945385
  86.0596943  44.3249273  61.0937166  87.3103523  44.5467377  61.9169044
  82.3431015  24.8564267  77.8365231  82.0716763  25.2652383  77.0146704
  81.9428635  23.9871788  77.8152657  88.6791992  51.7630386  85.3848457
  88.8170433  51.0805464  84.7280121  89.3317318  51.5801573  86.0608578
  78.0726898  11.0828882  18.6494464  79.0187347  11.1451393  18.5176867
  77.8973663  10.1426035  18.6862868 102.5985432  52.6639462  86.1536312
 102.9558754  52.4442959  85.2932262 102.0378208  51.9209957  86.3768864
 101.9715691  32.8465843  88.1525040 102.4107552  33.4156275  87.5204182
 101.7894268  32.0430565  87.6652718  13.9230894  92.9093628  10.0348205
  14.7872709  92.6409464   9.7227687  13.3204340  92.6192861   9.3500632
  19.1189932  57.2733329  10.2228469  18.4397482  57.5908654  10.8178538
  19.5224165  58.0681463   9.8739165   1.7962799  51.2766361  81.8557453
   2.6769696  51.6386747  81.9534969   1.3424168  51.9004440  81.2890911
  74.4830799  72.9012442  82.5253201  74.5376635  73.6185312  81.8938446
  74.9838734  72.1907187  82.1245861  96.1946392  52.1121645  92.7315331
  96.9497395  51.5256739  92.6858234  95.9506798  52.2601938  91.8178654
   1.6530762  47.3125172  57.3058605   2.4884186  46.8531370  57.3919582
   1.5683804  47.4816990  56.3675451  62.4053562   9.7330957  24.4458884
  63.1031311   9.0791898  24.4878501  62.3551452  10.0870996  25.3337974
   8.2205462  90.1398592   0.6855506   7.7229380  90.7499270   0.1410884
   8.8386320  89.7288375   0.0811881  68.5235966  17.7161413   1.0189170
  68.4236038  16.9411951   1.5718097  68.9873588  17.3991829   0.2438754
 100.0767136  57.5628042  37.4845815 100.7725239  57.4529266  36.8365002
  99.7197628  56.6827583  37.6043034 115.4871655  46.8728447  42.4074650
 114.5364857  46.8019390  42.3213768 115.6171036  47.4556780  43.1555653
  97.9983330  46.2071514  92.7940559  98.8334465  46.5090895  92.4367809
  97.3423386  46.7602825  92.3698521 109.6414280  90.9875393  92.3525429
 109.7298145  90.0346851  92.3746300 109.4243431  91.2288761  93.2530212
 110.7770443  20.5427933  82.4303055 111.4453506  20.2636790  83.0561638
 110.9984779  20.0810480  81.6216087 112.7822508 102.9008775   8.4937209
 112.6594127 103.2448058   9.3785209 112.4604000 102.0005946   8.5398787
  17.0456372  69.7818756  57.6997614  16.4346371  69.1772223  57.2786808
  16.5735207  70.1031303  58.4679651  60.1043308  33.1510549   8.5965842
  60.6300819  32.9391390   7.8252810  59.7905147  32.3038107   8.9126986
  21.2804197  90.7661800  14.9536532  21.8050360  91.4971642  14.6270579
  20.7749247  91.1382251  15.6763476  49.5982349  16.9652610  25.2159423
  50.4620254  16.8163305  25.6005401  48.9853180  16.6052776  25.8570212
  69.6339786   0.5719619   6.9650477  70.1723087   0.0084453   6.4092750
  68.7787521   0.5855900   6.5353507 106.7244720  78.0214548  94.0879822
 106.6712189  77.6614332  93.2026672 107.2917271  77.4122429  94.5605564
  93.4417439  60.0587082  73.1079245  92.6936054  59.9416733  72.5224161
  93.4279919  60.9894466  73.3310175   4.7250151 107.8708081  10.6183452
   5.3270315 108.1513219  11.3076323   5.2298807 107.2444205  10.0997180
  32.3676002  11.6381984   4.1760558  32.7020300  12.5063568   4.4011992
  31.8548143  11.3735967   4.9397773  40.1847719 105.6055169  20.5860633
  40.3073095 104.8084168  21.1016673  41.0730909 105.8955150  20.3786296
 101.3338566  50.5206919  82.0657349 100.5226707  50.8919621  81.7187786
 101.0462856  49.9039888  82.7389431  21.3232076   1.5544611  15.6799144
  21.2549532   1.6898351  14.7347945  21.3481367   2.4380212  16.0472411
  93.6538219  45.9327364  93.1684780  93.9510632  46.8362522  93.2759094
  94.2471218  45.5614567  92.5154972  96.7226696  74.8982954  88.4036064
  96.1068344  74.8271465  87.6742744  96.3601112  74.3261147  89.0799141
   4.4349455  93.6481910   1.6693801   5.1120256  94.0149026   1.1007804
   4.1134142  92.8813915   1.1951846  92.5726128  56.1979818  73.7225151
  92.7330780  55.2938414  73.9927197  92.3225880  56.1317539  72.8009224
  31.9543337  88.5200672   0.8707160  32.2697519  89.1889458   1.4784545
  32.1603083  87.6898532   1.3003081 103.7389183  34.0669298  86.1484909
 104.0805531  34.9477887  86.3021278 104.4970512  33.5647273  85.8497429
  94.1127586  25.0367403  84.9291039  93.8134384  25.6785631  85.5730724
  93.6589241  25.2780700  84.1216278  52.5501620 105.6314536  79.6768141
  53.3742129 105.1693874  79.5229578  52.4260031 105.5904605  80.6250477
  59.1615761   7.8217130   1.6033954  59.7271145   7.9824644   2.3587531
  58.3452022   8.2746034   1.8147201  98.4364319  50.1943684  93.9023876
  97.8177547  49.5014715  93.6713791  98.4931946  50.1562452  94.8571396
  99.2926884  32.4883175  79.1869307  98.7868309  33.2031775  78.8005066
  99.4589806  31.8910599  78.4576416  49.6945751   3.4551531   4.3143672
  50.1395500   3.5642296   5.1548022  50.2914608   2.9159122   3.7955398
   9.7564196  98.4881692  13.9172286   9.6017145  99.3871837  13.6272830
  10.7030748  98.4389024  14.0500754  55.8853424   9.7453695  -0.0304204
  55.0056637   9.8507791  -0.3927499  55.7504833   9.2772585   0.7935447
  71.8786335  21.3227510  93.5708523  71.3902044  21.5972519  92.7947617
  71.2412786  20.8391166  94.0963078  24.7334265  88.7045150   7.3182601
  25.5634379  88.4025006   7.6871699  24.9216246  88.8478928   6.3907641
 113.2935905  67.7003288  70.3430939 112.9530716  67.1878958  71.0763645
 114.2445087  67.6165247  70.4134655  71.1102962  80.9045601  90.3255653
  71.8684816  81.1835766  89.8122025  71.4658213  80.2798748  90.9577084
  87.6324463  72.4856377  72.4867916  86.7831516  72.7989435  72.7978945
  88.0089188  73.2340956  72.0238543  96.2594795  81.8779182  79.9826527
  96.3659286  82.6362038  80.5570126  96.4903355  82.2024536  79.1122437
   2.7697716  62.4778271  64.7275972   1.9375668  62.7704906  64.3560886
   3.4236679  63.0570412  64.3362331  33.5407232  92.6239710   4.4328517
  33.8140368  91.7722135   4.0921992  33.1496786  93.0684690   3.6806888
  92.1980190  83.3558655  70.8034801  92.5966358  82.5376129  70.5071783
  91.2858486  83.1270695  70.9819174  89.2542171  84.4061470  76.0064888
  89.6026421  85.1381683  75.4975939  89.1207886  84.7660542  76.8833542
   6.3266049  53.7877607  94.8783875   6.3954411  53.5261774  93.9601994
   6.2333928  52.9634476  95.3559303  91.9474888  65.8032084  55.6916332
  92.5206184  65.1640081  55.2683306  92.4393940  66.0945177  56.4593554
  83.4547901  71.3809824  94.3398666  83.6536121  71.1982107  93.4215546
  83.8723278  70.6672239  94.8219872  58.0674541  13.1232696  18.0095786
  57.9235733  13.9418226  18.4844417  58.8121307  12.7168899  18.4529036
  17.0853386  57.4739170  82.1636200  17.6195870  58.0475950  82.7128983
  17.0742760  56.6380739  82.6299667  97.7907658  29.7676969  93.7787151
  98.3545113  30.5373764  93.7011337  98.3334541  29.1172743  94.2244434
  22.4138807  86.8159156   3.9679641  21.9646334  87.1353369   3.1854266
  23.0761026  87.4819498   4.1526336  93.1955147  74.7889328  66.7259789
  93.4542942  74.0362787  66.1942101  92.9662991  74.4139385  67.5763178
  46.0126375  98.3232789  15.6655711  45.7192015  97.8639893  16.4524478
  46.9395422  98.5019689  15.8241767 110.8755779  51.5786982  85.9801388
 111.2510109  51.3495874  85.1299667 110.3863430  52.3849821  85.8164787
 102.7275372  36.7388701  77.4221706 102.7915287  37.4788427  78.0259752
 102.5738335  35.9814882  77.9869509 103.5325623  57.9390717  81.9710350
 102.8911877  58.0748320  81.2735748 103.5776806  58.7820005  82.4223232
 115.9286751  87.4644356   9.2585582 116.0645069  87.6600652  10.1856536
 116.2528528  86.5700679   9.1524905  96.4291763  51.8518114  82.1855164
  95.6590462  51.9499063  81.6255951  97.0571995  52.4875641  81.8425369
   8.4546624  63.9523029  79.9273872   8.7422428  64.8541641  80.0694275
   7.6407395  63.8791418  80.4257870  96.2102795  78.2429457  77.8711510
  96.6658592  79.0758181  77.7486706  95.2976418  78.4890795  78.0219889
  19.3685112  42.0924377  82.4995518  19.8939953  42.2847605  83.2761478
  18.9063893  42.9100323  82.3145580  29.0999197  91.8730478  29.7654265
  28.5224032  91.3327031  30.3046245  29.9538969  91.4449029  29.8258513
  94.1495895  35.5864716  80.1859760  94.7672081  35.7101297  80.9067249
  93.7606239  34.7271276  80.3486347  82.3254204   2.1948634  86.1912823
  81.4353848   2.5421512  86.2500381  82.8781128   2.8911132  86.5462494
  92.9162312  32.7198410  49.4063377  92.8510475  33.6642408  49.2645979
  92.2986794  32.3406053  48.7809992 109.6508408  83.2338905  84.0376568
 108.9881992  83.7900543  83.6279964 110.4850769  83.6287498  83.7839508
  85.5487442  40.1940060  85.3035545  85.9121609  41.0119963  84.9643707
  86.2645912  39.8035789  85.8049107 103.6592484  38.9192939  65.0255299
 103.1213379  39.6934080  64.8593283 103.2125568  38.2126427  64.5593309
 104.7853661  11.6080558  84.1174316 104.7611332  11.0894930  83.3132362
 105.1747131  12.4416387  83.8532734  40.0033545  59.0813358   2.6460475
  40.4017710  59.8054914   2.1632499  39.0610289  59.2168729   2.5465793
   9.6586380  32.4103785  70.7119560   9.2806015  32.0490479  69.9102306
  10.0121270  31.6501665  71.1738586  36.8760167  54.8867321  68.0130959
  37.0131836  55.3287268  67.1752071  37.3792611  55.4039669  68.6419439
  90.0021744  51.5799332  87.9903793  89.7931385  50.6458378  87.9914761
  90.2640724  51.7678213  88.8916779  22.8532753  80.1198864  67.7016258
  23.4232674  79.3527937  67.7555895  22.8006134  80.4429054  68.6011362
  90.0859070  66.5477514  80.4412365  89.3554974  67.0967913  80.7263374
  90.3936291  66.1236048  81.2422562  14.0696310  95.1466613  17.7745837
  14.3120741  96.0361962  18.0318278  13.1140112  95.1339011  17.8281230
  35.4008745  90.9550981  10.4698676  36.1638426  90.8667140  11.0411090
  35.5805372  90.3656940   9.7373694  25.4564547  92.0323973   2.6561183
  26.2085413  92.1274881   2.0716876  24.7395491  91.7628674   2.0819777
 101.8280029  42.1558428  68.6073637 102.7728367  42.2314024  68.4738874
 101.6876507  41.2304163  68.8076448 113.3496284  28.8778424  43.3988667
 113.9495182  29.5865965  43.1664228 113.9148331  28.1935787  43.7574244
 111.0374069  31.4749622  84.9149513 111.0485268  31.8999100  84.0573311
 110.1959610  31.7262077  85.2958488   8.7218165  95.9187179  24.8916263
   9.0834593  96.4748578  24.2015857   9.4674086  95.7277589  25.4607123
  33.0477976  75.1098232   6.4036197  32.4350332  75.8000855   6.1500663
  33.1175207  75.1890449   7.3549861 107.9098701  20.6272411  86.1968899
 107.5482845  19.7539449  86.3480377 107.9711914  21.0154295  87.0696926
   7.0134316  51.8424463  64.2469549   7.2135029  52.4148130  64.9876308
   6.4963017  51.1318493  64.6262360  69.3688393  76.2542343  46.6352129
  69.5449543  75.7376528  45.8488512  69.1168928  75.6079960  47.2948599
  79.0226030  20.6027246  78.9494038  78.1158018  20.3009963  78.8955164
  79.3237400  20.3042531  79.8075819  11.0920023 108.9565377  16.0652751
  11.6300749 109.6695380  15.7212562  11.7237448 108.3155303  16.3912314
  69.3680561  15.8878332   4.9911708  68.7513340  15.1645952   5.1043910
  69.6516598  16.1021143   5.8799285 106.0668850  19.5421624  88.3088398
 106.4849854  18.6921859  88.4465408 106.0650444  19.9511874  89.1742420
  10.1009058  99.0128665  40.6161040   9.8923182  98.0958228  40.4379195
  11.0548758  99.0310245  40.6925410  27.1161042  64.8277855  64.4610405
  28.0094967  64.7900724  64.8026085  27.1993409  65.2812910  63.6222076
 112.1281719  74.7811508  80.4473782 112.0733833  74.0338326  81.0429764
 111.4459133  74.6187639  79.7959375  74.8383129   2.2100216  14.5362109
  74.8658645   3.0842167  14.1472930  73.9691532   1.8762785  14.3139476
  77.7387321  15.1766544   8.4621924  76.9430721  15.5887228   8.1255073
  77.8871429  14.4313389   7.8802031 104.7562981  44.1352654  89.1824245
 104.5747852  43.2789898  89.5698261 104.9016285  44.7116375  89.9326992
 102.5107193  37.1474576  63.1649351 102.2118759  36.6476941  62.4052238
 103.4498978  36.9693327  63.2144403  98.7618435  21.2119823  22.7068156
  98.0286587  20.6057411  22.6012343  98.6665523  21.5503412  23.5971278
   1.2764798  53.2051563  64.6512699   2.0902691  53.5950041  64.9706459
   1.0604058  53.7102795  63.8674355  80.1242733  73.4881592  74.9107313
  80.8001804  73.1790066  74.3075657  80.4262924  74.3539000  75.1855326
  61.9347179  14.6868425   1.8182582  61.1331165  15.2067285   1.7600745
  62.4822986  15.0100761   1.1027831  77.4922228  62.1105099  50.7849836
  77.0819426  61.9725513  51.6387224  78.3949614  61.8147278  50.9024763
  88.6646175  48.0297422  90.3798008  87.7916718  48.2817221  90.0786209
  88.6072350  47.0840311  90.5160904  11.8445086  96.4275031  14.1871852
  11.9111704  96.5012794  15.1392001  12.7521299  96.4232354  13.8831443
   8.7133561  99.7370911  83.7139606   9.3952904  99.9602890  83.0804157
   7.9114495  99.6840763  83.1939983  86.4415550  38.3902335  93.0742073
  86.8300056  38.2585692  93.9390755  86.3350296  39.3386960  93.0013561
 111.9761753  55.8841991  87.5149441 111.3325310  56.1833858  88.1571579
 112.3515511  55.0935459  87.9025078 100.6512547  36.2782168  85.5094051
  99.7400188  36.0336447  85.3479290 100.9206295  36.7372322  84.7138119
 106.3117218  99.8945713  78.4963751 106.0355186  99.8433113  79.4114208
 106.0397053 100.7673359  78.2126045  70.8584499  74.7589254  64.6568680
  71.0083771  73.8686943  64.9750662  71.0694122  75.3189945  65.4038906
   7.6484833  45.4683685  65.1136971   7.6720772  45.4703617  64.1567898
   6.8465386  45.9420395  65.3344965 114.0415920  91.3347011   2.9953402
 114.4218744  91.8008738   2.2508258 114.4857801  91.7014699   3.7598056
  95.2658844  68.1371641  90.1023579  95.4342651  67.2668552  90.4635334
  95.2121353  67.9978228  89.1568851  96.9107723  52.3635244  87.3415947
  96.6270065  51.6827202  86.7315006  97.5203037  52.9002142  86.8349743
  62.8597342 102.9370140  86.6327953  63.4687601 103.6707877  86.7158222
  62.6274668 102.9224085  85.7043171  84.5683969  92.9750686  48.2704753
  84.9723448  92.3986297  47.6218051  85.2683462  93.5760026  48.5257739
  73.0321680 108.8988485  84.6598434  72.1767508 109.1693421  84.3262005
  73.1751334 109.4513023  85.4283428  99.1224670  20.3463817  92.6328468
  98.6320782  21.1678696  92.6027775  99.2213535  20.0927496  91.7151737
 110.8476257  30.8482146  92.4543095 110.6097412  30.1156449  91.8860054
 110.0239754  31.3122153  92.6043892  61.0232340 107.6677010  59.1887045
  60.5265127 107.5632369  58.3771658  60.3688418 107.9233132  59.8388338
 108.0299473  57.3243999  69.0096855 108.0769539  56.9697857  69.8975277
 108.7736607  56.9296217  68.5544109  80.4583073  56.4946890  53.2396412
  81.2332630  57.0358515  53.0885887  79.7674847  57.1208096  53.4563637
  91.1771965  46.6400480  60.2031565  91.2291336  45.9781599  59.5136404
  91.0441017  47.4640608  59.7346306  84.9113941  21.3947368  89.2592430
  85.5008698  21.6324735  88.5435390  85.4628372  20.9085894  89.8722649
  88.0634117  51.4354467  90.3710365  87.2280502  51.4943504  89.9074268
  88.1759167  50.5007648  90.5440807  13.0952810  91.3987498   0.1805133
  13.2685446  91.6773062  -0.7187158  12.5724577  92.1080236   0.5544394
  85.8631992  37.1241689  51.7561293  86.4400196  36.3880420  51.9601393
  86.3665867  37.6602411  51.1433792 105.5224419  58.6640549  68.2895565
 105.6275845  58.5162306  67.3497009 106.2481213  58.1852245  68.6899805
   9.5458279  25.4215741  41.0772943   9.5211659  25.7238984  40.1694250
  10.0632153  24.6167898  41.0477638  14.0496502  77.4851799  74.9448252
  13.8180695  78.0227184  75.7022285  14.3188343  76.6465521  75.3196192
  89.4140911  68.0085373  82.7980995  88.9499283  68.8454103  82.8187180
  90.3398991  68.2468939  82.8460789 112.0752716  62.5586557  73.2952309
 112.2760487  63.2222557  73.9551973 111.3305092  62.9179859  72.8131104
  70.6779718  76.7020035  87.8039360  70.2300692  76.4492226  86.9966507
  70.3315401  77.5706291  88.0081558 112.2800732  40.8852768  90.8167362
 111.5490437  40.7316685  90.2182102 112.4058247  40.0469732  91.2613297
 109.1244125  52.0478153  92.9895592 109.0876293  52.3969030  92.0990467
 108.3320618  52.3813534  93.4104824  35.5946217  36.6449976  62.0540524
  36.2152825  36.5731859  61.3288975  36.1439286  36.6753125  62.8373623
 108.9224052  60.5657101  73.6361217 108.3395004  61.1523438  74.1181040
 109.3141556  60.0103617  74.3101740  68.5192394  87.3105907  45.0465584
  68.9581633  88.1261539  45.2882814  68.5421801  87.3007488  44.0896845
  89.4642544  56.1888123  82.1849632  90.3996468  56.0893631  82.3620796
  89.0432835  55.5409861  82.7500629  68.0460155  32.0060449   7.7522201
  68.7960518  32.4535661   8.1438846  67.2903621  32.3329454   8.2404250
   0.6944523  53.8297176  45.1913595   0.8134423  54.6157789  45.7244444
   0.4193268  53.1571674  45.8144283  16.0988198  48.4738302  80.9449959
  15.2716313  48.7665796  80.5625153  15.9837208  48.5966015  81.8872833
   6.3324890  62.8691483  95.2830410   6.3104687  63.8003778  95.0626755
   5.9230004  62.4360371  94.5340633 102.6328278  76.7571783  90.5360317
 102.5933075  76.5851688  91.4768219 102.2714329  75.9678364  90.1328468
  93.4783077  47.2665310  84.8407269  93.5263538  48.1738949  84.5396996
  94.1942787  46.8245506  84.3843651  15.7441864  70.4866743  44.9056244
  16.2045441  71.0116243  45.5603981  15.4346714  69.7199202  45.3878307
 105.2462864  60.0598192  48.0322504 105.2053261  60.3662300  47.1263456
 104.4456291  60.3957510  48.4351540  98.1300449  52.6550150  50.1352978
  98.6753464  53.2263613  49.5945120  97.3894787  53.2041550  50.3926563
 103.1942642   6.8243271  32.6271552 102.9594410   5.8996349  32.7048320
 102.5056255   7.2872263  33.1043738  21.1795102  45.0825024  86.5847492
  21.7594014  45.8406687  86.6564655  20.3116188  45.4579639  86.4363480
 105.6852245  57.0228004  80.6785297 106.2181377  56.5660906  81.3294029
 104.9165249  57.3208714  81.1648273  13.6201643 100.0047736   9.9869460
  14.5598482  99.9821143   9.8061007  13.5469793  99.7489743  10.9064311
  87.6852989  98.0226612  67.5161028  88.4652233  97.5524521  67.8108072
  88.0118465  98.6439419  66.8652534   3.5493527  52.3061752  91.6336250
   3.4757767  51.3594246  91.7539978   4.3934880  52.5323772  92.0241356
 112.7362823  18.9349329  62.7984047 112.4947929  19.7912753  62.4454308
 111.9560909  18.6410296  63.2686710  90.5736625  37.9767709   1.5591830
  90.7993877  38.6324411   2.2190207  89.6275318  38.0671507   1.4455909
  84.2448139  69.5462132  85.9596634  83.8560200  68.6719131  85.9855938
  85.0156784  69.4823599  86.5235138  40.9736717  15.3749090   3.4517497
  41.2296188  16.1735540   2.9903525  40.3720224  14.9340730   2.8518218
 109.6842384  61.7584562  86.4573669 108.8479710  61.7116404  85.9940052
 109.6847916  60.9904909  87.0287323   2.5890707 103.0334573  34.9179000
   2.3091673 103.1655412  34.0121192   3.4016108 103.5338454  34.9928874
  42.9492830 103.3504634  14.8443145  43.2337164 103.9438109  15.5394858
  42.1213125 103.7201982  14.5377177  74.5968580  80.0109673  84.1158867
  75.3544903  79.8575401  84.6804047  74.1145229  79.1843414  84.1324425
   5.7787285  56.3949203  31.2864113   5.2426777  56.6651535  30.5408573
   6.5934048  56.8874454  31.1866784   1.3954220  37.9886341  72.5731897
   0.6470261  38.3961678  73.0091381   1.4717541  38.4560657  71.7413759
  21.7494164  71.0202265  93.3217525  20.8080922  71.1824131  93.3837223
  21.8720494  70.1627874  93.7291622  47.9511154  27.1793657   4.8577327
  47.4291408  26.9804197   5.6350249  48.6329925  27.7727991   5.1725596
  34.5746779   3.9843894  50.7670164  35.0820803   4.3153716  50.0259113
  33.7514757   3.6866713  50.3798008  72.5297916  33.7697225  15.4801291
  72.1839702  34.2198091  16.2508792  72.0941437  34.1927343  14.7401923
  68.8798988  12.3368650  28.3401698  68.3239067  13.0427509  28.0102653
  68.3956611  11.9782596  29.0839023   7.7709841 102.4055533   6.4241714
   8.1198763 102.7903657   7.2281760   7.8785585 101.4619880   6.5439528
  86.6225147  52.6417542  87.0561695  87.4859333  52.5273752  86.6591167
  86.5350246  51.9014406  87.6565933  75.5213785  74.2972517  87.4288654
  75.3357363  74.5162153  86.5157223  76.2577152  73.6873055  87.3839760
  37.8493094  79.8310261   2.0005149  37.1833109  79.7435741   2.6824492
  38.3657717  79.0277533   2.0656985  68.9669407  29.3978029  28.3429927
  68.7961471  28.9384943  27.5207442  69.3575657  30.2298551  28.0758876
  10.1489424  79.2875557  12.5829143   9.2605661  79.5582061  12.8147811
  10.0920366  79.0456300  11.6585368  54.2479885  12.3279291   1.3762301
  54.2101944  11.9733244   2.2645110  53.7129104  11.7284685   0.8560676
  98.4150696  59.2468882  76.7507029  98.5356426  58.6824989  75.9870529
  98.5232639  58.6617517  77.5004625  40.0986278  10.0490337  22.5523395
  39.4714439  10.6811958  22.9034060  40.9556568  10.4228883  22.7571887
   3.7125931  54.6689749  64.6021748   4.4679127  54.1266251  64.8292923
   3.9627228  55.0971842  63.7834549  93.2129765  67.2747612  75.1019669
  92.7040291  67.5749254  74.3489027  92.9899120  66.3478708  75.1877069
 104.7456741  62.0118189  92.2275257 105.5949306  62.2475052  91.8541050
 104.6492290  62.5879908  92.9857922 103.4295940  57.0565081  77.3473310
 102.8733826  56.3380575  77.6484680 102.9495239  57.8485727  77.5889969
  21.8992985  27.1709829   9.0788955  20.9966171  26.8692499   8.9771384
  22.4209774  26.3684564   9.0838546 104.6764469  60.9211254  41.1965990
 104.9549580  60.0545073  40.9005690 104.6543884  61.4508200  40.3996277
 101.7558956  57.4131346  61.0661554 102.6975632  57.2925425  60.9438992
 101.5732002  57.0216894  61.9203329  16.0441838  46.3722277  30.2595425
  15.7711277  46.1817122  31.1569691  16.7844162  45.7854366  30.1047397
   7.1185837  19.8803246  94.1486740   7.3097573  20.7492423  94.5017624
   6.9580994  19.3379867  94.9209118  86.0608196  59.0370655  79.4436502
  86.8185139  58.4523392  79.4587612  85.4361820  58.6353540  80.0475407
  97.4394321  87.8239155  89.9586582  96.7231750  88.1682777  90.4921532
  97.7311230  88.5720348  89.4376373 112.5377846  43.5131979  90.4799366
 113.2086658  43.8858986  91.0519981 112.6243591  42.5668001  90.5942345
  50.3537357   3.3935314   0.5216140  50.5869663   2.5022035   0.7811660
  49.4229400   3.4684330   0.7319564  29.5296727  40.3900433  91.3672066
  29.8018132  41.2909317  91.1923599  29.5075283  40.3275871  92.3221111
  74.8920298  69.7917414  30.2937603  74.8054981  70.3631163  31.0568309
  74.0018940  69.4841290  30.1227045 108.3363914  60.0265312  63.9261246
 109.2185593  59.7035789  63.7425137 107.9680634  60.2203655  63.0641556
  39.8437939  52.0475149  65.8865213  39.2762909  51.6597891  66.5527344
  40.4279671  52.6260328  66.3767099  93.8054943  50.5060101  59.8572111
  94.2102909  50.0594091  60.6007957  93.4209442  49.8017836  59.3352747
 109.9167728  75.2912664  62.1083784 109.6938324  74.9072218  61.2604141
 109.0770912  75.3802109  62.5592232 100.5639553  88.5660934  41.3393688
 101.0328960  88.5851669  40.5051279  99.8041439  89.1313362  41.2000084
  81.5666962  71.4634943  72.7959728  81.3064861  70.9563446  72.0269966
  82.4198151  71.1055279  73.0415154  99.0740395  69.5162773  89.4904518
  98.8922596  68.6532879  89.8625278  99.3490410  70.0464916  90.2384377
  12.9473172  91.1409187  87.2869205  12.7224408  90.2539158  87.5677776
  12.7663575  91.1476612  86.3470078  92.3282242  64.1422129  77.7321815
  92.0928860  65.0396156  77.9678011  92.9258633  64.2381573  76.9906569
 114.0554619  57.5761557  37.6952457 114.6300793  56.8146515  37.7737141
 114.6410847  58.3281803  37.7831626  91.4081192  62.6555252  43.5462523
  92.3561287  62.5275517  43.5124969  91.2780285  63.2997179  44.2421913
  91.6316223  56.4111090  65.6658506  92.2245693  56.5808630  64.9338531
  91.8970966  55.5523539  65.9949398  87.9637718  26.3710856  85.4406643
  87.3724079  27.0741272  85.1718712  88.6084461  26.3175130  84.7351360
  13.8370381  87.7099323  85.9574795  13.4067021  86.8549442  85.9514904
  14.7354851  87.5239468  86.2303162  83.3776844   8.7588125   6.8974704
  84.0522945   9.3953424   6.6609115  83.0559623   8.4279590   6.0588664
  88.3589268  85.8703518  67.2912264  88.9463425  86.5109253  66.8901920
  88.7808037  85.6445885  68.1202507  67.2880543   4.9425607   9.2041511
  66.6970814   5.6696134   9.0082664  67.5453747   5.0819307  10.1155204
 104.3347931  79.1018105  92.7790642 104.5809174  80.0181580  92.6527786
 104.7076988  78.6473513  92.0236588  91.1736488  75.1655626  93.8704395
  92.0648098  74.9036264  93.6392212  91.2739182  75.6685543  94.6786308
  84.3401051  65.6275940  63.8749695  83.4124470  65.4013777  63.8078022
  84.6830654  65.0358200  64.5446014  96.1492062  59.0276480  86.8674278
  96.3251495  58.0868769  86.8525410  96.7084026  59.3868208  86.1785698
   7.5046883  67.5250387  83.8310432   7.7452526  66.5997458  83.8778591
   7.2825966  67.7606392  84.7318172  23.3217466  17.3622375  11.6697234
  22.7182806  16.8086582  12.1653193  24.1777456  16.9511896  11.7903060
  97.1786118  85.9617996  88.2246017  97.1936131  86.5957069  88.9416599
  98.0556965  85.5784512  88.2254219  29.2840469  38.2567411  10.2774447
  29.6348799  37.5121504  10.7660502  28.4630049  37.9340368   9.9059886
  26.4911532 105.7969003  20.5997676  25.6008123 106.1472945  20.5722636
  26.3737558 104.8482566  20.6500262  79.4665432  64.6619987  71.4274931
  78.7754488  64.7184372  72.0873690  79.8883009  63.8189840  71.5938759
   5.0591145  86.8767929  75.3986692   5.3348408  86.0526466  75.7999134
   5.5151043  86.8979073  74.5573235 100.3032303  46.0770178  59.5686388
 100.2456284  46.4425945  58.6858797  99.6035671  46.5133953  60.0547171
  21.3838743  98.1235700  21.1369246  20.9473490  98.1983380  21.9855041
  21.0243200  97.3242240  20.7522220  99.2286205  67.0019197  90.0896454
  98.6983395  66.6411400  90.8001900  99.4944668  66.2381411  89.5775890
  96.4186001  91.1719704  73.1243992  96.2087250  91.2043953  74.0577459
  96.8474960  92.0089340  72.9461288 112.8731823  61.6468477  86.1926651
 113.2199955  61.3119793  85.3657341 111.9272423  61.5165854  86.1259365
   6.3164292  40.2339125  44.2411804   5.4749451  40.3171110  44.6897411
   6.9675408  40.2955961  44.9400949  84.1570377  81.7032814  67.9523802
  84.8405552  82.3431015  68.1515503  83.7668133  81.4974117  68.8018370
   9.3651066  68.1389713  53.6782598   8.6095581  67.6534939  54.0094614
   9.3077145  68.0514288  52.7268028   1.2050305  65.8773994  53.3002186
   1.9507275  66.2244320  53.7898445   1.2793122  64.9275208  53.3920956
  89.6355724  77.8121376  93.8737679  88.9121723  77.7833319  93.2476044
  89.8637009  76.8938684  94.0186024  99.7166157  38.9914393  85.1192188
 100.6514263  38.9115357  84.9295807  99.6808529  39.2714715  86.0338497
  11.3689289  56.1870337  61.1302567  11.6552029  55.2931166  61.3178635
  11.8627797  56.4378166  60.3495836 115.0075245  39.5096421  74.4967890
 114.3852520  39.2706776  75.1837444 114.5077991  39.4336152  73.6839342
  24.1831169  31.3613605  56.0907936  24.7782193  31.5582085  55.3673697
  23.5541020  30.7414699  55.7215929 111.8655109  50.9668827  64.8052263
 111.7944241  50.0421476  65.0419521 111.2845421  51.4165449  65.4188299
  72.2104406  84.6634293  69.7685623  73.0213213  85.1609230  69.6626949
  71.5152550  85.3016472  69.6084738  48.2219099  98.5567527   2.8614539
  47.3141073  98.8250213   2.7195090  48.7275480  99.3642096   2.7688331
  81.4627254  23.9785820   4.4509334  82.0292366  23.3978992   4.9589747
  80.9412372  24.4395452   5.1080436  16.9397199  22.8788620  18.6007041
  16.0985315  22.9340702  19.0541190  17.1907461  23.7901550  18.4498233
 110.7976246  42.0954847  84.3284130 110.4598427  42.3618412  85.1835155
 111.6791344  42.4668312  84.2928410  23.5725842  46.1382055  15.8999658
  24.0685616  45.4554033  16.3516510  22.6693592  45.8213758  15.9052491
  27.1520113  94.2631750   7.7083034  27.7343248  94.0485744   6.9795531
  27.1747374  95.2187257   7.7596778  83.4246349  24.6659613  87.9637051
  83.5455608  23.9172459  87.3797226  84.0220070  25.3328061  87.6250267
  95.7569027 100.3174400  64.6542025  95.6608677 100.0793839  65.5763388
  95.3181553  99.6125412  64.1779184  66.9065714  52.5814199  44.6547461
  67.3464298  52.5837564  43.8045979  67.0005941  51.6827345  44.9705935
  64.6845341  75.0899601  93.5953808  65.4684019  74.6037674  93.3396530
  65.0127506  75.8015537  94.1450500  19.7734890  38.3256149  59.6483803
  19.3684349  39.1366768  59.9555397  19.4269905  38.2047105  58.7643242
  90.1830864  60.8798742  67.2950363  90.6522942  60.1430988  67.6864958
  90.3287220  60.7837296  66.3538742   0.9788094  48.3611298  74.1602325
   1.6331444  49.0052652  74.4307327   0.2876530  48.8800716  73.7488604
  14.3379937  57.0922232  88.8900757  14.7507916  56.9174814  89.7358227
  13.3990727  57.0233011  89.0630245   1.6795311  68.2688379  84.5164776
   2.3088894  67.5623226  84.3716431   0.9941349  68.1161451  83.8659859
  43.6771477   6.1711937   5.8097381  43.6998451   6.0611015   6.7603129
  43.7592590   7.1154361   5.6759471  79.0929651  68.8018608  64.1134071
  78.2490730  68.6827850  64.5491791  79.0170050  69.6474075  63.6712456
 103.8786125  27.3262358  77.5848341 103.6560154  28.1941271  77.2480106
 104.7306252  27.4436498  78.0049658  94.5559692  54.7738552  70.9269857
  94.1097736  54.1677046  71.5183640  93.8516045  55.1702499  70.4141712
  29.6446190  39.1323709  74.1053724  30.1743088  38.3351874  74.1182613
  29.6667920  39.4492865  75.0083160  35.5005062  11.7484146   3.2382125
  34.7507942  12.3145538   3.0547732  35.8716047  12.0974546   4.0485782
  39.9245584   9.9880796   8.2839602  39.2503774  10.3446537   8.8623733
  39.6310413   9.0968233   8.0949134  36.4504898  11.9115835  19.8003406
  36.2493599  11.5636116  20.6690711  35.6030214  12.1863514  19.4502849
  17.6259385  29.9814463  94.6720695  17.6751194  29.5545554  95.5273914
  17.1762143  29.3474555  94.1134644 109.6015358  89.6848869  79.8674774
 109.7740078  90.5999184  79.6456623 110.4698563  89.2969227  79.9757862
  58.8464535  35.0669008   4.2863864  58.0422485  35.1985555   4.7885341
  58.6973274  35.5390459   3.4672088  73.0195904  62.0636272  78.9486742
  72.6629829  62.9515648  78.9738464  73.9344835  62.1801281  78.6924934
  11.2240754  65.2789593  32.1027684  12.0875035  65.4581118  31.7304444
  10.7981358  66.1352301  32.1427774  19.6777020  58.5070896  36.9694638
  20.2043209  58.5852003  36.1739683  18.8577710  58.9537764  36.7587352
  21.3525175 107.5670390  13.0621451  21.7556738 106.7397361  12.7989596
  21.9096350 108.2400470  12.6711101  46.8169842  78.6382151  67.0757723
  47.4102841  78.9594221  66.3967705  46.9179211  79.2605400  67.7960157
  39.2794489  77.5759463  16.0309714  39.6683764  76.7051725  16.1129493
  39.9920153  78.1777530  16.2461680  91.1397076  82.1607494  85.2485561
  90.2432442  81.9135380  85.0216961  91.2673092  81.8148041  86.1318874
  28.7927698  79.3183308   1.0160178  29.1502451  79.9169044   1.6718787
  29.5602678  78.8813333   0.6469554   5.2599202 103.4634399  77.6389170
   4.3683682 103.6997890  77.3829699   5.7009945 104.3023300  77.7729082
  35.8683431  28.1144338  10.1698321  35.7264316  27.1753793  10.0503558
  36.7458427  28.2703882   9.8206824 113.2810402  56.9014931  83.6125660
 112.4167538  56.4908743  83.6376286 113.3425522  57.3807812  84.4388390
  18.5517750  53.5415649  71.4162159  18.8371811  53.5367870  72.3298597
  19.1714440  52.9653978  70.9686947  40.2071165   6.3797522  75.9413004
  39.8012137   5.9201289  75.2063036  41.1129355   6.5197993  75.6654024
  99.2778301  59.2492294  91.1755085  98.8815308  59.7168732  90.4403305
  98.6334610  58.5813236  91.4098549  23.5854683  55.8063650  55.8267736
  23.8748989  56.4248943  55.1560402  22.9727612  56.3067818  56.3656616
 102.9658318  31.1151481  69.8120737 102.3555088  31.3497472  70.5111361
 103.2505989  30.2277803  70.0305223   6.2358342  61.8282890  79.9908495
   6.9246731  61.2395954  79.6823549   5.9584389  62.3035574  79.2076492
  90.1507759  84.6305370  88.0397320  90.9228420  84.2482853  88.4569073
  89.5635891  83.8882542  87.8967476  60.5118454  11.1249452  13.1502456
  60.5461872  11.9092708  13.6978644  61.0167873  10.4720646  13.6350173
  40.4950499  89.4544320  24.6781081  40.0953745  89.8226576  25.4660815
  39.7655558  89.3455629  24.0680140  83.2088566  42.8279924  58.9244080
  83.1758690  41.8924713  59.1242599  82.4664974  43.2008123  59.3999434
  11.4039479  47.3009300  71.7046881  10.5954705  47.6356459  71.3166666
  11.1515007  47.0291662  72.5870991   1.7306099  81.4900970  66.5328312
   1.3804875  80.8808517  67.1828127   2.5272618  81.0669708  66.2126207
  42.9940403  30.7583051  10.1740092  42.7448643  30.4900270  11.0584086
  43.9465034  30.8464056  10.2098578  74.3307865   2.2856479  18.0499667
  74.7397983   1.9537931  18.8492221  75.0539577   2.3717933  17.4288100
   8.0734883  60.3445053  48.7634706   7.7499638  61.2173367  48.9864540
   8.3997116  60.4315805  47.8677988  94.5920467  56.9766808  76.4888525
  95.2787399  56.5691280  77.0166588  94.4659710  57.8391314  76.8844748
 100.0896931  30.0269413  65.0524616  99.9656200  30.9152484  65.3867483
  99.8434544  29.4595504  65.7829857 105.6387901  88.0369377  51.7903709
 105.8250237  87.2459316  52.2961903 104.8012924  87.8565502  51.3634062
  32.8274498  72.8105450  82.8728485  32.5802670  72.3156309  82.0916939
  33.7712441  72.9429817  82.7837753  16.4504204  27.1520615  57.5018978
  16.3767872  26.3157392  57.9616547  17.3918972  27.2786999  57.3843861
  24.8778401  68.9247370  73.2337284  25.3441677  68.1254721  72.9888964
  25.3621254  69.6270895  72.7996874  64.8299932  76.3147593  38.4716821
  65.5498934  76.9291210  38.6149859  64.5553827  76.4740086  37.5686526
  87.4884987  55.3796864  92.5345421  88.1682491  55.7699728  91.9851398
  87.1906185  56.0975647  93.0932426  87.8058803  28.0640989   5.4746551
  88.6707771  28.2895761   5.1320952  87.9791439  27.4073702   6.1491317
  99.1659164  25.9483671  61.0436726  99.4285679  26.7428613  61.5084553
  98.2166100  26.0281706  60.9504557 102.6505280  47.8762007  53.4149599
 102.0683193  47.3592138  52.8581905 103.5178089  47.4973965  53.2715559
  70.2672565  12.9779583  56.0491675  69.3714607  13.2015281  55.7965678
  70.6479442  13.8066011  56.3401336 107.8159237  33.6932969  73.9070559
 107.9843998  34.4891691  73.4026480 106.8618679  33.6175108  73.9233208
  53.1818092  14.9651724   1.3232345  53.3899391  15.3724533   2.1640891
  53.7552250  14.1999965   1.2792796  15.9735833  36.0012603  58.4244585
  15.1466141  36.1214566  57.9576445  15.8425675  36.4456129  59.2620850
 102.2464371  62.4061489  88.3531666 102.2985744  63.3619070  88.3593273
 102.3924160  62.1524382  89.2645073  50.0089920  24.0079218  71.9101638
  50.4938495  23.8609033  72.7222747  50.0722492  24.9512916  71.7608756
  77.9174519  68.7601423  71.5074110  77.9070091  67.8762388  71.1402130
  77.0334387  68.8868332  71.8519402  72.6732969  58.4028482  64.6456575
  72.4026060  58.1262064  63.7701988  73.1351614  57.6449871  65.0042057
  89.5170295   8.3256965  13.2073230  88.7380111   8.8721758  13.3108443
  89.6542061   8.2809644  12.2610587 111.2979126  68.4740734  82.3036957
 110.4075336  68.1294250  82.3720455 111.2734318  69.2987680  82.7889824
  29.7541581  94.0330219  93.1091404  29.5195160  94.8483658  93.5522938
  30.2728711  93.5510349  93.7532330   0.6964264  74.0114784  56.6276169
   0.0078640  73.3557558  56.5174150   1.1489163  74.0276909  55.7842827
  41.2588203  27.2233396   4.3067378  40.3734625  26.8626981   4.2585963
  41.3254822  27.7972322   3.5435599 106.3064861  33.7203598  91.3942146
 105.9768391  34.4186640  91.9598389 106.7957401  34.1772199  90.7100010
  24.7433720  24.7948766  60.2181149  25.4706536  24.1738915  60.1772022
  24.1667710  24.5361280  59.4992161  26.9106541  78.2951403  70.0397015
  26.9202576  77.8348875  69.2004728  26.2754021  77.8136683  70.5696678
  28.9955401  87.8600268  31.6663569  28.9128756  87.1494369  32.3023242
  29.1608690  88.6389070  32.1976203   1.4213143  76.1321306  47.3538780
   0.9600697  75.8831835  48.1548214   2.2918377  76.3967323  47.6511955
 110.3186989  41.6458273  48.9537477 109.6061134  41.7957449  49.5750189
 111.1122131  41.8657351  49.4418144  64.9997986   9.0373521   4.4752330
  64.6366585   9.8911815   4.7104663  65.5075443   8.7733989   5.2425403
  48.6167597 101.9890170   6.2491626  49.1973375 102.0155530   7.0097274
  48.0361246 101.2467389   6.4168471 113.5222626  32.9884887  81.1301708
 112.5697613  33.0807662  81.1514664 113.8329887  33.5468984  81.8428135
  47.5161064  12.2404724   1.8739432  47.9774654  12.0792728   2.6969832
  48.2104194  12.2987943   1.2176150  97.6217461  69.4297457  84.9443436
  97.5146770  70.3241825  85.2680016  98.2720566  69.0398693  85.5285835
 108.6528397  17.3398638  73.4417915 109.3608284  17.7802217  72.9716063
 108.9075470  16.4172006  73.4487820  98.7045826 109.0871434  22.0999545
  98.8310112 109.5585303  22.9233855  99.5914997 108.9189010  21.7816752
  88.7118149  49.9469900  69.6317530  89.1084385  50.7101107  70.0519609
  89.3104172  49.2266607  69.8293161  20.3464566  94.0831661  58.9801025
  19.4637261  94.2013454  58.6292934  20.9198437  94.1634750  58.2178640
  62.4202907   2.4795824  11.7904872  61.6383636   2.9991060  11.6036529
  62.1212948   1.5714794  11.7438334  79.8929930  63.5269690  44.9124432
  79.6696901  63.2876062  44.0129566  80.6366825  62.9657698  45.1320362
  53.3418358  57.8419882  18.1936568  53.3843410  56.9125181  18.4183902
  54.1409099  58.0039316  17.6921576  99.8610223   1.2092066  57.8810215
  99.1291107   0.6922675  57.5444031  99.4472564   1.9494200  58.3250093
  96.0949707  63.8833427  62.1685505  96.0270596  62.9740715  62.4598312
  96.4202118  63.8234425  61.2702942 111.4767647  53.3994341  74.8390436
 111.0887432  54.2393780  75.0843191 111.8078041  53.5385180  73.9517450
  63.4087074  10.4888826   8.3287639  62.9139126  11.2596851   8.0507964
  63.7520492  10.7228332   9.1911048  77.3077631  68.6633205  48.5425997
  77.3378706  68.4691525  47.6057816  76.8454218  69.4995499  48.5991430
 104.5003319  81.1617661  40.9318018 104.5259476  80.3840446  40.3743792
 104.1977596  81.8614864  40.3529406  32.5223898  87.2152333  14.4039077
  32.6905321  88.0474787  13.9619559  32.7272390  87.3865085  15.3231067
  49.4822586  14.0620714  42.1988410  50.3291118  14.5014482  42.2765082
  48.9709461  14.3954569  42.9361552 103.9261436 107.7721405  77.6586342
 103.1993103 107.4953556  78.2166147 103.5179901 108.3189964  76.9873714
  89.8316479  77.0212936  85.5041409  89.1439438  76.6737556  84.9362469
  89.5726013  76.7530394  86.3857079  76.2103653  80.7792664  79.5241308
  76.0139894  80.4136658  78.6615753  75.7417822  81.6137218  79.5429182
  56.4729107   3.0024963   6.4939708  56.2572372   3.4342771   5.6673640
  57.1806228   3.5310512   6.8627662 104.6849537  78.5304260  26.9386554
 104.9863148  77.9050398  26.2796330 105.4819489  78.8000965  27.3950720
  10.9085617  69.0991974  57.1144247  10.3275071  68.3401823  57.1644354
  11.7453728  68.7830877  57.4550962 110.7981873  80.2912235  65.4394579
 110.3286362  81.0398960  65.8072233 110.4330540  80.1876640  64.5607185
  82.4782658  61.7714453  64.5522881  82.1785831  60.8656645  64.4749260
  82.5301933  61.9268274  65.4953623  96.1826038  62.8897619  66.4578199
  95.8689308  63.4780121  67.1447039  95.6369495  63.0954170  65.6987476
   1.8727360  79.3756533  68.4901524   1.2012062  78.6937141  68.4743071
   2.6701699  78.9203072  68.7603188 107.5844193  56.1046886  88.3697796
 106.9856167  56.5152979  88.9935398 107.5453377  55.1714611  88.5790539
 114.8159695  97.4478531  71.8165064 114.9728489  96.5981579  72.2283745
 114.0098381  97.7658749  72.2230101  12.2682438  64.6294165  48.6688280
  11.6027508  65.2355289  48.3432817  13.0603848  64.8602962  48.1836081
  92.1244049  62.8075933  59.4805431  93.0725384  62.7657413  59.3558979
  91.7695045  62.8832817  58.5947943  21.1299668 105.6678581  33.6084294
  21.1481343 105.3129768  34.4972277  22.0042572 106.0355854  33.4794426
  13.9818344  77.7259588  66.6263723  14.1443024  77.1931219  65.8479643
  14.8544751  77.9519224  66.9483519   5.8322201  57.9937029  54.8592997
   5.6267224  57.0949984  54.6017408   6.4224778  57.8995657  55.6069422
  81.1727524  87.4639988  33.1560135  81.1255550  86.5404415  32.9089475
  82.0012856  87.7688503  32.7861118  88.7647438  72.8168774  76.9897366
  88.4270668  72.0021868  76.6176081  89.6625614  72.6082516  77.2478580
 110.2704239  70.0161743  52.2882175 109.4668674  69.8517132  51.7947769
 109.9914169  70.0263691  53.2037926 110.0903797  80.6671238  75.0275135
 110.6344128  79.9936104  74.6192980 110.6371784  81.0254192  75.7267046
 110.2835083  74.1596508  83.2363129 111.0058212  73.5406208  83.1300163
 110.3114605  74.4037485  84.1614437   9.8229752  37.0671105  79.0170717
  10.0636921  37.8711605  78.5568666   9.5702134  36.4597058  78.3218002
  86.0398281   1.8795162   4.9339980  86.4257038   2.7351719   5.1215857
  85.4045856   1.7439228   5.6370849 113.4275150  71.5302896  48.2646418
 112.8914642  72.2521257  47.9362583 113.9242268  71.2344933  47.5017500
  60.1231373  39.8155695   7.9907817  59.3267334  39.2855459   8.0229587
  59.8836506  40.6343275   8.4249705  94.0240371   3.3525949  11.3538379
  94.4611824   3.2628637  12.2006434  94.4886959   2.7445846  10.7788104
  18.2971726  63.2946634  81.9436264  18.1138001  63.3680868  82.8802299
  17.8265152  62.5079346  81.6683674  28.3961640 100.4728413  83.9492512
  29.2935715 100.3354454  83.6459160  28.1674633 101.3467312  83.6326218
 101.0617161  83.2857418  77.5525618 100.8511353  82.4159622  77.8922272
 100.9150124  83.2164478  76.6092110  82.9759502  63.1207514  87.3961544
  82.9367256  63.4969282  86.5168476  82.0758152  63.1697607  87.7180004
  21.1507486   2.1713401  52.8317976  21.8442511   1.5227938  52.9528999
  20.6407618   1.8413687  52.0920229  79.0791988  95.9835720  68.2153988
  78.1716204  95.6872082  68.2839823  79.0345430  96.7670822  67.6673603
 109.4372845  40.5080462  58.6052465 109.5102310  40.1151419  57.7354527
 109.6274185  39.7900963  59.2090893 103.7306786  68.9902258  57.5137138
 103.3396816  69.7849131  57.8767920 104.6428967  69.2270374  57.3463106
   5.7251416  80.4451847  92.1346378   6.2784157  79.6739244  92.2582626
   4.9882088  80.3092575  92.7301979  16.8948517  79.4398355  44.8955297
  16.5469323  80.0566196  45.5395460  16.3649330  79.5871830  44.1121387
  47.8378093  34.6366983  37.6058024  47.3082149  35.3701597  37.2930926
  48.3599460  34.3774515  36.8465919  73.3305883  70.5085278  83.9082623
  73.3344078  69.8754168  83.1903553  73.8628006  71.2368774  83.5881138
  22.5981484  76.3301897  84.2496395  23.5044632  76.6019106  84.1047764
  22.5896511  75.9922123  85.1451397   6.8282757  82.2003651  78.6939955
   7.1849881  81.6811752  79.4147110   5.9977112  82.5374413  79.0298033
 115.5753899  66.6041088  94.9833584 115.2350998  65.8835554  95.5136776
 115.0293636  66.6015196  94.1971779 107.9208553  56.7149454  12.9455012
 108.4352482  56.8944650  13.7325210 107.7659691  55.7707029  12.9708022
  38.3072651   6.9187933  10.6626147  38.0872381   6.0029464  10.4921836
  37.5181616   7.4036794  10.4208964  76.6238117 107.7948284  85.5115128
  76.8385601 106.9842720  85.9731579  77.2786331 108.4237766  85.8146000
  25.1594961  20.3634363   3.4496135  24.4056070  19.9004656   3.8150519
  25.8450926  20.2635532   4.1100711  54.6284569  56.8615633   2.3296660
  54.4025791  56.8021970   1.4013976  53.9382446  57.4049860   2.7098483
   2.5190697  90.5588055  89.7732544   3.4748898  90.5472565  89.8232937
   2.3270378  91.0463524  88.9722252   4.8791466  62.6995182  82.3775864
   4.3056450  62.0289087  82.7485275   5.3375206  62.2549486  81.6645050
 115.7199001  63.0261898  93.0745888 116.6290188  63.2797098  92.9150105
 115.2690125  63.2217216  92.2531891 113.7541389  50.9438515  60.1614475
 113.8740540  51.2114096  59.2502594 112.8095627  51.0009146  60.3055000
 101.9328964  13.6678367   1.1055964 101.4999378  13.5401540   0.2615088
 101.6877258  12.8983122   1.6193599  87.0293617  77.9271793  67.2350550
  87.7141285  78.2188368  66.6331720  87.1715260  76.9844961  67.3209000
  21.8183098  96.8048954  73.9941025  21.6690979  97.1975517  73.1339931
  21.9705258  95.8777905  73.8109970  97.7416039  86.1897087  94.2205143
  96.9964314  86.6667938  93.8553524  98.2575035  85.9305859  93.4570122
 108.7645245 102.4973011  85.2537727 108.3911991 102.1028614  86.0419846
 108.3382797 102.0371246  84.5307350  69.4517601  12.2668892   2.5478095
  69.9090469  11.5336567   2.1361178  70.0403202  13.0125671   2.4303550
 114.5588398  86.8544197  70.1257324 114.7047615  85.9547997  70.4183388
 114.3035984  86.7690849  69.2071438  99.8508930  77.7594948  89.1682148
 100.1517773  78.3332205  88.4635544 100.4134941  76.9876385  89.1053486
  13.2293473  69.7923422  85.6214333  12.9704914  69.7675514  86.5426350
  14.1544781  70.0374269  85.6391144  95.5339909  46.6150808  77.2822762
  95.4229450  45.6893921  77.4990797  95.0834465  47.0816612  77.9862261
  23.5057602  52.1435308  85.6244278  24.1317902  52.5496006  86.2239552
  23.7474881  51.2173843  85.6169128  69.9585521   8.1399160   4.4392795
  70.4815185   7.3394828   4.4844073  69.0629375   7.8331953   4.2977542
  77.8223503  28.8069158  21.1898440  78.3706081  29.5283704  20.8814162
  77.9932487  28.7614256  22.1305675  16.0673867  79.3457413  89.7603703
  15.4081974  79.7995663  89.2352581  16.8029747  79.2163229  89.1617107
  82.3313141  85.8120823  63.1695747  82.6014996  84.9034882  63.0365896
  82.2649384  86.1740017  62.2859192  45.9660995   4.3856865  11.8399638
  45.7503021   4.7531419  12.6970786  45.1173485   4.1962438  11.4400023
  25.1551304  39.2756295  74.8461771  25.8989106  39.1752553  74.2520857
  25.0575695  38.4157443  75.2552128  13.5211907  86.6839027  71.3452435
  13.7042103  87.6226044  71.3055515  13.2238922  86.5355968  72.2429371
  15.3606377  60.6695175  84.5777416  14.4821988  60.4762459  84.9051666
  15.9309349  60.5503368  85.3372097   1.7747555  37.5691462  84.3800926
   2.5368653  37.1890569  83.9431190   1.1775456  37.7948070  83.6668968
 110.4830170  47.1627760  42.8036928 110.6145763  47.3794937  41.8806744
 110.4668522  48.0100870  43.2487106  18.3033442  99.8725181   7.6643962
  18.4091925 100.7064872   8.1221408  19.0781092  99.8056083   7.1062869
  69.7277308  69.4215250  79.7030830  69.5880747  69.3263817  80.6452465
  69.5872784  70.3529644  79.5329952 100.1214123  76.7101240  85.2888680
  99.6146011  76.0964537  85.8206367  99.5649910  77.4861956  85.2230167
   2.0970688  56.1301470  49.4223356   1.8541394  55.2629900  49.0979052
   1.8549118  56.1159372  50.3482914  94.2509079  38.6537790  90.6728745
  94.2130756  37.7683544  90.3111744  94.5298576  38.5301685  91.5801430
 109.8745060  75.4355812  79.0746450 109.6958637  76.2458754  78.5974216
 109.1261768  75.3340530  79.6627903  44.2010105   6.9720178  17.6979178
  44.0726555   7.4413353  16.8736094  43.7445724   6.1399227  17.5733680
  99.5369244  87.1916008  63.5761547  99.8069191  86.2739658  63.6117935
  99.5656109  87.4137402  62.6455259  58.0620754  46.9430261  13.4446353
  58.3972919  46.1379057  13.0501288  58.5252750  47.6447778  12.9872245
   2.1909771 101.0332775  71.0970020   2.6950512 101.6700745  71.6035891
   2.0704232 101.4481735  70.2428579  13.6396656  67.3216963  94.1688633
  14.4422398  67.8277349  94.0422344  13.4267960  67.4379587  95.0948238
  71.7608976  72.1898603  79.8155499  71.9972086  73.0237150  79.4092560
  70.8198118  72.2597408  79.9758863  11.7483101 108.5282612  69.8143768
  11.2559853 109.2254353  69.3810368  12.5409088 108.4310722  69.2865705
  58.2196319  25.9796053  21.4052314  57.8178585  25.2005487  21.7897815
  57.4876678  26.5785032  21.2576217  72.5806797  40.4756933  23.4467238
  72.4513710  40.1189047  24.3254870  71.8078506  40.1934629  22.9575271
  92.1967411  90.8303356  77.8395081  92.0797348  91.6093826  78.3832169
  91.3072968  90.5168533  77.6756191  61.5495634  85.0461864  55.5888605
  61.3114929  85.8040810  56.1228514  61.8922663  84.4094467  56.2160397
 109.2996693  91.1599636  70.0768948 110.1657295  91.3388348  70.4431772
 108.6911011  91.5795898  70.6849957 106.7668070  41.3018613   4.8758143
 106.9940294  41.8588071   4.1312331 106.2020172  40.6241314   4.5044345
 110.7048225   0.3957161  69.7889948 111.2537193  -0.1418621  70.3599119
 111.2654305   0.5995876  69.0404034  84.2735291  20.7840633  61.1336327
  83.6001968  21.3963509  60.8370590  84.3363094  20.1379442  60.4301977
  94.7174072  30.2319121  89.3134117  95.4344273  30.1465726  89.9417782
  93.9650440  29.8360991  89.7533131  81.2428665  16.5800798  66.9542933
  80.6823540  17.0230591  67.5913382  80.9206772  15.6788874  66.9375896
  90.1838017  26.7117167  80.2627182  90.2436447  27.3672223  80.9576702
  90.7757854  27.0303154  79.5813322  13.5675274  83.6505937  48.2119799
  12.9942356  83.4867834  47.4631596  13.1118523  83.2530426  48.9539671
  48.4656225  85.1987099  94.4007206  47.9618632  84.4753217  94.0276718
  48.8860499  85.6117987  93.6465073 100.5268478   9.4490051  85.7691479
 101.2262535  10.1024234  85.7794762 100.9154510   8.6890268  85.3359604
  84.5128059  24.3375993  32.4572062  84.3914509  23.9345169  31.5975380
  85.4519749  24.2628551  32.6263642  70.1676607   0.1895432  72.2552395
  69.3244457   0.6260225  72.1339703  69.9916840  -0.4968920  72.8987217
  76.2738800   4.3422595  73.6582947  77.1099091   4.7314388  73.9148521
  75.7211113   4.4286144  74.4349718   3.9742350  65.8471661  14.6735114
   3.1619143  66.0459964  14.2078513   3.7317156  65.8711939  15.5991668
  37.6790081  73.5742306  74.5934916  37.9834067  74.3803691  74.1767025
  38.0982338  73.5764384  75.4540014  20.7919121  15.9378076  76.5596247
  20.6631899  15.2884722  75.8682299  21.7287493  16.1325049  76.5339470
  27.3701178 104.5495337  29.5816970  27.0493923 104.5423245  28.6798573
  26.9456946 105.3090283  29.9807787  83.0211926  18.0183339  68.9619064
  82.1619129  17.5965869  68.9615870  82.9956341  18.6134481  69.7111797
  51.5629374 109.5209032  74.5158720  50.9578883 110.1285692  74.0905619
  51.9335162 109.0092789  73.7967396  88.7637485  60.8413933   0.5257720
  89.5356954  60.4128073   0.1561278  88.8496984  61.7577885   0.2629775
  89.4376850  10.3154588  77.5343323  89.8709393   9.7980183  76.8555260
  90.0956440  10.4050183  78.2237530   4.2683373   7.8184664  77.8629160
   5.2080307   7.9677773  77.7584743   4.0048657   7.3765528  77.0557404
  36.0335946  12.3229325  70.5578804  35.7883739  12.7717459  71.3669920
  36.8380380  11.8535340  70.7787085  57.5605774  13.5793209  78.4883690
  58.2703161  13.0595195  78.8656092  56.7891836  13.0167341  78.5567474
   9.8472094  57.8014379   7.9644984  10.2951025  57.8594215   8.8084525
   9.5848631  58.7012591   7.7702540  74.7515379 100.1623254  75.7737970
  74.1080080 100.5073934  75.1549006  75.2597510 100.9276628  76.0425091
 106.7462540  16.2050211  66.7183352 107.6309586  16.3243473  67.0637083
 106.2170601  15.9867668  67.4855042  98.6204338  10.6334090  55.8152962
  98.5070229  11.2926650  56.4999533  99.2303371  11.0339582  55.1957798
  84.4318581   6.1642027  83.1288242  85.1681042   5.9091002  83.6847878
  84.0941811   6.9645524  83.5308838 114.5198250  44.6485186  67.2413969
 114.9802494  43.9990473  66.7099524 113.6831379  44.7745800  66.7938566
  96.0271835  31.4634204  80.5475616  95.0756645  31.5250826  80.6313992
  96.3413048  32.3498011  80.7261372  87.6890087   4.1587660  67.7374935
  88.5211945   4.1503599  68.2103777  87.0638943   4.5312229  68.3593845
  76.5711546   1.7990346  62.6675081  76.1051798   0.9645829  62.7203226
  76.4569759   2.0800802  61.7596483  78.0041170  39.7374916  36.6576672
  77.6382780  39.2485523  35.9205556  77.5156975  39.4241786  37.4189258
  44.6038424 105.3076439  40.6076622  44.6667372 104.5724201  39.9979711
  44.3253027 104.9111103  41.4331388  52.4243641   0.4986608  77.9031515
  53.2835245   0.3489573  77.5086069  51.9860649   1.1003998  77.3014593
 104.2630113  51.9807978   5.2182311 104.3912328  52.4970435   6.0140151
 105.1480259  51.7428039   4.9419326 105.9778404   7.1757662  40.0746822
 105.9081459   6.8035048  39.1955948 106.3032722   6.4555287  40.6146717
  66.1646175  16.1235285  60.8881950  66.2805605  16.6257560  61.6947651
  65.3549194  16.4643574  60.5081224  89.0470409  20.7134771  68.8420630
  88.2630253  20.2883482  69.1896486  89.7063828  20.5959392  69.5259333
  62.0490538 100.4990267  23.7738061  62.4035536 100.2370309  24.6234608
  61.3587748 101.1273813  23.9857435  31.9849097  73.9787268  91.5314388
  32.4276720  73.6435270  92.3110771  31.3511168  73.2981872  91.3047218
  19.2777764 102.8682702  91.3187218  18.3616864 102.8719013  91.0412407
  19.6503626 102.0898145  90.9046936  58.1566035  82.9746675  72.3025942
  57.4687849  83.6094116  72.1019793  58.6828791  82.9314303  71.5042257
  86.7061424  29.9953437  80.6825256  87.0909405  29.2778325  80.1791954
  86.1942196  30.4894972  80.0422192   0.4931794  34.6923876  63.0565310
   1.1450634  34.0142989  63.2339287  -0.3484192  34.2561769  63.1894445
  98.6320114  26.1016989  81.4788914  98.1583977  25.5765796  80.8337688
  97.9514503  26.6099763  81.9201660  53.7684904 107.4810436  91.5471554
  53.7967955 106.6491484  92.0197868  53.6261069 107.2328340  90.6337261
  59.0663910   8.2101363  43.5365391  59.0222120   9.1584706  43.4142971
  58.1905413   7.8982371  43.3088493  60.5418001  78.4488367  69.4911289
  59.7371756  77.9315399  69.4562817  60.6765353  78.6196613  70.4232740
  30.8150803  84.7884321  75.9179974  31.3056027  85.5773162  76.1488342
  30.5612027  84.4094443  76.7595148 102.8169823  14.0887690  89.3229485
 101.9861412  14.4946885  89.0756416 102.7509499  13.1908453  88.9979744
  78.7451124   6.4616191  74.3213654  78.4332609   7.1500540  73.7339640
  78.4493494   6.7354143  75.1895761  68.8447081 104.5505630  83.3485031
  69.6863161 104.1554212  83.1209373  69.0755736 105.3603398  83.8036919
 100.7631267  44.3894200   5.2573318 101.2724794  45.1992117   5.2252788
 100.7968773  44.1214268   6.1756343  96.5911388  25.3112483  68.6870623
  96.6086960  25.4731607  67.7438164  95.9626198  24.5975637  68.7959099
  99.6579552  19.9140048  72.6615953 100.3633785  19.7959471  73.2977295
  98.8611317  19.9471200  73.1909513  98.3100891  31.5149260  87.5973129
  99.0113258  31.0191441  88.0200386  98.6674976  31.7535901  86.7420101
  83.5528755  29.8494482  56.0959625  83.0638313  30.3152680  55.4176664
  84.1936398  30.4873967  56.4100885 100.8308111  88.9617681  76.6830778
 101.3956534  88.7267875  77.4192619 101.3864313  88.8543653  75.9110785
 115.9927559  33.5238791  60.0350523 116.9478798  33.4608722  60.0367260
 115.7271099  33.1579757  60.8787251  88.3014202  28.2565022  38.2066631
  87.9298401  27.5979996  38.7936282  87.5538635  28.7949157  37.9468560
  82.4799347  -0.2436783  80.0876331  82.1015739   0.5900028  80.3670025
  83.3381271  -0.0105332  79.7335482  56.8631159 100.5107104  69.0768671
  56.0594260 100.1359182  69.4372177  56.6379916 101.4211678  68.8855076
  24.2910754 100.3283041  63.5967731  23.4412705 100.6747251  63.8689041
  24.8979794 100.6213480  64.2764997  28.0431782  90.4159438  49.7218895
  28.4631239  90.8741736  48.9939404  28.5553538  89.6142411  49.8276377
  98.1537247  20.4628563  38.4850311  97.6366520  20.3439736  37.6883245
  98.1510830  21.4084840  38.6334014 110.9004688  16.8230367  55.8643484
 110.2397346  16.1394405  55.9755325 110.6277180  17.5192356  56.4619684
  30.4619955  53.4523489  21.0907668  30.1243662  52.7802624  21.6828269
  29.6844839  53.9312855  20.8038348  70.3619432   7.8316832  78.7691593
  70.7954264   7.5623566  77.9593563  69.5046473   8.1507438  78.4872484
  71.4228331 108.9987116  57.4173832  70.7307421 108.3527692  57.2759724
  71.6919886 109.2581610  56.5362024  92.3856163  11.1090863  48.4092379
  92.6050568  10.2062571  48.1790733  91.4431095  11.1732626  48.2549667
 100.3738594  24.8466086  76.7119074 100.4175091  25.3583789  77.5196314
  99.4442749  24.8379278  76.4838123  88.4507275  20.1810527  76.1268663
  89.2846966  20.5678892  76.3934755  88.0441952  20.8469963  75.5723619
 109.6341991  31.6992021  40.7627916 109.3021965  30.9572315  40.2573395
 109.8836994  31.3218808  41.6063643  71.9128882 100.4347312  71.4502096
  71.3238798 101.0391342  70.9985447  71.3989817  99.6342420  71.5567732
  95.1548481   5.3886092  73.3196354  95.6068993   4.6492606  73.7261438
  95.7092476   6.1443853  73.5137463  23.2336865  17.7212322  67.9405260
  23.6080132  18.5055542  67.5393391  22.7764378  18.0442870  68.7169218
  56.0218954   3.4002081  75.2911472  56.6158962   3.2254863  76.0211229
  56.5952301   3.4740144  74.5282078   5.7751345  57.5014030   1.3344115
   6.0290026  57.4651711   2.2566241   5.9704565  56.6269318   0.9976882
   0.1000462  23.9768434  76.4395046   0.7971821  24.1787553  77.0635748
  -0.0279750  24.7905207  75.9518862  81.2345123   9.8588437  64.2077303
  81.8375015  10.5663180  63.9794445  80.6292439  10.2532876  64.8356581
  90.2656174  14.9953651  63.0941248  90.2104950  14.1701913  63.5760832
  90.8949089  14.8222136  62.3939514  94.5655346   3.8996249  55.1977539
  94.1452217   3.0692431  54.9740648  95.3363514   3.6484644  55.7066727
   4.2587433  20.6185699  67.0717907   4.6885548  19.8406410  67.4271965
   3.5121689  20.2762008  66.5802097  96.1198221 104.3873822  61.0928583
  95.8051478 103.5141420  61.3266706  96.7586886 104.6017277  61.7726612
 100.8200359  19.6575046  42.0995140 100.2928066  19.0685296  41.5597248
 100.4920101  20.5320811  41.8903542  48.7017046 105.2973091  79.8370409
  49.3381869 106.0079735  79.7591162  48.2060896 105.3288671  79.0187502
  42.4407183  97.3034012  68.3903694  41.6087614  97.6516985  68.0697775
  43.1071841  97.8156101  67.9324436  29.2287516  50.6661670   6.6253394
  28.8573336  50.8812048   7.4809283  28.5767435  50.9756126   5.9965629
  23.3136498  91.7963194  89.1939640  24.1253458  92.2566699  89.4071674
  22.7531802  92.4671518  88.8039780  40.5814778  86.3421177  66.7548323
  40.7546889  85.5636429  66.2254906  40.4333626  87.0386218  66.1151648
 112.0093037  91.5411591  46.2364960 112.2777701  92.3652005  46.6428375
 111.1071993  91.6951906  45.9559298  90.1132787  23.5730200  15.0040645
  89.4039978  23.3847647  14.3894786  89.6694244  23.8709455  15.7980842
  74.2871857  20.2762437  93.3162689  74.5683622  21.0234642  92.7882195
  73.4046268  20.5066419  93.6065102  92.0424366  13.5046017  83.9570713
  91.1369896  13.4388781  84.2605305  92.5212383  13.8580930  84.7067451
  21.6974138  75.5724339   2.2386378  22.5253462  75.2263598   2.5717944
  21.9552778  76.2259321   1.5884990  43.9580345  12.6717436  71.0290146
  43.9564276  13.3704698  71.6832399  43.0350876  12.5499892  70.8063507
  39.2852389 103.8592821  61.6679430  38.6615692 104.1966247  61.0249329
  38.7791573 103.7864631  62.4771452  84.8392391  23.3170247  72.5982571
  84.3500423  24.0342450  72.1951246  84.8586845  22.6339173  71.9280195
  49.0123450 108.0390377  36.3257241  49.5298754 107.4508590  36.8756723
  48.2883726 107.4976372  36.0110998  40.8021139  79.0158730   0.3003806
  41.4570879  79.1535644   0.9846992  40.9946131  78.1435041  -0.0433522
  41.6470026  79.4320517  19.2689342  41.7719339  78.5119562  19.5014209
  41.6745733  79.4432144  18.3121985  44.8542200 107.7229185  76.2718868
  44.8519598 108.6773428  76.1990786  45.0566279 107.5533753  77.1919537
 109.2328262  17.6850355  19.4264925 109.1155624  16.8516850  19.8825717
 108.4013367  18.1434751  19.5477033 103.8340950  54.2195892  57.5175571
 104.4818020  53.7267971  57.0137119 102.9952526  53.8234425  57.2816753
 111.4799500   9.6122146  81.5692234 112.0760155   9.7058016  80.8261299
 111.2319088  10.5095267  81.7917919  90.6668663  23.9546108  50.9498835
  89.7408581  24.1713262  51.0584259  91.1252594  24.5674300  51.5248251
  87.6496124  23.0061865  61.7150307  88.4192753  23.3826041  61.2882233
  87.9870701  22.2480273  62.1920586 102.6727962  19.6008468  65.5256128
 101.9870853  18.9776886  65.7658386 102.2152233  20.2825952  65.0336075
   3.1962357  14.5737100  77.8956842   2.6886521  14.8944604  78.6411428
   3.4823666  15.3664398  77.4418736  82.9733562   6.2947041  66.4262915
  83.0669785   7.0134360  65.8010817  82.0308113   6.1324650  66.4653397
  87.6896763  23.2932878  57.3948097  87.1052170  22.6642418  57.8178358
  87.6754665  24.0579939  57.9703522   3.6045990  28.4282207  60.2866983
   2.8923283  27.9390883  59.8748112   4.0669690  28.8388753  59.5560741
 108.4864902  35.1559520  37.9478741 108.2744884  34.3384290  37.4973822
 109.1977882  34.9231148  38.5445905 100.6690502  59.7147179  81.6917706
 101.4582062  59.6154356  82.2243214 100.8562183  59.2228508  80.8922291
  91.3093185  17.9767346  77.9083014  90.7848644  18.6049414  78.4048319
  91.1653805  17.1409023  78.3520365  77.8348780  17.2110093  24.3460584
  78.4317350  16.4728975  24.4692802  77.2777224  17.2010088  25.1243329
   6.2429499  50.5228751   0.6018371   5.9447741  49.6164374   0.6773108
   6.4650225  50.6257071  -0.3235417  25.9984850  54.1238709   4.9161071
  26.8936609  53.9914349   4.6040935  25.7596468  54.9939030   4.5963687
  88.1076527   0.5273525  41.1632013  87.2647762   0.4907014  41.6153526
  87.8816414   0.5080421  40.2332640   3.4869252  33.3682895  81.8885994
   3.4024296  32.4475598  82.1362877   4.4048272  33.5790658  82.0596313
  22.5950598  63.2382606   7.6264686  23.5501932  63.2315813   7.6889342
  22.4168657  63.3158575   6.6892070 103.5722065  33.0352378  72.2958994
 104.2121601  33.6752534  72.6074600 102.7303791  33.3665180  72.6086617
   9.9354039  37.6829410  54.2954111  10.0743447  38.6209846  54.1650248
   9.0506325  37.6195884  54.6551371  22.4896406  46.6209309   4.4640750
  21.7175554  46.0576313   4.5170516  22.4643492  46.9791465   3.5767955
  88.5992718  23.4460020  38.6026835  89.1886044  24.1990066  38.5590482
  88.8922977  22.9567575  39.3714523   4.0365099  74.7014182   4.6957797
   4.9458670  74.9650674   4.5551414   3.7125753  75.3055291   5.3638762
  92.1731663  17.4947131  68.7121916  91.3358879  17.1918786  69.0636015
  92.6453304  17.8304780  69.4741344 115.7845020  46.3575840  35.2793384
 116.1406040  45.5738211  35.6978369 115.0500011  46.0369205  34.7559690
 113.3802700  38.6549878  80.0261974 113.8216686  37.8792500  79.6803188
 113.6363888  38.6852670  80.9479904  77.3894405  20.1088548  83.2332516
  76.5429449  20.1484823  82.7881622  77.8553295  19.3944836  82.7986908
   1.1667881  22.9008603  56.1396027   0.3370343  22.5779986  55.7881880
   1.0504399  23.8493252  56.1953306  19.9691353  14.7738981  55.4904652
  20.5097828  14.1097128  55.9180069  20.3722153  14.8936737  54.6305799
 113.5571003  27.6060176  93.3519459 113.4647179  28.2903051  92.6890373
 114.1877651  27.9623079  93.9776897  73.6192881 103.8352894  80.9471512
  72.7492796 103.8926207  80.5521488  73.5963999 104.4633257  81.6691494
  76.8648243   5.5949867  34.4827414  76.9627428   5.4238248  35.4194093
  77.6089096   6.1554396  34.2626071 112.0481027  73.0112426  27.6255912
 112.8369440  72.8005354  27.1260280 112.3161281  72.9321628  28.5410899
  94.8220825  23.4025598  69.2414856  95.4462910  22.6843619  69.3453979
  94.2457962  23.1182671  68.5320520   4.3181477  36.3895583  67.1235418
   3.3914814  36.6230941  67.0690060   4.3429337  35.6471896  67.7272844
  77.3774862   1.5387718  51.1646318  77.2401381   1.0382904  50.3603411
  78.2802248   1.3442670  51.4165449  67.8230429  12.9876208  84.4841099
  67.0712900  12.6751566  83.9806557  68.2558107  12.1898973  84.7883797
  74.3684946 106.0336941  59.1773558  74.5805632 106.8913924  58.8090992
  74.1801535 105.4858115  58.4153986  82.8111267  45.0057650  87.2999477
  83.6221600  44.5018530  87.2326565  83.0149460  45.7059669  87.9199600
  70.4519653   2.3584124  49.9082708  71.3576841   2.5487456  50.1525640
  70.0948143   3.2035524  49.6354866  46.0726643   6.3484544  61.4058018
  45.1831150   6.2032008  61.7280388  45.9536362   6.6880435  60.5188179
  22.1577250  99.5658194  48.0948925  21.3078247  99.2824971  48.4319878
  22.0178353 100.4734402  47.8249168  71.3165331  22.2441721  42.4716520
  71.9156551  22.9842544  42.3738861  71.3647461  21.7846227  41.6333675
  97.1667767  43.7082243  76.6842890  97.6830482  43.6967564  77.4902487
  96.2779903  43.4917021  76.9660759  67.5357485  20.1197886  63.0218554
  67.0962381  20.8883381  63.3857155  67.8403568  20.4037261  62.1599817
  98.2118511  20.5745554  49.4196129  98.9485836  21.0056138  48.9864397
  97.4461937  21.0833836  49.1529894  82.2441196  27.0410466  53.4258032
  81.7011642  27.7973557  53.2034779  81.6556358  26.4555383  53.9023590
  86.1971474  30.5990028  86.6318893  85.3419971  30.9076047  86.9314003
  86.6534710  31.3924432  86.3517857  22.3005079  68.7136297  11.3943213
  23.0051874  68.3816700  10.8380336  22.4632906  69.6551948  11.4507884
  95.0299358  14.5129323  74.2340326  94.1628170  14.9176693  74.2110729
  95.4207420  14.8299670  75.0482750   5.3200207  44.4349432  62.8057671
   5.3682099  45.3349209  62.4833488   4.3974743  44.1967535  62.7140665
  94.3702316   9.1736364  43.0632448  94.1321754   9.8011047  43.7457705
  93.7521553   8.4514356  43.1757116  43.0790114  98.1738000   1.2767428
  42.9696154  97.5579171   0.5522078  42.3675512  98.8042741   1.1646575
  64.2601824  19.8426092  53.0787849  64.9302244  19.1777921  53.2378197
  64.4800377  20.5531669  53.6812830  12.9625569  17.2325218  42.2008324
  12.0164547  17.1614921  42.3276043  13.2917366  16.3466239  42.3526859
  88.5947037   8.1477678  72.2575092  88.4054565   7.2577304  71.9604397
  88.8140106   8.0494726  73.1840467  73.6808825  22.1651673  72.7110481
  74.3511581  22.7636909  73.0407810  74.1424561  21.3367105  72.5812721
  20.8799015  87.6021981  71.9920158  21.0210501  87.7853178  72.9208708
  21.1803185  86.7006325  71.8772840  49.1864191  86.2741017  91.8754959
  50.0167166  86.7367958  91.7625523  49.1584860  85.6514191  91.1490536
  64.4577586 101.6948395  73.1230402  64.2056929 102.6150762  73.0465031
  63.6354815 101.2344097  73.2906437  86.5150166  25.6187057  70.0251579
  85.7653236  26.0305858  70.4547548  86.1274052  24.9744701  69.4327450
  99.1401005   1.6987535  75.6550980  99.3960953   1.6316901  74.7352076
  98.6138153   0.9153710  75.8149719  71.2228012  18.3673167  86.6781616
  70.6678391  19.1431737  86.5988255  72.0092106  18.6800623  87.1253490
  66.0938250 100.9980177  40.8770227  67.0473467 101.0556649  40.9378672
  65.8550535 100.3122192  41.5006447   6.2820183  95.0388359  79.0944242
   6.1015784  94.8247849  78.1790781   7.1342121  94.6399473  79.2701769
  20.6304871  88.6203288  21.0073614  20.8907400  89.2856454  21.6444302
  19.7356783  88.3880877  21.2555742  63.3477068  17.4777818  55.8348751
  63.2377386  17.9507089  55.0099611  63.9531851  18.0184984  56.3420773
  78.6804295  13.7976682  66.5320730  78.4422159  14.3245029  65.7692289
  78.6158276  14.4029391  67.2707891   7.9162465  25.4158139  16.9615912
   8.2575665  24.8031330  17.6130128   7.1320114  25.7849383  17.3677397
 104.3557549  17.3752189  75.8141804 103.7139320  17.9109883  75.3480721
 105.1939678  17.6002049  75.4104519  99.6815586  41.9570065  83.4983444
  99.7898197  42.9080534  83.4938049  98.8168430  41.8162107  83.8839149
   5.3838883  34.9434924  64.7833157   4.5751248  35.0360847  65.2868605
   6.0616169  34.7977042  65.4433632  63.9547777  27.9975605  39.1907072
  63.7372112  28.2561970  40.0862503  64.7948551  27.5455427  39.2693448
  94.1193962  46.6647625  42.7427053  94.5233631  46.6506338  43.6103725
  93.2634544  47.0694351  42.8835726  92.7017689  27.1109462  73.1625223
  92.1515465  27.8759575  73.3305883  92.9299259  27.1790409  72.2354078
  89.3925476  15.5630672  75.0053310  89.5753479  15.5936468  75.9444141
  88.4412193  15.6490088  74.9435854  68.4395742  21.5575767  58.1444502
  67.4977589  21.4524126  58.0096912  68.5538912  21.4983773  59.0929556
  95.1462650  23.8574719  38.5752892  95.5932331  23.1600046  39.0548587
  95.8097076  24.1991949  37.9758739  83.3493710  42.7785873  89.7845745
  83.9693546  42.7841616  89.0553188  82.7007866  43.4432459  89.5526314
  93.1243420  31.0945535  62.1815729  93.7177086  31.2182450  62.9224157
  92.4806499  31.7974091  62.2703218 109.1567230  25.2862716  68.6770630
 108.6056900  25.2466178  69.4587421 109.1138363  24.4038033  68.3087683
 111.6170025  60.9153795  77.5929499 110.6627750  60.9786415  77.6339579
 111.7827702  60.1218319  77.0839930  94.9904537  33.0346847  58.1080770
  95.0846386  33.6279893  58.8532972  94.1497707  33.2727456  57.7171564
 108.3584213   5.1345068  68.0363607 107.8710556   4.6684295  68.7156868
 108.9822292   4.4892049  67.7036762   3.1608734  26.6593409  85.0680256
   4.0882931  26.7217612  85.2965546   3.0257378  27.3539615  84.4234562
 111.1471367  41.6785383  65.2276039 110.4597092  41.0715437  64.9533081
 111.9424057  41.1462307  65.2482843  85.8360863   8.1294411  46.7847681
  85.0473976   7.5870436  46.7839909  86.1280060   8.1289536  45.8731699
  32.5906538  85.8565955   2.2530860  32.9802202  85.3857093   1.5163821
  32.1424269  85.1795750   2.7600020 114.4235992  29.3323541  59.1154861
 113.9888573  28.4901404  59.2493057 115.2427864  29.2595339  59.6052551
 109.9178219   4.6776426  63.6895561 110.6475067   4.0608260  63.7472630
 110.0323963   5.2554554  64.4440365  20.7974110  31.5644097  52.4621820
  21.3562642  31.9819307  53.1176138  20.0950680  31.1581564  52.9700327
  78.1658077   2.8488860  71.6014004  77.8560400   3.3920726  72.3261261
  78.7935543   3.4032446  71.1378813  98.3208752  35.8005595  92.3442650
  97.7371788  35.4067445  91.6958523  98.4621429  36.6930962  92.0285892
 105.9894371   8.7079167  46.5191936 105.1704884   8.3402795  46.1869240
 105.7411575   9.1516161  47.3301888  93.4370518  17.7552140  92.4921513
  93.0538464  18.5927725  92.7526855  92.7920914  17.1020150  92.7634239
  64.8513102  69.4507639   7.9753608  64.7701906  68.7578063   7.3200244
  65.4600405  70.0785403   7.5860232  65.8744704 104.4866311  44.0000200
  65.4420458 104.7273617  43.1806946  65.1803004 104.0973555  44.5318317
  86.3970757  19.8767018  69.7189999  86.8269157  20.0577831  70.5548716
  85.4958916  20.1742578  69.8436928  80.1796722  13.4297097  82.2789574
  80.1403999  13.8676071  81.4286995  80.5808258  12.5807858  82.0928574
  94.8776627  28.8555622  45.4686022  94.1810322  29.4872093  45.2898312
  95.5170727  29.0004134  44.7711754  84.7673035  36.0950327   1.6215160
  84.9995232  36.9928694   1.8585731  84.1228962  35.8327723   2.2789302
 112.9194450  37.8210831  90.9526253 113.7437344  37.4393320  91.2543678
 112.3836803  37.0679712  90.7036209  98.4206390  30.9557414  54.3465567
  98.0838680  31.0921264  53.4609985  97.6416111  30.7822371  54.8749876
 100.5259323  14.0568042  65.9999037 100.9630966  13.4123421  65.4433203
 100.7714844  13.8092363  66.8913317 112.2984409  24.8072076  55.2383947
 112.2372723  23.8875198  55.4965878 111.4919853  24.9730587  54.7501755
  65.8283602 104.7860485  21.7998123  66.2733733 104.5670306  20.9811401
  65.0984083 105.3450503  21.5335178  29.1063952  56.2634604  13.7289638
  28.3637594  55.8472017  14.1665286  29.1886210  55.7945858  12.8985232
 106.0860920   6.6092002  66.6068602 105.7689190   7.1197617  67.3518133
 106.6483974   5.9400648  66.9971180  75.4778563  88.2363152  58.6916494
  75.2165495  89.1062831  58.9934826  76.0788237  87.9193663  59.3659019
  88.0612087  24.2436099  51.9792891  88.3955574  23.9786172  52.8361607
  88.0765438  25.2004242  52.0016479  92.7864075  18.5022640  43.7834740
  91.8418503  18.3726215  43.8684607  93.1237984  18.3955371  44.6728611
  34.9470877  63.8534270  12.2073859  35.7946943  63.6002605  11.8417376
  34.6263479  64.5361774  11.6181392   4.0412197  16.4185154  48.7138844
   4.7254906  15.7491803  48.7121773   3.6841832  16.3937724  49.6016598
  10.9534607   8.9461881  49.1118622  10.6572018   9.7219825  49.5878983
  10.5692253   9.0388793  48.2400799  34.4029080 100.2312260  30.9791374
  33.6036574  99.7554766  31.2051773  34.4343220 100.2059584  30.0227857
  95.4650307  25.9902716  79.2530823  94.9174309  25.8631158  78.4783602
  95.6890202  25.1037550  79.5361900  94.5000458  49.0741110  71.9462538
  94.8971272  48.2102537  72.0571947  94.6824074  49.5289278  72.7685165
  59.3375670 103.3395808  63.1513834  59.8269640 102.6972394  63.6653090
  59.5196234 103.1067883  62.2409487  74.3718672   8.9992833  81.8126011
  74.5515347   8.6427379  82.6825523  73.5077095   8.6552513  81.5865326
  70.5959463  20.7788205  51.3746309  69.8748541  20.2900553  50.9779358
  70.2009869  21.2203503  52.1264887  18.9234864  93.4323155  87.4684048
  19.7759281  93.3397269  87.8938389  18.3003269  93.0730867  88.0999565
  91.9265747  52.7116251  69.0765762  91.2014580  52.2404051  69.4869423
  92.7037048  52.4144220  69.5498180  95.0152111   6.5261942  78.2642555
  94.6058941   6.9841433  78.9984035  95.9436607   6.4873898  78.4938240
   9.6304010  59.0762307  25.0734633   8.7666296  59.0705817  24.6610278
   9.7690367  58.1708189  25.3513831  86.1522388  56.5625429  74.5912933
  86.4727592  57.4447441  74.4035959  85.4775620  56.4071608  73.9303064
  59.5559025  13.8243759  57.1031237  58.6283064  13.5906935  57.0686817
  59.5635986  14.7807300  57.0636129 108.1172752  45.3807878  72.3924828
 107.9979801  46.2991190  72.6347017 108.7905979  45.0603199  72.9926157
  58.6422396   1.3479744  68.5668516  58.0401373   1.0159633  69.2327881
  58.5558653   0.7334132  67.8380919 109.8535156  39.7831678  52.1364641
 109.1452789  39.1985583  52.4063826 110.1583099  39.4217944  51.3041544
  79.9064493  12.2523475  70.6651735  79.2297697  12.5556374  70.0599003
  80.5351543  12.9731703  70.7022619  92.0906162  36.4254308  65.3480148
  92.3866653  36.4428949  64.4379091  92.1143436  35.4995942  65.5898714
  98.5814667  40.8183527  73.3898783  98.5627270  40.0410652  73.9481831
  99.4999027  40.9086800  73.1358147 101.4481640  36.2858152  70.6902647
 102.2101021  36.8615913  70.7547569 101.5487194  35.6729794  71.4186525
  10.3638802  40.5739450  53.5702705  10.1210461  41.2754583  54.1745424
  11.2890396  40.7304144  53.3810043  42.4776541  96.7042887  54.0276098
  41.5309511  96.8383526  54.0723848  42.5848280  95.7531285  54.0212822
  76.3015795   5.2721733  84.7024441  76.5723515   4.6171427  85.3457546
  76.4662170   4.8581916  83.8552475  26.6955637  69.0980999   3.5790462
  27.3179697  69.8010926   3.7651938  26.9476484  68.7781577   2.7128333
  96.7247868  12.7060282  83.3189487  97.4726009  12.4023151  82.8044033
  96.8112946  13.6592710  83.3275795 111.5975571  24.0322065  37.3514247
 111.4739609  24.1742969  38.2899165 112.0480633  24.8200607  37.0471859
  73.6735045  92.6428758  69.9781466  74.2584120  92.9885220  70.6524277
  74.2312037  92.0767438  69.4445753  92.0285034  35.1674008  48.5560513
  92.3079777  35.1598454  47.6405907  91.3191128  35.8094096  48.5846186
 110.2950001  59.1160250  55.8400154 110.9890652  59.2515087  55.1949215
 109.4916058  59.3657017  55.3834629  97.4542965  76.5767007   9.9905700
  97.3469461  75.6256514   9.9760646  97.8902448  76.7558508  10.8236808
  44.1948305 105.3822341  33.4393811  43.5992800 105.6841945  34.1252184
  44.5926653 104.5896148  33.7995386  78.4067774   3.9953318  67.7285910
  78.0660820   3.1586492  68.0450106  78.1954527   4.0023395  66.7950392
  15.2971243  70.3908305  -0.2443772  14.4407057  70.7095497   0.0405807
  15.8728289  70.5496662   0.5036754 108.0399323  10.5205309  44.2072630
 107.2156906  10.1361191  43.9087915 108.5035324   9.7963512  44.6278238
  68.3458757   7.3150492  58.9371443  68.9699030   7.3957932  58.2158279
  67.9801750   8.1939846  59.0369987  85.7830048  41.7880678  28.3601761
  85.6235790  41.2563896  27.5803447  85.6163311  42.6866579  28.0755949
  49.2536436  94.5427501  86.4242649  49.9774157  94.0206253  86.7703438
  48.4661089  94.0826248  86.7146206  10.2157364  12.5545490  33.9971185
  10.4773865  12.1616459  33.1644106  10.5533753  13.4492958  33.9563513
  14.8513375  37.3086739  79.0103245  13.9953003  37.6312923  79.2920160
  15.1541291  36.7658615  79.7382736  11.1690592  78.9764790   1.3924045
  11.7594694  78.2751374   1.1171359  10.3876089  78.8573794   0.8526057
  24.4101010  57.1468544  82.2970200  25.2161465  56.6402006  82.3962021
  24.6692810  58.0486917  82.4860954  88.7180328  31.0624599  46.8825054
  88.2884026  31.1678267  47.7313566  88.0452442  31.2959671  46.2429237
   4.8668251  34.0705132  72.8312159   4.4433365  33.5325360  73.5001516
   4.4858895  34.9409366  72.9473543  70.3991699   1.4019714  66.0784054
  71.2468481   1.7105615  66.3984871  69.8811674   2.1989539  65.9656143
  28.5099863  89.0021424  14.6015948  28.3439325  88.1489162  14.2007750
  28.9979052  88.8007622  15.4001063  64.5273733  13.4283495  86.8818855
  65.0907135  13.2878685  87.6428986  65.0352144  14.0050638  86.3111591
 103.5690022  54.4902086  89.8756695 104.3508911  54.9213743  90.2206039
 103.9025497  53.8792801  89.2185974  92.0888901  15.1767313  74.2564774
  91.1905575  15.4513502  74.4403839  92.1898270  15.3038120  73.3131361
 110.0339031  47.3803520  53.2588148 110.9061813  47.7249718  53.4501362
 110.1805878  46.4564943  53.0558300  15.3603434  73.1926529   9.3146152
  15.7025789  73.6568074  10.0785941  14.4261240  73.4009521   9.3064708
  68.1900740   2.1552187  71.8400669  68.3062267   2.4094449  70.9245825
  67.2601938   2.3020126  72.0132780 114.4495583  33.0189323  47.4655294
 115.2448177  32.5425768  47.2270250 114.5751572  33.2489467  48.3861542
  51.2677084  93.9669596  63.7431192  51.1947333  94.3740677  64.6063519
  52.1619021  94.1606116  63.4617901  61.0512257  19.1425788  54.1949272
  60.6999683  20.0027776  53.9649105  61.5737343  19.2997241  54.9813890
  22.3694191  12.9782534  75.0125408  21.4378796  13.0498612  75.2207470
  22.7529297  12.5463629  75.7758331 100.2092634  90.4480123  49.8138618
 101.0512625  90.8809768  49.9546003  99.9356161  90.1668691  50.6869650
 111.8641567  10.7732582  51.1247873 111.7837906  11.5205061  51.7175722
 111.6223240  11.1212981  50.2665234 109.2027855  31.2057590  60.9043264
 108.4622955  31.5352988  60.3951168 109.3742371  30.3362989  60.5425549
  86.7629242  12.9380798  68.0410147  86.6122627  12.7180970  68.9603281
  85.9155369  12.7966785  67.6189184  93.2114792  66.4446449  69.2708540
  92.9939842  65.5359983  69.0628052  94.1587353  66.4387321  69.4083643
 114.8060417  13.9720595  48.5008764 115.2070236  14.7310936  48.0774212
 113.8818169  14.2059863  48.5864210 101.3634300   6.9408739  84.8336792
 100.6687737   6.5462649  84.3064499 102.1703148   6.5511572  84.4970894
  66.6121578   2.9005119  66.8623638  65.9567738   3.5749519  66.6839552
  66.5082026   2.7059540  67.7937984  37.1285473 105.0254463  60.6125879
  36.7364441 105.2126973  61.4654827  36.3963257 105.0689506  59.9976110
  95.6601334  14.0032935  91.3545132  94.7442150  13.7709439  91.5072727
  95.9048843  14.5268631  92.1175385   1.9231949  22.4060941  91.9711208
   1.0830937  22.7715588  92.2484207   2.1031342  21.7116046  92.6047897
  78.5667502  72.4841689  59.1871595  79.3614851  72.9992127  59.3263245
  78.5697447  71.8425154  59.8974466   0.2812252  23.8726902  51.5967321
   0.4650936  23.3844948  50.7941818  -0.6344547  24.1380906  51.5111589
 106.8872261   0.9807922  71.8692064 106.5635967   0.7317141  71.0034943
 107.1376133   0.1526307  72.2787046   9.0151272  71.3472271  38.2809019
   8.2076893  71.7960548  38.0302548   9.0675221  70.5987549  37.6865292
  54.3298708  94.1337013  94.0990829  54.8264014  93.6776196  93.4196186
  54.9907099  94.4095301  94.7342682  89.3793488  26.6376448  65.5215073
  89.0472221  26.3110137  66.3577127  89.0135098  26.0406399  64.8688364
  85.5107689  24.6944714  74.8170853  85.1818275  25.5928373  74.8481274
  85.0560665  24.2984653  74.0736771 102.8936386   9.3769902  71.3731050
 102.9320812   9.7028321  70.4738951 102.7204704  10.1553082  71.9026947
  73.1275069  92.9803681  67.0975590  72.3832308  92.3786687  67.1131802
  73.3015047  93.1701040  68.0194902  10.5054913  18.1426823  49.6360445
  11.0789261  18.7890661  50.0478554   9.6208344  18.4244680  49.8688984
 109.5308018   1.3899413  90.6070995 109.1677380   2.0501500  90.0167274
 108.9998722   0.6093333  90.4489899 108.5501862  31.6360903  93.9418983
 108.4266281  32.1697211  94.7268867 107.6649857  31.3748956  93.6880684
  51.0597027   6.2449175   0.2873916  50.7529152   5.3383547   0.2714175
  51.9424331   6.1926275   0.6538314  87.4081898   6.1988729  44.5138550
  87.9251671   5.4150522  44.6998501  87.9951191   6.9269252  44.7180080
  79.6419287  36.0405636  57.6749659  80.1283264  35.2404976  57.8738403
  80.0223064  36.3544345  56.8545818  66.4199625 101.6589093  52.6603413
  66.3848387 100.7450514  52.9429388  65.6554781 101.7640328  52.0940018
  98.4753895   1.9644894  80.1912117  97.7547550   1.3348080  80.2117348
  98.4689045   2.3068616  79.2973614  75.5765629   5.5487597  76.5244675
  74.9996805   5.0420433  77.0960236  74.9814415   6.0551536  75.9716272
 104.4596386  23.3608603  56.7286396 103.7124348  23.9497209  56.8342781
 104.4930077  22.8669071  57.5478649   7.5588665  29.8942876  89.4137001
   7.2207032  29.8090124  88.5222912   7.4369965  30.8190465  89.6286488
  78.7706661  27.5498319  81.4221954  79.3198538  28.2112789  81.0013485
  78.2165956  27.2147346  80.7172489 107.5742817  62.2753954  91.7135143
 107.6736259  61.3405037  91.5336895 108.2134056  62.6987839  91.1403751
  60.4521370   5.5754894  49.7871971  61.0514593   5.1774359  50.4185390
  59.5927238   5.2223045  50.0172138  92.6275158  40.3393793  89.5948696
  93.2671261  39.7328472  89.9680328  92.5409222  41.0301971  90.2517605
  84.5926380  12.5517046  87.6016426  85.1226234  12.3805904  86.8231392
  84.8874569  13.4091604  87.9083729   5.9176216  51.8666887  49.6515131
   6.5273819  52.5147247  50.0043201   6.2322388  51.7006779  48.7628651
  80.2124691   6.3876343  53.8232136  79.5861435   6.6314191  53.1416607
  79.7678041   6.5994209  54.6439791 103.9888191  46.5464592  69.9175644
 104.1810131  46.1541510  69.0658712 104.5830536  47.2945642  69.9762535
   5.8275090  37.1478963  62.8392172   5.3974305  37.9191637  63.2085514
   5.5479870  36.4254904  63.4015608  25.4019890  40.5817890  68.0694342
  25.8438836  41.1098623  67.4045277  26.1132870  40.2002668  68.5839558
 112.7527046  48.2421684  83.4189987 112.1818733  48.6865950  84.0457916
 113.6245251  48.5949373  83.5970783  22.1977972  79.8154001   8.9250487
  22.6183294  79.7525935   8.0674762  21.5965532  79.0710812   8.9520663
  79.8739672  18.5157883  68.9181376  79.2248058  18.4368563  69.6171284
  79.8688745  19.4454896  68.6904049 102.0608616   5.5723250  80.9512043
 101.8106842   6.4203399  81.3179684 102.9186630   5.7262546  80.5553246
 115.9469223  26.8118143  53.6669064 115.9625053  26.9963574  52.7277946
 115.7731056  27.6601076  54.0748453  13.2551169  75.3025513  21.0841292
  13.6196875  74.4244854  20.9731311  12.7477144  75.2505832  21.8941134
 115.9106827  20.0234389  63.3290625 116.1515808  19.6841121  64.1910744
 116.1549187  19.3262267  62.7203941  76.0015059  45.1773167  58.5103655
  75.4998684  44.5266104  58.0192709  75.4633570  45.9682846  58.4788656
   0.4183350  42.1283484  59.2115164  -0.2774467  42.3237801  58.5838842
   0.4247342  42.8802538  59.8038292   4.4184075  69.5374060  80.5636215
   4.4448815  68.7043047  80.0930119   4.7650872  69.3330145  81.4321041
 104.5342541  47.9368258  76.5755844 103.5988426  47.7947617  76.7206764
 104.7750378  47.2889233  75.9134054  85.4751396  64.8505735  80.6011295
  85.2232361  64.2471647  81.3001823  85.3779793  65.7203007  80.9888935
  95.3762341  65.7228661  91.1518002  96.0145092  65.2682638  91.7014885
  95.1482582  65.0870275  90.4735947 108.1051731  24.9665618  74.1084623
 108.8927937  24.4226313  74.1031027 107.4151134  24.3921018  73.7767315
 110.4174232  40.4375982  88.8015079 109.5346546  40.1371479  89.0175629
 110.7399750  39.7970605  88.1675529 105.1097584  46.5544271  53.4176970
 105.2479362  46.1016464  54.2496347 105.9051991  46.3794756  52.9147959
 107.5358868  58.9948940  22.0272493 108.2247639  59.0482903  22.6896882
 106.8187332  58.5353422  22.4639797   0.2791844  28.9629769  82.6682568
   0.0470314  29.7812223  82.2291565  -0.2990951  28.3084893  82.2764969
  21.1228142  24.3586779  63.8946009  21.0496006  24.2905283  62.9426432
  20.5853138  25.1172304  64.1224670  31.1988411  16.8882740  44.1676760
  30.8419476  16.0523891  43.8674116  30.7832680  17.5419748  43.6053514
 102.8859901  16.6385984  61.2482405 103.5803699  17.2848976  61.1202860
 102.7065945  16.6626954  62.1881723  92.7920805 101.7601615  62.7070475
  92.2749888 101.7877632  61.9020081  93.6951910 101.6540276  62.4081087
  34.0213667 100.8287387  92.1510220  33.6870323 100.7659923  93.0457401
  34.7233855 100.1792406  92.1115589  93.9489365  19.2511308  64.1432476
  93.9281464  18.3041275  64.2810345  94.8470020  19.4332528  63.8666058
 113.2403278  42.3349810  72.3665428 113.4324646  41.4821720  71.9766235
 112.3077297  42.2966909  72.5787210  78.8373934 109.4568662  65.6822157
  77.9198252 109.6456244  65.4855394  79.2681776 110.3113112  65.6581688
  92.7435112  18.5182214  75.7263708  92.3141098  18.4870195  76.5812826
  92.7357006  17.6110160  75.4211712 114.5055199  16.8066764  71.9232416
 113.7640858  17.3715091  71.7053509 114.9396515  17.2514665  72.6511955
 115.1802921  33.0480599  57.5970459 115.4998302  33.2355785  58.4796333
 115.0522995  33.9098167  57.2005320 111.0441303  12.8531063  55.6279182
 111.2443256  11.9580543  55.9018469 111.8855476  13.3081162  55.6627893
 100.4828453  42.0008326  48.3905458 100.8661938  42.8773165  48.3581352
 101.1058044  41.4857531  48.9032269 113.8175297  34.4758391  69.4783640
 112.9958534  34.1520739  69.8474741 113.9772606  33.9140201  68.7200260
 116.2790012  36.5491533  82.4275208 116.2259388  36.1779594  83.3082199
 115.5757809  37.1978927  82.3982716  92.2182465  38.6376381  60.4393053
  92.4783134  39.5323372  60.2199602  91.2712574  38.6226797  60.3006744
 107.4149609  52.8726959  59.2415762 107.4893093  53.8267422  59.2638826
 107.4226856  52.6535749  58.3098269  75.6992435  68.8008928  90.3008652
  75.1939106  69.3790722  90.8723259  75.2412128  67.9614973  90.3439140
   0.3505860  35.6134987  69.8426199  -0.4818382  35.2646255  70.1613712
   0.9492836  35.5190182  70.5834723   8.7085209  21.7046213  47.8621769
   9.1904984  22.0195150  47.0974731   8.2487259  20.9248543  47.5510788
  18.4596132  52.6441071  17.1125239  18.3181356  53.5349839  17.4327582
  18.1207441  52.6547204  16.2173766 101.3472652  41.9974422  54.6107674
 100.5752087  42.2083855  55.1358080 101.3619995  41.0408449  54.5801067
  22.4416040  87.1248846   7.2718543  23.0382513  87.8733664   7.2666759
  22.9256414  86.4296656   6.8261928  13.9221344   7.0832241  66.4178753
  13.1475411   6.9669008  66.9680691  14.5666085   7.4927509  66.9950867
  59.9033630  10.5466324   5.1171798  60.6913078  10.9091097   4.7122306
  59.1906631  10.8162170   4.5378608  13.2801495  10.9379387  51.9104719
  12.9725418  11.4686489  52.6452923  12.8136979  10.1072383  52.0031738
  72.0772528 109.0509562   3.3626002  71.5656065 109.6889453   2.8651923
  72.9334902 109.4643645   3.4730071 101.2975693  67.0624876  80.4769230
 101.4270115  67.5462723  81.2926674 102.0775986  67.2563648  79.9571228
 114.4973911  65.2419107  12.7332705 115.0179781  65.3351634  11.9354457
 114.5306648  64.3063705  12.9329986  10.6440602  71.7706251  48.0554867
  11.1847077  72.0810366  48.7818336  10.9063683  72.3139906  47.3123980
  77.2500134  24.1625714  20.9043360  77.0657158  24.2278314  21.8413568
  77.0033598  25.0175452  20.5516100   4.9528370  25.2977467  53.8835764
   5.1313172  25.7891154  54.6854115   3.9994297  25.2159500  53.8600016
  13.0199585   1.3709004  82.9503155  13.3580552   1.6484831  82.0989227
  12.2656880   0.8201864  82.7405071  97.2587776  57.7637768  21.0955405
  97.8915215  57.3231077  20.5283785  97.7684212  58.0316162  21.8602371
  12.5550423  40.2179670  45.4857969  12.9900036  41.0475969  45.6826544
  12.7792130  39.6493101  46.2224150  89.1151237  58.8632679  43.6481619
  89.9342346  58.3680296  43.6532307  88.8757515  58.9208269  42.7231646
 113.7917328  47.7610683  37.2487783 114.4995403  48.3091688  37.5876403
 114.1727829  47.3201895  36.4893985  85.8428383  31.3784766  67.3426819
  85.6679153  31.4209294  68.2828045  86.1904240  30.4975772  67.2032690
 109.8659515   6.3410461  66.1631632 110.5360889   6.9449037  66.4833260
 109.2213440   6.3021326  66.8697023 102.3962879  27.6461339  48.8528395
 102.0255566  27.4442720  49.7119379 101.6749573  28.0487752  48.3693123
 105.4047966  38.6220717  47.8146935 106.1191177  37.9863381  47.7718925
 105.7028961  39.2749977  48.4479809 115.6005287  54.0427494  73.5870838
 115.4255295  53.9931154  74.5268440 114.9643040  53.4458733  73.1931305
  90.8238602  53.0629444  55.2871704  89.8903847  52.8638315  55.2150679
  91.1702538  52.3817158  55.8635187   2.4482975  18.8587880  80.6235981
   2.6006089  19.6879029  80.1701641   2.4214802  19.0943694  81.5509605
 111.9309044  45.6702089  83.4836006 112.0763016  45.6275320  84.4287300
 112.3074532  46.5101480  83.2210255  92.7397251  58.4774590  79.1727448
  92.0224380  58.6963844  78.5779285  93.4835052  58.3015299  78.5964918
 100.4049778   0.8464087  81.8870354  99.7185516   1.3247398  81.4220142
  99.9541759   0.4394246  82.6268768  15.5919419  38.4017944  71.1154509
  16.3043461  38.2907796  70.4858541  15.2749119  37.5132823  71.2775326
  12.9329358  18.0336535  18.5901594  13.7212143  18.1068456  19.1281939
  13.1735764  18.4377885  17.7564955 111.4468479   4.5670372  92.2002411
 111.9201660   3.9985240  92.8076839 111.2422848   5.3485674  92.7136517
 102.7768326  34.0431523  78.6141872 102.7017117  33.5127544  79.4074535
 102.3809814  33.5055542  77.9282427   4.2981491  40.7557201  84.6277237
   4.9537335  40.6797504  83.9344215   4.8027764  40.9716511  85.4119110
  90.1905537   6.8372458  35.0690794  89.2656612   7.0816910  35.1013899
  90.3758240   6.7235714  34.1368866  11.7257176  19.1736388  68.0127096
  11.5239582  19.7208023  67.2536707  11.7224179  19.7804010  68.7530231
 102.4614048  51.5555811  79.5586157 103.2570457  51.1023331  79.2797756
 102.3989201  51.3747263  80.4964924  16.1219941  63.6726809  65.2567148
  15.1792298  63.7214327  65.4149866  16.3635598  62.7848577  65.5206203
 109.1676426  20.9069037  79.3122721 108.9904690  20.7241154  78.3895397
 108.3114529  20.8498025  79.7364378  68.1473875  29.6996546  81.7930603
  68.8414383  30.3388071  81.9543457  68.5344505  28.8589954  82.0374107
   6.9581852  74.6107864  81.9619846   7.0825253  75.4756212  81.5710449
   6.6608391  74.7915268  82.8536892 111.2991142  33.5858107  70.3668451
 110.5556393  33.8130641  69.8084307 110.9033871  33.1885648  71.1426210
 105.2712822  39.4831824  85.3449917 104.8136806  40.3204441  85.2686977
 106.0314465  39.5724487  84.7701836  16.0570774  13.3355713  65.5990314
  15.6494675  14.1958344  65.6991768  16.3853035  13.1228888  66.4726830
   1.7907582  37.7281761  35.0535941   1.7792282  38.4324646  35.7017255
   2.7110539  37.6486278  34.8026800  97.2346210  27.9076815  64.9143219
  97.5213242  27.6754475  64.0310907  96.8578815  27.1001697  65.2639246
   5.2369175  21.6325855  48.9207935   5.7250748  20.8539248  48.6531734
   5.1303063  22.1372962  48.1144857  22.6755308  73.7610726   6.9844359
  21.8806719  73.2279496   6.9990176  22.6105475  74.3093829   7.7663344
  35.0997423  71.0877447   7.6579398  34.5382284  70.9712033   8.4243316
  35.4678988  71.9651728   7.7619571 110.1049709  35.8811831  73.1374788
 110.4872799  35.0036860  73.1289911 109.3155670  35.8037019  72.6016951
 113.8241100  56.5730238  90.7632065 114.3253422  56.0629034  90.1269913
 114.3541813  56.5496635  91.5598965 100.6586838  32.4678469  54.7438097
 100.5497932  33.1430507  54.0741301  99.8817158  31.9157529  54.6558475
  20.5886244  94.1146927   9.7468204  20.7539820  93.8031058   8.8569850
  20.8763479  95.0275855   9.7382659  15.2046179  99.5321374   4.3314857
  15.8988833 100.1613049   4.5273417  15.0974440  99.0337949   5.1416701
  92.3779488  55.8762407  88.6672878  91.7015648  55.2179813  88.8267517
  92.4048805  56.3920689  89.4731617  79.3897295  11.3079977  65.5044317
  78.6050177  10.7624805  65.5579710  79.1748667  12.0876002  66.0165691
  41.4346396  97.5026774  89.4350719  41.8935381  96.7373919  89.0886879
  41.9678961  97.7858316  90.1778316 100.0398350  23.4837055  79.8228979
 100.6029606  23.1343031  80.5135822 100.6437588  23.9070106  79.2127180
   3.9093933  53.3961678  37.2513247   3.5645256  53.0463409  36.4297915
   3.5315476  52.8345776  37.9281402 104.7803593  14.5061088  62.5777292
 104.0611172  15.0704908  62.8612471 105.5459881  15.0805235  62.5679445
  96.4866543   8.8608593  68.2845879  96.7312717   8.1273943  67.7202940
  95.5955505   8.6575282  68.5688686 110.5155087  24.5344615  52.8071833
 109.6325493  24.2970943  53.0905151 110.3851414  25.2682543  52.2065258
 108.1054688  48.9939213  79.1249609 109.0309811  48.7678528  79.0325069
 107.7632236  48.9723587  78.2312965  95.5305099  18.7176883  72.9244232
  95.5104446  17.7719462  72.7781343  95.9102726  18.8170063  73.7974358
  95.0111008  34.1352081  87.0004559  95.1207447  33.2274842  87.2837448
  94.1025162  34.1853523  86.7034912  96.0952473  11.8406951  76.5548420
  96.0431671  11.4734447  75.6724358  95.2138710  11.7318237  76.9119883
 107.6994514  26.8070483  80.0544357 108.3786106  27.4700212  80.1786709
 108.1825256  25.9930730  79.9119091  96.1969852  28.2468438  83.9039040
  95.4842854  27.9657197  84.4777107  96.9422340  27.7058291  84.1649437
 111.5963364  44.4570255  61.5984011 112.4022293  44.6149349  62.0901585
 111.4038467  43.5309172  61.7450285  56.2121939  72.6522260   1.2092322
  55.8164572  71.7809217   1.1878509  56.3651156  72.8684680   0.2894038
 102.0786762  39.4771147  68.8486004 102.7999306  38.9920855  68.4476328
 101.4096642  38.8140798  69.0190029  88.5144711  61.7137671  33.0042219
  87.9543400  60.9439993  32.9044938  88.2137775  62.1254396  33.8143706
  89.5437145  14.9083388  90.4687881  90.2629280  14.8441815  91.0971642
  89.9660397  14.8341715  89.6129990   6.7892895  11.8476713  88.6295891
   7.1701680  11.0283923  88.3134365   5.8579502  11.6536856  88.7354374
  94.3393230  48.8916922  93.3735847  93.4575748  49.0276194  93.0267715
  94.2224884  48.8705683  94.3233871 109.0425014  61.3439941  66.1955118
 108.6466599  60.7169294  65.5902672 108.7895203  61.0310316  67.0640087
  85.3281772  10.3400617   5.7779235  84.6769226  10.4514890   5.0853271
  86.1647880  10.2950483   5.3150195  10.1783142  28.1022501  56.2243366
  10.4983864  27.2004485  56.2474775  10.2836094  28.3704257  55.3115273
 103.2308483  34.9282575  67.2648859 103.6126614  34.3977952  67.9642153
 103.2931137  35.8279991  67.5855398  94.3249416  22.3021626  82.4071693
  94.8325253  22.1407533  81.6118431  94.9810505  22.5138068  83.0712128
 112.6509190  27.0199800  45.5238008 113.0673027  26.3045239  45.0431919
 112.1946430  26.5892839  46.2466717  68.5273636  17.0634609   9.5946998
  69.3393314  17.2999244  10.0430602  68.0064667  16.6169744  10.2621955
  22.5483761  29.7651267  54.7102022  22.7820263  28.8845277  55.0037766
  22.7215538  29.7575855  53.7688255  12.5825367  48.8709116  58.4415817
  12.1577320  49.3113470  59.1776466  11.8745194  48.3974314  58.0048180
  88.4302794 108.2481197  75.6879616  88.4623324 107.7726785  76.5181160
  88.3069884 109.1631129  75.9405851  15.0684128  46.5726471  67.0479774
  15.5226288  47.3847485  66.8234634  14.1602383  46.8382549  67.1925545
   5.0545750  52.3561668  73.1784964   4.2071591  52.5638771  73.5721827
   4.8803387  52.3244905  72.2378206 109.4115353  39.4738960  55.4131269
 108.5505676  39.2662263  55.0500393 109.8227024  38.6215734  55.5570698
  91.9291782  53.5827637  72.9077482  91.4456367  54.0884542  72.2545290
  92.2110653  52.7960443  72.4410152  14.3490467  34.1153145  35.2812409
  14.6902714  33.9101934  34.4107699  14.5972309  33.3634138  35.8190870
 104.1806984  31.2265682  90.0384426 103.7796879  31.8282032  89.4111824
 105.1083469  31.2178922  89.8025608  95.4285622  39.4436431  85.0381184
  94.8142338  39.1280770  84.3753624  94.8787594  39.6571493  85.7920170
 106.3774776  33.5613036  56.0138559 106.6771126  34.4510245  55.8271790
 105.6719112  33.6748552  56.6506577  14.7944317  56.6276073  31.4910698
  15.5624352  56.1806774  31.1351943  15.1464234  57.4152613  31.9057250
  16.1968861  42.7815914  76.3478374  16.2440453  42.1696138  75.6133366
  16.2371407  42.2254896  77.1258879  98.9669514  71.7293072  87.9132080
  98.9479637  70.9667921  88.4915161  99.0996647  72.4727392  88.5013676
 102.3081398  53.8130140  77.6297235 102.4337006  53.0908871  78.2453489
 101.4649868  54.1935778  77.8756952  18.0282364  31.7804837  90.4976559
  18.2612763  32.1759915  89.6577168  18.1727467  32.4766541  91.1385155
 113.2117176  67.0952272  83.6376572 112.5079060  67.5397110  83.1650925
 112.8170395  66.2779951  83.9419460   8.5731278  20.5545330  55.1176119
   8.0298863  20.3325272  54.3614101   8.6777459  21.5046358  55.0667000
  27.9666876  75.9624963   2.7265662  28.1508040  76.7712216   3.2043666
  27.0706343  75.7359247   2.9755229 106.3060856  22.4895978  60.9532118
 105.7069969  23.2179976  61.1168003 106.5560913  22.1845913  61.8253899
  72.0568657   9.4094062  65.2289486  72.5243139  10.1420295  65.6301785
  72.3497581   8.6411589  65.7190895  20.7545243  67.0285845  70.4314041
  21.2428055  67.5672388  71.0540342  20.4339848  67.6495934  69.7773170
 102.1828270  14.4292402  83.3600426 102.4122143  15.0507438  84.0509415
 102.1671200  13.5785830  83.7986374 115.4373741  50.0882673  72.9434919
 115.3659725  49.9754572  71.9956493 114.5607758  49.8929596  73.2746458
 113.1366539  80.4719448  61.8621349 113.1136036  79.9833202  61.0393667
 112.4586678  81.1403084  61.7628384  55.9615969  73.4038238   5.8562201
  55.1861643  73.9455776   6.0026378  55.6131720  72.5584798   5.5729789
   5.2719365  45.2426767  94.1418076   5.5232296  45.7794809  94.8934269
   4.7248707  44.5508766  94.5137691  96.3353729  11.0477114  88.1861210
  95.5988216  10.5672228  88.5640907  96.2241745  10.9512949  87.2403049
  89.4756413  45.1257038  54.1324139  88.7580490  45.7076025  54.3828011
  90.2639484  45.6581783  54.2385483 115.7680130  39.1773033  65.1415300
 115.7410431  39.4295096  66.0645151 116.1444950  38.2972550  65.1446104
 105.8507061  42.1770620  80.9865856 105.4403114  41.4625502  81.4737034
 106.4570808  41.7413378  80.3876877  93.5274506  18.7989748  84.9980450
  93.8401890  18.5234082  84.1363621  93.0915737  19.6360552  84.8382092
  82.3363495  13.9483654  49.3366003  82.8485680  14.0806580  50.1343250
  82.9145908  13.4479225  48.7609053   2.4347256  19.4013792   2.0657367
   2.5079106  19.8027664   2.9316253   2.7776192  18.5153919   2.1826858
  30.1420092 108.6274724  10.5917567  30.6531214 109.3614964  10.2508658
  29.2936968 109.0099721  10.8159942  89.1604519  24.3488002  80.4353333
  89.5492935  25.2127600  80.2989292  89.9024868  23.7448502  80.4060650
   2.1491967  10.6458282  78.8937378   1.2484799  10.9051383  78.6995840
   2.4113331  11.2143767  79.6178055 100.0024509  24.8435545  69.2868423
  99.2259216  24.8987508  68.7299061  99.6856976  24.4532895  70.1014566
  -0.1538219  34.2306471  40.3351402   0.2814160  33.3791184  40.3763723
   0.5474625  34.8482800  40.1278448  15.4131184  24.8485756  83.4941387
  15.8867989  25.6786156  83.4403801  14.4996415  25.0830650  83.3304119
 103.0506134  20.6622791  62.3752069 103.4583855  19.8841596  61.9950914
 103.5125732  20.7946014  63.2030439  77.5713634  70.3823137  82.6395988
  77.2822952  69.8250628  83.3621979  77.2343731  69.9505806  81.8545723
   3.7796078  47.8008604  90.0549984   4.1593991  48.5332060  89.5695400
   3.4985791  47.1849775  89.3782806   7.7384053  52.8837585  55.3503036
   8.3388386  53.6193323  55.2292824   7.3529492  52.7444077  54.4852972
 105.2049065  44.5237446  60.4055643 105.9434795  44.7342777  59.8342276
 104.9957657  43.6124229  60.2006578  15.5713616  27.8222680  83.2530880
  15.0996647  28.4990263  83.7386036  16.4816914  27.9168797  83.5334206
 113.2679939  34.2124629  63.7816143 112.6348972  33.5478878  63.5100174
 113.7009239  33.8325763  64.5461321  37.3251686  41.6475773  90.3204536
  37.2579823  41.4546108  89.3853188  37.5528870  42.5765562  90.3575611
 108.3203411  18.6799014  82.6736450 108.7774372  19.4717729  82.3903942
 108.8004875  18.3907795  83.4496021  37.0683550  94.6518331  23.8693160
  37.7015947  94.2885570  23.2502288  36.2305807  94.6080642  23.4083861
  97.0962143  24.0754366  51.4503098  96.4925957  23.4602785  51.0338259
  96.5346527  24.6382761  51.9833183  10.5138359  43.3053875  32.6029825
  10.2097283  42.9975748  33.4567976  10.0365982  44.1225624  32.4590945
 112.4299335  72.7362585  82.3518372 113.3673954  72.7072573  82.5430107
 112.2127914  71.8439102  82.0820236 111.1237907  45.2385712  51.7680264
 111.7557812  44.6080017  52.1132851 111.0935497  45.0574732  50.8285999
  95.3867626  20.2182746  60.3411674  95.3215218  19.7101355  59.5326090
  95.4172707  19.5603359  61.0357285 110.5457592  18.3185661  64.1771173
 110.4528618  17.5684023  64.7643614 109.7317600  18.3308458  63.6736441
  19.6214638  50.3412962  73.0962706  19.2268238  49.9378777  72.3231316
  19.2854081  49.8289680  73.8316727  86.8728638  54.0301609  68.8502550
  86.4452648  53.3117962  69.3164587  86.5918541  53.9265633  67.9411173
 104.8977184  50.0464010  36.3329053 105.5060101  50.7552671  36.5420079
 105.4027081  49.4539309  35.7759571  29.5451889   4.7412923  52.6862097
  29.8847638   5.4944503  52.2028112  30.2730236   4.1198504  52.7035236
  84.7120190  67.9592514  45.6152391  84.7744942  68.9104462  45.7021523
  84.1621208  67.6872063  46.3499689   6.2512265   7.1131843  86.0577679
   5.5245743   6.5621859  85.7668781   6.8355713   7.1581966  85.3009701
  10.5921612  73.4978104  45.7414627  10.9555016  74.3627357  45.5514145
   9.7172127  73.6760712  46.0863066  98.3862591  80.2940655  53.7590027
  98.1189060  79.5402861  53.2331038  98.7565231  80.9088135  53.1255817
   3.2857476  20.9913969  79.3319321   3.8936959  21.5081358  78.8031578
   2.8522549  21.6332674  79.8943567 112.8914547  51.4648390  76.6687870
 112.3193264  50.8681679  77.1513557 112.2978592  51.9659090  76.1094904
   1.6694889  76.3859034  44.1085672   0.7571755  76.5635872  44.3373680
   1.7055855  76.5033150  43.1592846  92.3120022  62.4957991  49.8680401
  91.6982841  61.9410419  50.3495121  91.8980598  62.6266098  49.0149450
 105.3520298  62.2942114  88.2759380 105.6461239  61.4103603  88.4962654
 104.4576550  62.1762228  87.9559135 111.0630322  44.9015284  46.3458872
 110.1240826  44.7884560  46.1981773 111.4739609  44.5464182  45.5576849
 101.7600632  37.5671124  83.4331703 101.6961861  38.4586024  83.0905342
 102.6972485  37.3727155  83.4217739 108.9877319  29.3954015  81.4329243
 109.0542793  29.7068310  80.5302525 109.8270893  29.6289515  81.8293571
  90.2237415  67.7719831  39.6894240  90.0741768  68.7118196  39.5865917
  89.5054245  67.4748516  40.2479649 101.5947151  25.9504342  79.4964123
 102.3998833  26.4039707  79.2469358 101.5643978  26.0234833  80.4503345
 103.2716656  18.8145971  68.1013823 102.7144146  18.9852691  67.3420572
 102.8063679  18.1375158  68.5925961   9.8485718  46.0940313  68.8523912
   9.5922337  46.9345665  69.2318964   9.1328965  45.5004025  69.0796661
 112.5701332  43.8468838  76.2263155 112.6896191  43.9502859  77.1703815
 113.4138393  44.0964651  75.8493471  87.3020935  51.5165186  64.6264124
  87.5200844  52.4360514  64.4741726  86.7778111  51.2655735  63.8659000
  10.8240853  43.8071728  63.3690071  10.0469647  44.1984844  62.9700279
  10.8054505  42.8936052  63.0839109  12.8775177  60.0428343  89.0155792
  13.2506810  59.6655178  89.8122120  12.0824204  60.4867601  89.3104935
  97.4817944  35.5274034  50.2098036  96.9385719  35.8621907  49.4963264
  96.9821072  35.7217050  51.0027647  28.9074765  14.0999281  44.5423651
  28.6673794  13.1733489  44.5485926  29.6366177  14.1542661  43.9246082
  98.9254189  32.2124624  76.2815905  98.2046509  32.8206325  76.4454651
  98.6222267  31.6729188  75.5513859  91.6796398  23.4620333  40.2866268
  91.8344021  23.1658864  39.3896413  91.9536018  22.7252007  40.8327532
  67.7423166 107.9640870  11.8075961  67.6629232 107.1849875  12.3579902
  67.3596453 107.7051311  10.9693068  96.3372707  22.2221518  48.6608887
  95.8321762  22.9161739  49.0844965  96.5132141  22.5566363  47.7814627
 115.9533024  59.4755697  33.7877011 116.1452103  58.6062336  34.1393375
 115.8316612  59.3327713  32.8490615   9.9059353  77.4210882  74.6832037
  10.1750241  76.8317080  75.3877974   8.9883004  77.6171255  74.8722649
 109.6882725  76.4071512  69.2305565 110.2208424  76.1916637  69.9961710
 110.3228188  76.6685772  68.5632896  27.3633156  45.9754419  58.4499645
  26.4599762  45.6610441  58.4130573  27.3423729  46.8180799  57.9963589
  96.1547947  60.4454565  71.2421751  96.6044998  61.0557318  71.8266058
  95.4734612  60.0506783  71.7863989  20.3781281  44.5621347  80.9364033
  19.4475327  44.3715143  81.0542107  20.6669674  44.8827887  81.7908001
  22.8680478  36.2143254  77.9554844  23.3312760  35.6264329  78.5521698
  21.9522248  35.9421873  78.0141115   6.5471993  40.3325367  76.6514349
   6.5459023  39.4735050  76.2291908   5.8773003  40.2659607  77.3319006
  48.1295668 102.0288049  49.1181278  48.7674509 102.6431178  48.7548685
  48.6356341 101.2364786  49.2979860 113.6496258  64.6084261  85.9677124
 113.5324383  65.5579185  85.9986401 112.7634144  64.2550659  86.0452271
  70.8695793  71.0245132  85.5589962  70.2514696  71.7090702  85.3029633
  71.7313290  71.4007425  85.3799248  17.8227291  27.1560621  62.4478960
  17.5638543  27.5955224  63.2578897  17.9763852  27.8685355  61.8274069
 115.0670052  10.6189036  78.1902981 115.2940178   9.9243695  77.5719738
 115.2080536  11.4299345  77.7018642  77.2405720  61.9465780  56.4767838
  77.0932817  61.1360693  56.9642353  76.4549351  62.4691153  56.6379070
  91.1364555  87.3157883  53.3122492  91.9069386  87.6113319  53.7972641
  91.2472534  86.3676739  53.2412958  11.1792813  46.6611338  79.2443180
  10.6203041  46.6303539  80.0207424  10.5762539  46.5438890  78.5102558
   8.3520756  86.6147327  83.3614826   8.2314453  87.2214413  82.6310062
   7.5562249  86.7088699  83.8849354 113.9240932  69.9943256  76.2063456
 113.9573288  69.1650295  75.7294846 114.7222996  70.4532480  75.9446430
 104.6886349  70.8355284  66.4607239 104.3955803  71.0091448  65.5661821
 105.1688194  70.0097561  66.3994360   9.9770127  95.3110600  70.2230978
  10.2160797  94.6231937  70.8443308  10.0056229  96.1182308  70.7367945
   8.0666695  80.0774574  94.7347069   7.6125489  80.9200001  94.7230530
   7.3729000  79.4297028  94.6108913 103.1943130  52.2211313  51.1454964
 103.9300728  51.8761158  50.6396723 103.2196903  51.7330885  51.9685411
 114.0079021  82.3932743  45.5005646 114.5783043  82.4102116  44.7320652
 113.6691952  83.2860565  45.5671692 106.6605759  40.3971910  67.9486799
 106.3455582  41.0474586  67.3208714 107.5937748  40.5880404  68.0432796
 103.4402275  81.6202259  53.4128761 102.9136658  81.6279793  52.6135588
 103.8400841  80.7506752  53.4278536  33.5779057  85.7338142  73.0364943
  33.0622063  86.3337708  73.5753250  34.4876728  85.9506989  73.2402420
 100.5815983  37.6549768  34.0193009 101.0214329  38.4839511  33.8306785
 100.2242947  37.3761582  33.1761956   2.2990570  23.4353018  42.0068598
   2.4724636  23.3531332  41.0690928   2.7067337  22.6608944  42.3945761
 108.4777927  77.2983551  49.4269419 109.4198895  77.3525381  49.2664623
 108.0839729  77.7995014  48.7128067  35.2556763  28.9297414  27.0285273
  34.4055996  29.3501568  27.1583533  35.0559388  27.9947376  26.9826198
  18.7375985  25.3049159  78.6830759  18.5480080  25.9011149  77.9586220
  17.9032479  25.2144051  79.1434002 100.3199196  42.7625561  52.1091557
 100.7499123  42.6411104  52.9556704  99.7450161  43.5168600  52.2385693
  95.3244305  40.8799791  53.0952978  94.7679043  40.2864170  53.5994768
  95.9067535  40.3017330  52.6025915  14.6147499  50.6544828  93.6967468
  14.9875412  50.2733803  94.4917393  15.0664101  50.2062368  92.9816818
   1.5246640  67.1768141  69.0160084   2.1354447  67.8371477  68.6886835
   1.0653458  67.6108503  69.7349501 113.9881992  66.5514898  92.8089333
 114.8043156  66.5141916  92.3101425 113.2999039  66.4760923  92.1480179
 105.3768253  32.0646214  61.4958000 105.0406551  32.8592205  61.9103336
 105.8143616  32.3748112  60.7029724  31.8714212  95.4071622   7.4093646
  31.8197512  94.5559912   6.9745463  31.1961435  95.3714185   8.0868262
  90.9254360  58.9676189  64.5091343  90.9276962  59.6676779  63.8563347
  90.7957840  58.1667995  64.0010881  70.4527664  71.0760450  44.7577333
  70.8175755  70.2453327  44.4526672  71.1533451  71.7123365  44.6143675
  15.6705723  23.7331510  49.3097687  14.8294411  23.3811808  49.0184784
  16.2886677  23.0136275  49.1814232  88.0770302  58.7751150  77.2088385
  88.3776665  59.2955685  77.9538059  87.5106716  59.3682718  76.7152500
 102.2381687  44.5234776  46.0052538 103.0642700  44.5739698  46.4861155
 101.6708946  43.9873457  46.5593243 114.0725231  82.0944595  70.6861210
 113.9484406  81.7607784  71.5746546 114.8891544  81.6917419  70.3909016
  98.0191994  34.5089841  54.1799784  98.8342190  34.3577242  53.7013435
  97.7755547  35.4081273  53.9599419  54.5861219 103.3154635  26.8876475
  53.6975550 103.3015208  27.2433013  55.1426481 103.5121970  27.6411742
  82.2003078  66.9800329  86.1812782  81.2594795  67.1366739  86.1004639
  82.3261833  66.7470646  87.1011257  87.6648808  50.6084538  74.9243259
  88.4483051  50.7150602  74.3847799  86.9946671  51.1263371  74.4784117
 102.4947929  47.0386505  90.2275181 103.3437634  46.7951393  90.5965424
 102.5153923  47.9948854  90.1898575 111.2418842  76.7450905  64.3534470
 110.8936977  75.9685183  63.9153481 111.0457039  77.4659014  63.7549686
   9.9583029  92.1067648  11.0644740   9.7205805  92.0743971  11.9911117
  10.6762575  91.4794497  10.9793300  65.4999244   1.6290718  21.7014522
  65.3106964   2.5323921  21.4476127  64.7625816   1.3770252  22.2573585
  99.6817589  57.5916672  63.4621000  99.9468994  57.6072598  64.3817139
  99.5917511  58.5141706  63.2231045  95.6099510  36.1840677  77.6595640
  94.9271870  35.7086110  78.1328535  95.9533596  36.8088794  78.2982445
  17.6589833  31.2181211  44.3782377  16.8278656  31.6455507  44.1714287
  17.8698311  31.5193439  45.2620029  24.6757088  50.7524204  46.6988325
  25.1339970  50.8638954  47.5317621  25.0410424  51.4314795  46.1316919
   0.1643715  67.6372004  32.6878285   0.5658970  68.2463455  32.0681977
  -0.3264846  67.0258284  32.1387172  17.6768170  59.4916296  56.5766954
  18.5441933  59.5558977  56.9763947  17.5815640  60.3038311  56.0792160
  93.7684917  36.6193604  86.5133476  94.2475033  35.8209538  86.7354393
  92.8968239  36.4872408  86.8861389 100.1680183  39.0124679  76.0017967
 100.4166412  39.4710493  76.8043709 100.9441566  39.0674782  75.4442835
 110.5498505  51.9952631  36.7217541 110.9328938  51.1271381  36.5958214
 110.2761650  52.0055389  37.6389360 106.1296749  59.2634153  43.6243010
 106.0666656  60.2091408  43.7579679 106.9490051  59.0150785  44.0523958
  77.1384322 107.9326009  88.7370872  76.6440760 108.3561803  89.4388199
  77.5755011 108.6532157  88.2833099   5.9492550  30.9590554  48.5644150
   5.2413521  31.5959954  48.4673500   5.6549416  30.1961851  48.0667734
  23.2821522  49.4667864  77.1165943  23.2369004  49.1324043  76.2208414
  23.3531723  48.6830473  77.6615143   9.9855671  31.9760203  63.9094067
  10.6463395  31.4025950  64.2977285   9.7655068  31.5583611  63.0767202
 100.1709175  60.3823519  63.1263494 100.4596901  61.2592173  63.3792496
 100.3339767  60.3389406  62.1841431 103.1989193  73.1049061  71.9853544
 102.6213455  72.4785614  72.4216223 103.1314468  72.8858423  71.0560036
 107.2702408  59.3467903  81.6182423 106.7497921  58.6763763  81.1756229
 108.1131172  59.3338013  81.1647892   1.3394127  58.5886097  28.8810229
   2.1318589  59.0831900  29.0899706   1.3234387  58.5547495  27.9245567
   2.1164189  60.5519152  41.3217878   1.9573174  60.7661009  42.2410488
   1.2431679  60.4257679  40.9506416  42.7413807  37.0456290  81.2465191
  41.8104611  37.1275973  81.0393906  42.7700386  36.4345288  81.9827080
   9.7159348  21.9782257  70.8061028  10.5419312  21.7042041  71.2047005
   9.0479241  21.4690828  71.2652016  83.3419037  34.9850821  32.4812245
  83.9079189  34.3649745  32.9409289  83.8751602  35.7748866  32.3913288
 105.0748825  37.3983788  54.2108583 105.5798912  36.6490149  54.5265341
 104.5768547  37.0560002  53.4685802   6.3472805  39.2901230  73.0680084
   6.7638169  38.4838367  72.7636528   7.0244274  39.9600101  72.9733610
 101.5201664  79.2449713  84.5129871 100.6052399  78.9638329  84.5231724
 101.6335011  79.6606636  83.6582470  98.4968185  58.4719086  66.3851309
  98.4868908  59.3229437  66.8231678  99.3829250  58.1393003  66.5280437
  86.2705421  48.6796522  55.9095192  86.1347961  48.1889963  56.7201138
  85.3882694  48.8307428  55.5703974 105.2465820  19.2815709  64.4322729
 105.8925724  19.8980784  64.7770166 104.4234180  19.5406485  64.8464060
  15.3280506  52.2366619  63.3185339  16.1361466  52.5990105  62.9553413
  14.7644482  52.0979643  62.5573874 112.4521065  66.4589691  64.5171118
 112.4560070  66.9773149  65.3218079 111.7067432  66.7949915  64.0193701
  40.0609837  83.5577297  66.1389494  39.2316494  83.1210613  65.9446383
  40.6975041  82.8456593  66.2023640 110.1320934  33.7824512  60.4992199
 109.3385410  34.3171549  60.5234861 109.8298264  32.8960943  60.6973028
 105.1429653  84.3973446  72.2353458 105.5762768  84.0251923  73.0034447
 104.6651459  85.1547432  72.5733900  19.0724430  90.6012249  30.2207637
  19.0175686  90.7209301  31.1688614  19.8855458  90.1140308  30.0875282
  11.8235073  49.9504280  79.1141939  12.7761135  49.9777412  79.2038393
  11.4976178  49.9694967  80.0140095  76.9233774  94.7417049  10.7521552
  77.3497652  95.5399899  10.4404372  77.2987055  94.5929246  11.6200370
  20.0314389  26.7322063  59.2490339  20.4511700  27.5039434  58.8689327
  19.8674546  26.1564612  58.5021353  32.6596985  89.5119381  59.9337196
  33.2702122  89.9590302  60.5199099  32.3831044  90.1879597  59.3150806
   0.6121598  32.6649165  75.0523758   0.4370366  32.0730829  74.3207359
   1.5511761  32.8422976  74.9974918  70.2530849  25.8844572   5.5087012
  69.8861206  26.3869482   4.7813243  71.1953914  26.0453230   5.4596251
 102.7152348  62.1056366  59.3936491 102.9574776  61.2012911  59.1943836
 101.8715191  62.0347643  59.8401356  75.7995176  12.3674726  42.0365477
  75.3194714  11.5413535  42.0941114  76.3246155  12.3955905  42.8363705
  33.5118376  92.7552389  48.9159012  34.0446698  93.4499764  49.3027639
  34.1481863  92.1202194  48.5872078  13.6141835   8.9575648  90.3296757
  13.6832199   9.2486942  89.4204426  14.5202885   8.8242936  90.6079483
   8.4391175  25.0842285  78.4585524   7.5472508  24.7556424  78.5718727
   8.3267460  25.9573174  78.0826235  96.9900227  15.5117941  55.0033331
  96.1091328  15.8679891  54.8875999  97.0491314  14.8053598  54.3601465
 103.3227825   1.0720456  74.9978924 103.1340408   0.2709921  74.5090961
 104.2749786   1.0742509  75.0956345  70.2724158 105.0049739  57.9229689
  70.6104838 105.4219639  58.7154675  70.9405791 104.3613564  57.6872969
  71.4226424 107.4001513  49.5888567  72.0047747 108.0104811  49.1362524
  70.5963408 107.8757679  49.6739817 110.6858063   1.8353011  63.6012459
 109.9366283   1.3385201  63.9301443 111.3785744   1.6765244  64.2424059
  93.0879389  96.6469061  44.4840908  92.5135409  96.5896606  45.2476549
  93.7346922  97.3118722  44.7202206  63.3368540   1.1344600  35.7616258
  63.1711531   2.0750624  35.8252001  62.9295301   0.7659791  36.5455508
   4.0623246  42.2918797  71.9226694   3.1672726  42.5990486  71.7785692
   4.0111981  41.7731810  72.7255201  90.3448963   5.7361192  25.7079554
  90.4840279   5.0262660  26.3348413  91.1909485   6.1810577  25.6583023
  88.8622284  23.5086799  25.1044369  89.7732353  23.7098265  24.8903418
  88.7136936  23.9382577  25.9468341  86.3955307  13.1141567  56.2171412
  87.2911453  13.4066141  56.0480976  85.8798790  13.9203668  56.2361765
 101.4933014  21.6306090  93.1999397 100.7005978  21.1574459  92.9470158
 101.1739922  22.4598074  93.5558987  99.9613285  41.0484838  65.7147169
  99.2039776  41.4997292  66.0875797 100.2824879  40.4927015  66.4247894
  12.8188286  10.4808033  79.5783854  12.4317418  10.1945305  80.4057026
  13.2641087  11.3004351  79.7932243 113.9996529  11.3961160  10.8272076
 113.5858631  11.9377029  11.4992881 113.4893227  10.5863106  10.8244514
  91.3278675   3.8920739  27.3407221  91.8192196   3.3343858  26.7375731
  91.9082355   3.9994955  28.0942917 108.1050491  16.7529178  31.4551783
 108.9614391  16.8711853  31.0442638 107.9745865  17.5490415  31.9703460
 115.1448822  44.5002651  84.9283504 115.6981564  44.4202852  84.1513538
 114.8828316  45.4207945  84.9420547  76.9972420   4.1056186  81.9033432
  77.5410557   4.7474355  81.4466476  76.3740969   3.8055459  81.2416172
  91.6119289   3.9101118  64.7278976  90.8873653   4.5355070  64.7385597
  91.1901855   3.0537009  64.7980309  99.6784496  38.6304379  48.8515949
  99.1878414  39.0721393  48.1584644 100.1275444  39.3374062  49.3149948
  86.3242245  55.3522491  58.0178165  85.6509304  55.9908247  57.7830124
  85.8339596  54.5799017  58.2995224  74.4484030 105.5954697  19.6472740
  74.5263754 105.7403993  18.7043273  75.2115237 105.0629877  19.8716640
  10.6421242  37.9125738  32.9438663  11.4994965  38.1033611  33.3243251
  10.2954350  37.1995139  33.4801340  99.2139435  69.5140934  77.3843336
  98.4260464  69.0555239  77.0924997  99.3300724  69.2362738  78.2929373
  12.8735981  48.5132074  81.8411350  11.9827328  48.2283258  82.0446777
  13.0706940  48.1007338  81.0001469  91.3473415  18.1081152  63.4977484
  91.9033718  18.7473536  63.0522919  91.3080215  17.3645306  62.8962755
 104.2656612  22.8631663  75.2885485 103.6366081  23.2123160  75.9199142
 104.8638439  22.3326325  75.8148098 100.4503536  14.7289920  57.6465416
 100.5007267  14.9168611  58.5837698 101.2740612  14.2842066  57.4468136
  25.6911240  23.5128164  31.0169697  24.9492321  23.9679933  30.6186748
  25.5304776  22.5871205  30.8339143  90.3797436  39.9180508  32.4837089
  90.8027458  39.0747070  32.3222685  89.8054123  40.0463390  31.7287803
  81.9514370  33.1096268  31.0349488  81.5361118  32.9049706  31.8727112
  82.4829483  33.8852382  31.2142658  14.9992714  19.2049301  92.6212978
  15.7229290  18.5961044  92.7692318  15.1315556  19.5216191  91.7277431
  97.9691124  34.5028281  77.2916603  98.6399174  35.1760840  77.1777248
  97.1587181  34.9203491  76.9998121  76.2928568 109.5597616  46.9054842
  76.2651430 109.4213641  47.8522205  76.9610106 108.9493845  46.5936518
  54.8080717  98.7166547  64.0133953  53.9552008  99.0730118  64.2621040
  55.0616633  98.1641864  64.7527885  11.5988312  45.7822800  88.3759308
  12.3228798  45.9086466  87.7627373  11.5457116  46.6079617  88.8572407
  76.9839096  26.5089226  25.4025054  77.3185682  26.5664721  26.2974477
  76.0326004  26.5522099  25.4992867  17.4720917  37.3683333  42.5829458
  18.2504139  37.8094840  42.9232931  17.2859631  37.8144288  41.7567587
  70.5718565  16.2526369  47.0612860  70.9881449  16.9269824  46.5244484
  70.9265566  15.4284024  46.7280340  64.5408236 104.1958313  76.0924339
  63.7372862 103.8674139  75.6890774  64.3715655 105.1262450  76.2404585
  77.0550810 108.9884113  17.3644722  76.8624483 109.4802179  18.1627512
  77.9398333 108.6491161  17.4998164 114.1234589   0.5152643  54.3823099
 114.9906826   0.9183733  54.3415403 114.1151237  -0.1089145  53.6566639
  96.1753941  19.5538759  82.5742149  96.1528301  20.0109267  81.7334843
  96.8805218  19.9813020  83.0603504   4.8959408   9.0189785  80.7695293
   4.2298088   8.4003651  80.4698372   5.4786454   9.1263229  80.0177574
  65.2633082 109.4435756  54.4467735  64.9068533 110.1147765  53.8648272
  65.9835516 109.0544330  53.9507437   4.5684204  58.4494114  62.8965139
   4.0694962  57.7450991  62.4827003   5.0997219  58.8143396  62.1888590
  87.9762840   7.0657945  82.9592323  88.3761501   6.6705352  82.1845627
  87.7311897   7.9475528  82.6787567  35.0913023  89.6408944  16.7288989
  35.8382773  89.6499853  17.3273772  35.2834009  90.3324203  16.0955543
  55.9554468 106.8116491  81.2178612  55.6015860 107.1868941  82.0242119
  56.6278158 106.1981463  81.5141010   0.3389416  25.4345369  71.7533112
   0.7581959  24.5875692  71.9053125   0.7097016  25.7401705  70.9254456
  67.4795424 104.0916818  78.9433241  67.4367701 104.3032246  79.8758745
  66.6413199 103.6696970  78.7547636  68.9741789 107.4309231  57.1992064
  69.1947447 106.5243953  57.4132013  68.5806643 107.3824222  56.3279867
 104.2659092  35.7819819  51.9590998 104.0541553  34.8683238  52.1504688
 105.1880550  35.7655406  51.7029762  58.8043104 109.3132173  85.8912754
  58.3706938 110.1624679  85.8077240  59.7314059 109.5023947  85.7466221
  41.1129628  40.3150034  51.6707945  40.5098019  39.9611044  52.3243904
  41.6882954  40.8976984  52.1664667  89.7303581  57.0732403  62.9350519
  88.7776947  57.0205498  62.8584194  90.0365639  56.1904955  62.7271318
 100.9508419  21.1325455  30.7605767 101.6035271  20.4617882  30.9613633
 100.2334213  20.9586477  31.3699222  38.0885874 109.4859411  49.0892792
  37.6220547 109.4618755  48.2538176  39.0134274 109.4303319  48.8488483
 103.3201504  16.5545392  64.0415096 103.1147194  16.3583994  64.9555969
 104.2684841  16.6841578  64.0316439  29.4254374  86.2583117   3.7961215
  29.0081190  85.9929185   2.9765815  29.8497843  87.0911961   3.5900706
 102.9619503   5.9008867  66.1933184 102.7817917   6.8161339  65.9786177
 103.8883781   5.7834524  65.9831285  69.7474657 100.5003237  82.8285980
  69.4924151 100.8655446  83.6758232  69.9561774  99.5850229  83.0153942
  92.5321484  51.0075951  56.6711712  92.8584766  50.1612043  56.9767189
  93.3154488  51.5521049  56.5925837  83.8745880   8.6237991  84.3219280
  84.6156883   8.7643367  84.9112129  84.0820217   9.1464990  83.5473442
  47.5875353  79.1860323   0.3726214  48.2039713  79.1940002  -0.3596192
  47.1434473  78.3409719   0.3026694  50.9574114 103.1687521  48.2178688
  51.5025126 102.4039876  48.4029055  50.5740916 103.4000193  49.0639257
  30.0166928 107.7915493  25.4116154  30.4170071 107.3066857  24.6898913
  30.1517235 108.7118954  25.1858687 112.3966503  14.7731459  38.4663248
 112.5534821  13.8588798  38.7024498 112.1481895  15.1938629  39.2894268
  13.4985041  85.6821995   0.4142779  13.1895517  84.9680285  -0.1431638
  13.9724611  86.2628632  -0.1810628  39.9573456 105.1726013  70.0363636
  39.4686066 105.9705424  70.2380085  39.5327555 104.4929444  70.5598354
  89.5707607  22.0225501  32.0001245  89.4009781  21.0816002  31.9551945
  89.5565224  22.3123240  31.0879493  88.4618187  31.8655467  56.2518644
  87.6222706  31.5581226  55.9099770  88.8092899  31.1192346  56.7402411
 103.8346004  46.2638760  56.9363737 103.5885239  45.4539585  57.3832607
 104.6590805  46.5233660  57.3476458  48.7270914 106.9718587  54.7443485
  47.8892409 106.8867850  54.2893791  48.6141001 106.4682712  55.5504942
  99.3719006  24.4389701  39.2908907  99.3150139  25.0873208  38.5890079
  98.5350132  24.5091391  39.7501683 111.3036251  30.8856606  74.3650103
 110.7864094  30.6899452  73.5837173 110.8192825  30.4758501  75.0817347
  95.9782982  36.7886138  82.0956802  95.2088165  36.8755579  82.6583195
  96.7168140  37.0055342  82.6646996   5.0749359  25.3051567  50.9239149
   4.5556031  24.5265841  50.7230425   4.8508702  25.5151749  51.8305111
  84.2492199  36.8183637  47.8471899  84.5309639  36.1580348  47.2140837
  84.7147369  37.6133418  47.5873041  64.0569735  10.0002801  78.5853004
  64.4632006   9.1507250  78.4136343  63.5888720  10.2096343  77.7770424
   5.8767853  26.6849947  48.6521149   5.9273777  26.1859655  49.4673681
   5.2756367  26.1835647  48.1012726   2.7808043  94.9663638  46.1139822
   3.6623618  95.1920997  45.8171177   2.4204776  95.7900321  46.4425755
  63.9300143  94.5649826  20.0134468  64.6203886  95.2167045  20.1354074
  63.5157954  94.8069989  19.1851461  81.3444233   4.0437305  30.5931783
  81.4072227   4.9605519  30.8609962  81.6552830   3.5505962  31.3523984
 116.5948486  31.9389272  69.6638680 116.2237644  31.2203956  70.1759577
 116.1397839  32.7190351  69.9810028   0.7909165   7.1637106  42.2659302
   0.1589737   7.7689773  41.8779516   0.2661000   6.4101779  42.5361061
  93.8967228  25.7991362  70.4686594  94.3593025  24.9680591  70.3610992
  93.0431747  25.5537057  70.8256626  72.9978930  86.8475794  65.9845734
  73.9349924  86.6561794  66.0225153  72.8909384  87.3632883  65.1852989
  52.3776041  93.4387707  32.9087424  52.9558169  94.0518235  32.4547958
  51.5097605  93.6138796  32.5448513   5.3006325   7.2005045  64.4123697
   6.0966740   7.4691778  64.8710299   5.2276192   6.2625229  64.5886993
  50.7158076 104.7020554  71.3717842  51.3115965 103.9536517  71.3377428
  49.8453413 104.3118333  71.4508581  97.2171974  31.2630606  61.9330788
  96.7839909  30.7928348  62.6454353  96.7650700  32.1057773  61.8925667
   2.4771080  19.0301514  43.8236094   3.2338105  18.6660922  44.2830515
   1.8874989  18.2853961  43.7055588  95.8108807  29.8887277  63.8395166
  96.4781570  29.3253374  64.2313862  95.0980759  29.8957419  64.4783401
 104.0617180  11.2746906  56.2003756 103.8764763  10.4732656  56.6899061
 104.9970150  11.4270461  56.3353872  89.3109131   6.6951686  61.2768507
  90.2097225   6.3682216  61.3153648  89.4047451   7.6406294  61.1605263
 108.1896591  28.1021380  42.3235559 107.9715919  28.5511708  41.5068245
 109.1464710  28.1055260  42.3506594  59.7956419  11.3874900  26.4513731
  59.5495653  10.9093654  27.2432542  59.2489624  12.1730769  26.4663005
  24.6778546  46.6379833   6.0720569  23.8722477  46.5971088   5.5567265
  24.4067345  47.0101213   6.9112480  63.8372040  15.3422606  68.2541418
  63.5276175  15.1700211  67.3649216  63.0749035  15.1778567  68.8092089
  10.2635250  51.9215393  51.6484070  10.2023373  50.9812212  51.8165874
  10.8112488  51.9898462  50.8663797   2.8727589  78.1433010  77.3068285
   2.6512967  77.5999880  78.0631304   2.0947514  78.1077719  76.7503452
  13.2489357  31.2358499  73.3460045  13.2464466  31.1194468  72.3959112
  13.7753735  30.5073428  73.6751890 104.2287827  34.1671491  45.6452227
 103.9975548  34.9766445  46.1007261 104.3925571  33.5362649  46.3462162
  32.2550831   0.4942057  32.6291490  31.5089379   0.1643895  33.1298614
  32.2316037  -0.0008134  31.8102241  99.6640682  50.6515217  69.2719746
  99.9652672  50.5414963  68.3700848 100.1588440  51.4024973  69.5997906
  71.8229342  38.3040953  46.4793777  72.3150539  38.5590029  45.6989479
  72.0863676  38.9381289  47.1463394   4.0941582   9.1102415  72.6631212
   4.7803555   9.4834077  72.1098518   3.3029423   9.5912832  72.4206257
  80.1475989 107.8340349  73.6659527  80.2612101 106.9957592  74.1138554
  80.3890215 108.4897808  74.3201256 100.4002953  36.2026310  88.3289051
  99.7861862  35.5081868  88.5673523 100.7313728  35.9446073  87.4686527
  85.2048289 104.6933167  58.8611221  84.9875246 103.9931410  59.4765663
  85.8964812 105.1901989  59.2981100   5.1900540  36.7201877  70.0481224
   4.9869023  36.9982862  69.1550255   5.5175743  35.8259320  69.9518681
  22.8864727  18.2838976  81.4853191  23.5987339  18.4825730  80.8775043
  22.1787510  18.8739216  81.2260246  92.4110889  30.7349515  92.7628136
  92.1499634  29.9013615  93.1541920  93.3675480  30.7277584  92.7998638
  34.7406839 108.4725003   2.8919524  35.4105734 109.0074496   2.4661559
  34.1398977 108.2342725   2.1858710  77.4800682  50.8326483  50.2547741
  77.0814466  51.2688923  49.5017624  76.7496729  50.3956556  50.6927156
 114.7560978  37.8936911  44.2994547 114.3704987  38.2773376  45.0870848
 115.0784683  37.0381498  44.5829296  97.3265362  30.3054523  59.0345001
  96.4165115  30.5474901  58.8627386  97.3973274  30.3017902  59.9890709
 108.1663322  50.4867792  87.4268246 108.7842751  51.1342525  87.0874596
 108.5044384  50.2647161  88.2943535  16.2250290  50.4585552  40.1222372
  15.6140480  49.8368311  39.7267723  15.9703503  50.4910326  41.0443640
  40.7774864  93.7011527  62.5941706  40.9576546  92.8967368  62.1076679
  41.4584242  94.3107437  62.3096514  99.5709896  43.1202745  70.4277372
 100.0592136  42.5141239  69.8705578 100.2093506  43.7918425  70.6679869
  98.2164192  35.5383801  67.3371935  98.6182022  35.6767535  68.1948996
  98.8060379  35.9759545  66.7231035  69.4987379 109.6502075  85.1954842
  69.0127169 109.3733085  85.9722424  70.1729666 110.2401692  85.5325127
 111.8150902  21.2636900  61.6697454 111.6419601  22.1527386  61.3601494
 111.3613510  20.6994390  61.0436678  15.4692517  47.7507162  34.4149828
  15.0781308  48.6193228  34.3212891  16.4129410  47.9107666  34.4062972
   6.1558876  24.3764067  65.1356077   6.2077961  25.2422810  65.5403328
   5.4960213  24.4721937  64.4488525 113.9064693  41.6400051  64.2726517
 113.8824177  40.7775784  64.6872187 113.7700653  41.4622974  63.3420372
  34.8920511  73.3336430  11.0419005  35.0117182  74.1236203  11.5690154
  35.7810377  73.0218606  10.8724040  21.5664444  57.2030783  41.8321037
  21.2256394  57.9690790  42.2939730  22.2092686  56.8271542  42.4335146
  17.3363552  65.8288240  30.5882239  17.9701863  66.1392307  29.9415803
  16.5562878  65.6159592  30.0759745   0.6406556   5.6446457  82.6941204
   0.0904045   5.7062835  81.9133186   1.4867936   5.9978771  82.4193192
  15.2180539  26.6387057  14.5556283  14.8595677  26.7142749  15.4399431
  15.7479439  27.4279642  14.4437361  80.1026440  21.0462165  59.6975231
  80.5400944  20.4088116  59.1330910  79.4370699  21.4452982  59.1371870
 111.1270523  25.5571175  91.6016006 110.8739090  24.6684194  91.3518620
 110.6128025  25.7406449  92.3877907  83.7136078  17.0609653  79.2439985
  83.8745975  17.8436792  78.7170506  84.0561295  16.3410079  78.7143087
  14.4465409  17.7101231  33.5979319  14.4770298  17.1233869  32.8422570
  14.9855385  18.4585762  33.3419347  15.2106057  29.0511703  66.6660261
  14.6308289  29.6331668  67.1573162  14.6382103  28.3501577  66.3543081
  73.0576992   4.7743052  59.0624905  73.9584494   4.5005685  58.8894320
  73.1268120   5.7051456  59.2746019   3.9576970  11.7742336  31.1968017
   4.6481762  12.1284354  30.6364322   4.0788041  10.8256233  31.1555481
  72.4111353  94.5460319  53.0131006  73.1900297  94.5254730  52.4571037
  72.4032866  93.6923563  53.4460115  93.6213589  14.8478627  68.7317276
  93.4793377  15.7924020  68.7942266  93.0376625  14.5639205  68.0282354
 109.1578484  27.2693205  51.3300180 108.7155342  26.5266204  50.9189415
 109.9355602  27.4132562  50.7908630  79.9717569  67.8508902  58.2843447
  79.7708845  68.5956812  58.8510609  80.9003544  67.6766539  58.4379339
  90.4645157  12.1686649  64.0117502  91.1037445  11.8121243  64.6286011
  89.6281433  12.1114612  64.4737339  96.7494488  10.8733034  44.6846342
  96.9899559  10.0994551  44.1751766  95.8362389  11.0396147  44.4509125
   2.1207009  38.4944296  40.3393507   3.0693398  38.3669353  40.3312302
   1.7908249  37.8799534  39.6837330   1.3507328  40.0148535  70.5257559
   2.0606671  40.5721474  70.8445883   0.9659634  40.5081081  69.8012686
   5.8353291  21.9280910  62.7776718   6.0564957  21.7895722  63.6986065
   5.3154049  22.7317762  62.7744722  61.5084635  87.7208685  63.2500601
  62.2878157  87.4634432  62.7575302  61.0016333  86.9133829  63.3355904
  12.5276337  58.3603001  45.7677412  12.9559765  57.6168823  45.3433800
  13.2448826  58.9515781  45.9961414  45.0641308  34.3231416  69.1329956
  45.9601651  33.9974833  69.0475798  44.9585591  34.4910431  70.0694227
  77.2448051  10.3489357   6.5916461  78.1195724  10.6540876   6.3510341
  77.1323192  10.6348949   7.4981803  14.3101286  57.7341862   4.2184657
  13.7087988  58.2412596   4.7639007  13.7639593  57.0492305   3.8327712
  84.9084854  51.3222265  19.8564744  84.4633007  50.4839993  19.7323215
  85.1019955  51.3541985  20.7933664  92.2676945  33.7529945  65.7961321
  91.3964272  33.4447622  66.0453892  92.8624439  33.2974625  66.3919497
 108.6391354  22.7671409  67.3778105 108.0420971  22.1485233  67.7986240
 108.3627319  22.7811766  66.4614916 105.3934383  49.0770912  93.8717937
 104.6601772  48.4976387  94.0786743 105.5639935  49.5481253  94.6874332
  29.9802552  26.8278170  65.6726837  29.3911896  27.3777151  65.1561165
  30.6001435  26.4751911  65.0342321 114.3745327  50.6029415  52.4996948
 115.1136494  50.7019043  51.8995762 113.6211872  50.9295988  52.0077562
 102.0808220   9.4247127  54.2991924 101.8943310   8.5786581  54.7061872
 101.3976479  10.0065374  54.6323442 103.3862591  48.4311628  38.3827519
 102.8023624  47.8273392  37.9237437 103.7601948  48.9757872  37.6900864
 102.7351189  59.5436668  68.1303930 103.6184978  59.6820593  68.4720278
 102.7451992  59.9555683  67.2664070  68.6157786  98.2849919  66.7907286
  68.8912474  99.1502356  66.4878988  68.1112086  98.4587800  67.5853634
 102.0092583  26.6128945  74.6078110 101.3517570  26.0430169  75.0067568
 102.0167732  27.3938990  75.1611710 102.6757812  46.5819168  87.3792171
 102.0862007  47.3346472  87.3341656 103.5067081  46.9464254  87.6840401
  94.2061043  28.9496231  35.6383276  93.5680199  28.2671952  35.4300523
  95.0549507  28.5493755  35.4499555 111.2397957  17.3658729  30.3661060
 111.0608387  16.6508162  29.7554517 111.1996746  16.9578648  31.2310624
   4.3652020  30.0970411  86.9267082   4.4904290  29.1738081  87.1462250
   5.2325497  30.4880285  87.0319271   9.1439877  29.7721243  84.0410137
  10.0826226  29.6841574  84.2067146   9.0735779  29.8325396  83.0883217
  28.4864865  37.2082114  62.6581001  27.5490342  37.2225714  62.8509855
  28.9000759  36.9976473  63.4952641   2.3029671   4.4633943  43.4472227
   1.7782269   3.8680390  43.9824104   3.0604706   3.9420009  43.1815481
  21.2836991  52.0383787  16.9115376  20.3421364  51.9343948  16.7740905
  21.6855393  51.4528131  16.2697685   4.7000180  39.4960093  52.7464151
   5.5390129  39.0847921  52.5385141   4.2838345  38.8929963  53.3623648
  16.4387856  21.1326551  16.7340064  16.6440163  21.7723894  17.4158061
  15.8781586  21.6077948  16.1206806   1.7463169  42.7151442  53.4062529
   1.3334046  43.1645584  54.1436481   1.7052708  43.3462334  52.6877356
  25.4866944  60.4889727  60.8003712  25.0327359  60.9823036  61.4835835
  25.0460873  60.7421970  59.9892092  40.2681218   8.5204756  59.8708630
  39.7043095   8.0857277  60.5106640  40.4514561   7.8466392  59.2162180
   2.4206314  35.8124924  81.5796757   2.5282345  34.8613811  81.5737057
   1.4755021  35.9470415  81.5099812  95.4310322  55.8624554  83.2449627
  94.5703506  56.1638117  83.5359001  95.6238651  56.3964319  82.4743080
  11.1762200  13.0438232  70.3315353  10.9965668  12.7514434  71.2251043
  12.0362912  13.4606206  70.3842592 105.8783436   2.0476404  38.7156940
 106.7231655   2.4242972  38.9619422 105.4996681   1.7479889  39.5421600
  14.2485772  15.1080906  37.2892284  15.1402436  15.1742780  37.6309848
  13.7741814  15.8202386  37.7182055   7.0688795  54.6849916   0.9851855
   6.5735029  54.1778551   1.6283339   7.8610205  54.9535398   1.4506167
  25.9570847  31.5816474  69.6730471  26.7339478  31.7291641  69.1336393
  26.1654721  30.7997465  70.1843548 115.0555420  35.4071307  45.2111816
 115.3213406  34.9792218  44.3972540 114.5050812  34.7605824  45.6530046
  65.3718615  55.6128693  66.7090130  64.4810152  55.4280949  66.4115572
  65.3698397  56.5500736  66.9036341 115.3221035  40.2784395  13.8388491
 114.5397568  40.5430937  14.3227100 115.5272675  41.0315657  13.2848263
  36.3145994  95.3658586  11.1205405  35.6863569  95.0008063  10.4974288
  36.0979342  94.9458890  11.9529551   2.4881516  40.6183147  12.3216414
   1.5670929  40.8634806  12.2334087   2.6325951  40.5658674  13.2664263
   1.5882264  53.0991983  60.3681517   0.6434212  53.0400896  60.2264357
   1.7318402  54.0020370  60.6518602  98.5553265  34.0440321  88.2451820
  98.3356857  34.4011164  87.3846722  98.5007763  33.0951428  88.1317711
  61.7599379 107.1793061  47.2105932  61.9906985 107.9312708  46.6651344
  60.8334814 107.0248758  47.0260572  34.9810562  38.7035847  77.1769762
  35.1395188  38.1440210  77.9372454  35.7541142  39.2659354  77.1281862
  71.1369978 101.8026810  76.2490749  71.1692320 102.7593141  76.2558794
  71.2060343 101.5541446  77.1708679 103.6243248  13.5073233  47.9556227
 104.2625046  14.1323817  47.6117229 103.8739204  13.3900189  48.8722324
  27.0538864  44.6733379  33.4827971  26.6894303  43.9530039  33.9971161
  27.8619156  44.9084473  33.9389038   7.4589119  59.3414831  64.0630627
   6.8983994  59.0776014  63.3333921   6.8492184  59.6428347  64.7366285
  89.2630100  16.3139713  38.5907650  88.6275196  15.7803857  39.0679145
  89.9496555  15.6977749  38.3357143  30.1182232  47.9609728  47.2929192
  30.2169381  48.8515472  46.9562197  30.7032929  47.9247856  48.0496311
   0.7903347  11.3488197  86.4844036   1.0716019  10.8685482  87.2631550
   1.3385449  12.1334350  86.4758873 114.4692516   8.8054585  38.3691144
 114.2005730   9.3257540  37.6119232 114.9044228   9.4316053  38.9477277
  41.6163121  30.1167226  20.3905535  41.7252598  29.6569705  21.2230134
  40.6684552  30.1668262  20.2668762  58.1005644  53.5469139   5.0939197
  58.7028765  52.8853630   5.4342288  58.3001398  53.5942069   4.1589469
  94.7699642   5.3721327  50.4576349  93.9001942   5.0815916  50.1831961
  94.8175812   6.2854761  50.1752043  77.0433921   1.0935312  26.4381427
  76.3448402   0.5157762  26.1308021  77.6976121   1.0708433  25.7397765
  56.4295174 104.0123897  34.8967570  56.4947773 103.1869035  34.4166011
  56.6804136 104.6808057  34.2591876  84.4462551 108.2885747  22.2308558
  84.4218124 109.1970782  21.9304294  85.0867046 107.8645711  21.6596431
  75.1663304  23.8606983   3.5124034  74.2817884  23.7164455   3.8485736
  75.0358783  24.1334587   2.6042098 104.0309098  32.8109842  52.3454112
 103.3719685  32.3330885  51.8417758 104.6241548  32.1326357  52.6681155
  17.1197832  25.4355436  12.5828094  16.5660465  25.7993036  13.2736701
  16.9024217  24.5034748  12.5675124  89.6212829  89.2914085  42.0396728
  90.2077354  88.5673981  42.2590178  89.8378576  89.5088010  41.1329860
  85.0907453  24.7425514  17.1369571  85.6465878  25.0392347  17.8575438
  85.4608997  23.8977104  16.8811149 104.8093083  20.4173904   6.7466659
 105.5594232  21.0030704   6.8493194 104.4649484  20.6194740   5.8767146
  95.3152838  21.9468694  21.9046039  96.2184729  22.1680170  21.6775054
  94.9293735  21.6427046  21.0831565   4.5442140  26.9168764  33.1374091
   4.4375074  27.7592092  32.6954574   5.0910223  27.1131139  33.8981551
 110.0840738   6.3941961  10.1119441 109.8299744   7.1684938   9.6098155
 109.9940898   5.6682306   9.4946021  99.9393680   4.3055444  27.0854014
  99.4854476   3.6204725  26.5946216 100.3090241   4.8772770  26.4125651
  73.0742181  80.4486685  19.0002841  72.2352995  80.1974039  18.6138743
  73.7302149  80.0472264  18.4304160 115.2622630  14.3974500  27.6469439
 115.2361848  13.4484773  27.5244445 116.1931803  14.6020942  27.7349586
  99.3364586  94.8314266  31.9751281 100.1165928  94.9661450  32.5131530
  98.9099992  94.0653591  32.3591918   1.2809586  96.1246209  25.3518599
   0.7350563  95.3756051  25.1127166   1.5142559  95.9684901  26.2669772
  86.6853059 103.7043529  30.3582114  86.3935198 102.9263883  29.8829669
  86.8998970 104.3372159  29.6728915   4.1558111  23.8515287  35.2929229
   3.2779634  23.9933401  34.9386615   4.2907512  22.9061657  35.2272624
  55.9370114 104.0967040  29.1818351  55.9576393 103.8066630  30.0938052
  56.6917492 104.6795421  29.0987414  94.8285546   8.6697202  16.6621322
  94.2799475   9.3897110  16.3508815  94.9120071   8.8218265  17.6034755
  16.3803613  10.8884245  21.9460601  15.4700840  11.0314947  21.6869182
  16.4570844  11.3175922  22.7982062 103.7086656  24.0196043  60.2920169
 103.9724519  24.9367099  60.3666228 102.7804305  24.0553957  60.0610942
  99.1165545  13.9104801  22.3815364  99.8874166  13.4669023  22.0276374
  99.2177846  13.8456207  23.3311576  76.1910142  82.1922307   1.4034194
  76.9464506  82.1661859   1.9906730  76.3905514  82.8973608   0.7876128
  97.3641279  44.6127802  60.2137298  97.4008527  45.3653913  59.6234244
  96.4488687  44.5700555  60.4906959  74.5185746  74.9415092  33.1788558
  74.3205465  75.8754759  33.2475680  75.4148687  74.9106960  32.8442782
  95.6732132  19.5391136  30.4445285  95.3264918  20.0947624  29.7464866
  95.6890514  20.1055484  31.2159842  11.1010111  21.7666965  39.1156882
  10.6460893  21.9748789  39.9317378  11.9891584  22.0994335  39.2449779
  71.5269197  86.8715649  23.9044208  71.4796127  87.1420269  22.9874438
  72.2367586  87.3974566  24.2729300  26.8373036  47.6378202  84.2356300
  26.1308646  47.3565531  83.6541939  27.5900364  47.7587891  83.6568451
  31.1542940  28.9057755  90.2982712  31.5891171  28.6531615  91.1127281
  30.4777551  28.2405734  90.1716518  82.5197785  20.8595806  30.3477305
  83.3562376  20.8002430  29.8861617  82.1523117  21.6988664  30.0706023
 106.7694976  17.0832163  16.6423625 106.6977336  16.8284469  17.5622386
 105.8656695  17.1017318  16.3277453 105.1861360   1.1485630  18.1135482
 106.1008932   1.1398559  17.8318042 104.9116351   0.2328878  18.0643195
  16.0958851  11.6551452  37.4265975  15.4864824  11.0388570  37.0203322
  15.5350292  12.2699648  37.8995341  94.9425592  13.5664182  33.4670562
  95.0607850  12.8589731  32.8331965  94.8107662  13.1193596  34.3031234
  14.3601692  21.6482597  31.9281310  13.7364519  20.9971958  31.6066855
  14.1105593  22.4587064  31.4841765  86.7150518  19.5620781  10.7243079
  87.1959945  19.4703155  11.5468139  85.8111688  19.7272545  10.9925288
  95.5092432  30.7902628  16.0366649  94.6702554  30.6398111  16.4722079
  96.0660531  30.0708395  16.3343543  80.0823797 103.1695514   9.3943519
  80.7282461 103.7972455   9.0701789  79.2796148 103.6814170   9.4933146
  17.4920643  34.8715025  12.6809710  17.2057522  34.2524915  13.3525962
  16.6889179  35.1124483  12.2193068 106.9490006   7.3085409  23.7732238
 106.4120176   7.4849039  23.0007094 107.6026895   6.6777139  23.4715957
  71.1421623  24.5791965  37.4128169  71.2826785  24.4962173  36.4696330
  70.2367976  24.8789507  37.4946326  46.9234539  94.8071914  33.2251853
  47.0413752  94.6220093  34.1568679  46.8955810  95.7625346  33.1725234
  30.6177080  42.0598417  20.5375594  31.3735998  42.6424127  20.4635257
  30.9523094  41.1998373  20.2832717  75.1887459   1.9280248  52.8102797
  75.7493951   2.3308044  53.4733600  75.7815047   1.7250496  52.0866317
  31.1464107   8.8515192  30.1530856  30.2025211   8.8833004  30.3089541
  31.2460077   9.1013818  29.2344493  12.9608369  36.0239649  57.9733849
  12.0792389  35.8576989  57.6396608  13.0776548  35.3804970  58.6723375
  77.2447564  12.8143173  39.7970218  76.6816419  12.9168134  40.5642432
  77.1282410  13.6265712  39.3041724  41.7685556  85.1373577  92.9339600
  42.0108175  84.8832989  92.0434570  42.2365284  84.5190334  93.4951305
  90.6728091   9.4385963  27.2548598  90.8916345  10.2927166  27.6274508
  90.9892585   9.4827133  26.3525599  51.3602495  84.1409016  80.5240631
  52.2849417  84.3272972  80.3614616  50.9054947  84.9431610  80.2675247
  83.3514322  97.7443509  35.5788344  82.7639641  97.0247512  35.3479880
  83.8818659  97.3994880  36.2971229   7.3023737  31.3628393  31.4272136
   8.0929697  31.1873632  30.9169215   7.0949257  32.2783952  31.2402648
 109.9404790   3.0796581  33.3161181 109.1721012   3.5225063  32.9559630
 110.6853750   3.5514265  32.9435557  97.4859216   3.1828027  12.2985095
  97.1255853   3.6947590  13.0225867  97.0085790   2.3537355  12.3305243
  84.9203845  35.5998331  20.4072970  84.0907344  35.1233488  20.4368705
  85.0448635  35.8067613  19.4810599  48.3556278 106.0041909  14.6611232
  48.8490034 106.8010859  14.8554725  48.2272012 105.5881219  15.5135554
  14.2953289  17.8798061  76.0269660  14.0116918  18.3618885  76.8037528
  15.1975239  18.1657749  75.8837813  29.0234907 109.0071158  53.8038749
  29.4370068 109.8470073  53.6043376  29.2791105 108.4361749  53.0793590
  12.4035013   3.3941656  30.9778327  12.0798767   2.7646785  31.6222304
  12.5240553   4.2039924  31.4736957  51.1135674  64.8831224  89.1046619
  50.7427454  65.3776646  88.3738041  51.9414902  64.5413828  88.7670422
 113.8819363  25.1259905  28.2603854 114.3271615  24.2888456  28.1292743
 112.9538896  24.9252468  28.1393165  71.1522258  99.2247634  42.5399417
  71.8465866  99.8548608  42.7324790  71.6159500  98.4146457  42.3280448
  89.4411911 109.9710755  35.2048129  88.5254778 109.7242694  35.3343886
  89.9131359 109.1385417  35.1850051  20.3583002  91.3793278  90.2175617
  20.4919863  90.5953598  90.7502460  20.8805799  91.2258625  89.4302273
  18.7164581   1.0776382  41.9993323  18.6935461   0.6393486  41.1486835
  18.9112842   0.3787523  42.6236934  96.5901949   7.6469761  12.8192634
  96.0862365   7.1824127  12.1511096  96.2819126   8.5516029  12.7659339
 112.3052003  13.3092743  24.5029563 113.1602719  13.6386781  24.2262191
 112.5016072  12.5001627  24.9751777   8.3743799  36.1060339  49.7660560
   8.7705076  36.9762331  49.8115939   7.6870525  36.1900335  49.1051787
 114.0231421   1.2711387  14.2915076 114.3395355   0.3861576  14.1100234
 113.4719040   1.4873510  13.5394305  91.3757243   2.3002821  17.2235698
  91.8123796   1.6077905  16.7275638  90.7812586   2.7077156  16.5936202
  88.1111028  38.0336958   4.1425342  88.1508222  37.1786791   3.7140388
  87.2924908  38.0153566   4.6382827  95.6741537  95.1953988  44.5277137
  95.0989736  95.0146298  43.7842578  95.0778164  95.4056411  45.2463263
   9.5730055  17.8334957  61.8843574   8.6332166  17.7888065  61.7082137
   9.7255600  17.1566063  62.5437373   7.0645511  11.1094623  25.9549445
   6.6403520  11.7246681  25.3567714   6.7876756  10.2464777  25.6470031
 104.1952374  12.7472978  53.2049579 104.4614460  11.8483501  53.3979720
 103.8483479  13.0775552  54.0337104   2.9239786  32.6333337  41.4515990
   3.6958111  32.1475702  41.7423648   3.2659614  33.4839445  41.1764068
  17.6005686  13.9379125  54.5043868  17.4047125  14.8572403  54.3235225
  18.4742821  13.9515405  54.8951167   4.6059311  36.7504793  36.9008845
   4.7100628  37.4846273  36.2955588   4.6778572  37.1447282  37.7701491
  96.6004289  92.6537685  82.3337668  95.7680668  92.1856194  82.2686690
  96.6630424  93.1459956  81.5152091   1.5837562  19.9884325  32.7163238
   0.6290996  19.9774366  32.7851981   1.8901289  19.8163610  33.6066932
  52.8941488  19.5211494  75.8673906  52.9416990  18.5803246  76.0371542
  51.9588423  19.7000253  75.7702446  12.0654857  13.1358343   9.3852061
  11.7192352  13.2943016   8.5070056  11.3688886  13.4272056   9.9734897
   5.4060257  25.1670652  29.4910258   5.9541357  24.6126800  28.9356250
   5.8948648  25.9863764  29.5684165 115.5063989  60.5422598  16.1535186
 115.2293398  60.2087694  15.3001422 115.1699927  59.9027639  16.7812938
  56.9464588  63.6951399  92.0380783  56.4514828  62.9088116  92.2681141
  56.3774204  64.1669893  91.4299774  13.1524885  20.0709062   3.9879722
  13.6625803  20.3625827   3.2323569  12.7781713  19.2331796   3.7153262
 112.5247147  35.9679228   8.7592429 112.9060676  35.2244192   8.2923335
 112.6701906  36.7152219   8.1790656   3.5412109  19.4660288   7.5686568
   3.4611309  20.1589971   8.2240981   3.1322801  18.7025076   7.9761428
 112.7789404  66.1877733  14.5989436 112.5793793  67.1078115  14.4258708
 113.4143617  65.9494310  13.9239139  13.6540735  12.6384359  38.8187236
  13.1858576  13.3273607  39.2903155  13.3279503  12.6986557  37.9208106
  37.2535980  36.9597345  64.2420501  37.3799646  36.3761907  64.9902076
  37.9447830  37.6159578  64.3307036  23.6352527  31.3932043  42.3126525
  24.5414245  31.4235597  42.0057887  23.6718214  30.8747774  43.1164664
  78.5732020 103.2348876  65.4136008  78.7968148 102.3509889  65.1221389
  78.5849918 103.7609153  64.6139831  46.9174242 107.8913879  93.8085175
  46.5652752 108.6634731  94.2513466  46.5571547 107.9380512  92.9229355
  68.6175599   9.3573909  40.5217761  68.3840068  10.2077394  40.8940524
  69.2203679   8.9743477  41.1590594   5.1828659  12.5707870  28.8752669
   4.4018829  12.8429037  28.3933372   5.4613102  11.7630583  28.4436625
  54.8230028  81.5288353  81.9913578  55.2414274  82.2604847  82.4450588
  55.2973413  81.4578915  81.1629868  89.9526561  83.1938033  42.7237338
  90.6762899  82.6212912  42.9783267  89.9448074  83.1589775  41.7672080
  83.1870235  90.6613593  38.1323642  83.8030685  89.9332886  38.2138366
  83.3732952  91.0375862  37.2721404  94.2285623  20.9792095  45.9089393
  93.8582590  20.8923870  46.7873305  94.2210045  20.0891786  45.5567759
  22.9502189  21.7741018  32.6614112  21.9991720  21.8741899  32.6199359
  23.1874597  21.3883787  31.8181056 111.7321374  12.7645689   2.2134799
 111.6138103  11.8708521   2.5351924 111.8314698  12.6670414   1.2664527
  12.5569093  25.8324629  23.2140273  12.6287115  25.0436407  22.6766032
  11.6191852  25.9218984  23.3840579 116.0396650  23.4138733  21.4596576
 115.9947517  23.1763321  20.5334872 116.2405350  24.3497568  21.4574260
  34.6653164  36.1106401  39.2369479  34.1909302  36.9177538  39.0375251
  34.7140062  36.0913568  40.1927108   9.8111618  23.2415968  30.8821982
   9.2464435  23.7996345  31.4169139  10.1315105  23.8189798  30.1892013
   1.6405523   6.6122871  18.4910888   0.9364164   6.8971592  19.0735644
   1.5817678   7.2008997  17.7385539  96.5467360  11.7481571   8.0386847
  96.4939203  12.6885706   8.2091731  95.9173300  11.3589531   8.6458129
  13.9555466  82.5170040  89.7703075  14.1501355  82.0749092  90.5966949
  13.6636353  83.3910656  90.0292206  36.8222034  39.1541391  14.8814982
  36.8906057  40.1046568  14.7916812  36.6039169  39.0157514  15.8031482
  82.1904529 108.1124120  34.1219825  81.6919483 107.8723435  33.3408946
  82.3859132 109.0421157  34.0050048  17.8219211  31.1175256  59.4499701
  18.1283367  31.9653612  59.1282386  17.1884001  31.3355070  60.1336116
 107.8876045  41.4254003  18.7182731 107.4872067  41.3590246  17.8513831
 107.3278835  42.0388799  19.1942901  77.9175104  98.3734279  35.2501792
  77.4537886  99.0863709  34.8109740  77.9289616  98.6277442  36.1729068
  91.3353660  32.5489336  13.1180114  90.5948176  32.9865080  13.5379523
  90.9335914  31.9096094  12.5297374  77.4743138  26.1818605   1.8496245
  77.6901279  25.9661012   0.9423751  77.1573183  27.0842748   1.8123073
 113.2517745  26.0887342   1.4795035 114.1039588  26.0171514   1.0495109
 113.1492641  27.0243364   1.6537780   2.4852503  38.6269766  46.9801825
   3.1218469  38.0680280  47.4257773   1.6902673  38.5525804  47.5080985
  15.3209770   8.5672813  48.3782214  15.7433307   7.8145748  48.7920875
  15.9775150   9.2626434  48.4189338  32.4634290  84.3475437  92.7962971
  32.3101592  84.3468666  91.8514442  31.6496468  84.0107346  93.1711960
 102.2300399  87.3350792  34.4791717 102.5111116  87.8867726  33.7491912
 102.0273508  86.4904981  34.0768832  35.5430830  23.7504392  12.2837275
  35.8670223  24.0814071  11.4460200  34.6590841  23.4374242  12.0918960
  11.0556686  27.6806265  64.1920680  11.0466802  27.8165346  63.2446116
  10.7991350  26.7654043  64.3051928 114.1106751   7.0610529  44.5506400
 114.5523622   6.2842279  44.2075938 113.1904557   6.8051868  44.6135444
   0.8911145  65.0895315   9.0600223   0.4217088  64.6969705   9.7960872
   1.8105638  64.8786646   9.2224616   2.7679289  18.6046081  30.5354136
   1.9252861  18.7317711  30.0995082   2.6840055  19.0796333  31.3621730
 107.5131347  26.9492346  58.8713473 108.4472158  27.1445471  58.9460486
 107.0769551  27.7466875  59.1714496   4.4474005 106.3767152  22.5408858
   4.2235350 105.4880719  22.8173369   3.6158918 106.8504481  22.5610465
  36.8015766  78.5447979  85.0188446  37.5529647  78.8634872  84.5187569
  37.0813251  77.6933575  85.3550243   6.0118521  23.4338957   4.8746222
   6.0884512  24.3707281   5.0554866   6.2058056  23.0117469   5.7115287
 112.5760391  18.5348516  19.3378467 112.1876123  17.6635175  19.4161624
 112.2001173  19.0309053  20.0650615  44.3813408  22.8142696   0.4336280
  44.3150604  22.0200115   0.9637183  44.7954643  22.5255876  -0.3796273
   6.4054716  38.4722810   1.7140407   5.9680069  37.9715830   1.0254497
   7.2971380  38.1247240   1.7332286   6.2129772  42.3421388  38.8572902
   6.8419206  42.6050001  38.1853026   6.0666406  43.1358247  39.3719596
  89.7881664  71.6586833  30.4892272  90.4029812  70.9730952  30.7503814
  90.3446258  72.3859112  30.2104396  26.1605776  42.0571523  37.9694098
  25.3475082  41.5785986  38.1310958  26.8458832  41.4927869  38.3272857
  16.7222107  47.4608617  37.9690856  17.5604856  47.0660692  37.7289409
  16.7685354  48.3514600  37.6213664  98.5094359  39.8593527  13.8129062
  97.7231958  40.2453428  13.4268111  98.2085206  39.0351587  14.1955108
  36.4708972  92.5721169  90.4706669  35.5145121  92.6008415  90.4977989
  36.7465091  93.0034065  91.2795258  96.8207588   8.0252605  35.4989451
  97.4043670   8.5749393  36.0219020  96.0057285   7.9967361  36.0000915
 116.0402181  28.8328844   7.7754992 115.5307104  28.4095770   8.4664649
 116.8726733  29.0540510   8.1930274 103.1754258  26.9458585   4.7066611
 102.2569444  26.9103056   4.9737948 103.6650350  26.7525011   5.5061168
  31.4499510  43.3685690  29.4770545  31.9494665  42.8496462  28.8466281
  31.9987381  43.3860975  30.2611178  12.2559631  16.1598259  35.4072112
  12.0603407  16.1324554  34.4706172  13.1872213  15.9458357  35.4637450
   4.8259342  47.8878790  29.9074286   4.5842254  48.5354906  30.5695456
   4.5886457  47.0465570  30.2974433  53.8917816  51.0047060  13.0664557
  54.6893108  51.1774069  12.5661010  53.4057033  51.8286710  13.0342597
  58.9299965  93.3481503  91.5430641  59.5976305  94.0272617  91.4466286
  58.3677149  93.4543800  90.7757378  92.3636856  57.6725584  13.2493228
  92.5415149  58.1160741  12.4199218  92.9236927  58.1188684  13.8844794
 100.8926680  11.7744642  59.8028869 100.9908154  11.6222053  60.7427901
 100.6038525  10.9317737  59.4526118  13.2810104  41.0974508  15.6971091
  12.6136244  41.5642267  16.2000483  13.1155861  41.3488298  14.7884482
   7.6397680 101.2292151  24.2732638   7.9757380 102.1254401  24.2616672
   8.4232496 100.6795125  24.2586535   3.1261242  69.3688112  34.2659873
   3.6134422  68.8437086  33.6311454   3.7989509  69.8606020  34.7368068
  11.7036665  24.4008308  19.7657985  11.5607059  23.9021545  20.5702323
  11.0700023  24.0410047  19.1451377  99.2303159  46.9560724   6.2014312
  99.2817786  46.3182932   5.4895133  99.5766213  46.4924150   6.9638747
  79.2121328 107.4665408  35.9608001  78.8666595 106.6793542  35.5398292
  80.1589025 107.3281150  35.9872645   0.8433521  26.2050062  64.0552920
   0.1100338  26.8139368  64.1429442   1.6093147  26.7122560  64.3240565
   6.5673816  76.7099958  34.8335666   6.4850366  77.3760896  35.5160445
   7.1991241  76.0830312  35.1857776  18.2132280  13.1699949  61.3974494
  17.7431476  13.7518411  60.8001918  18.4223640  12.4008661  60.8674163
  42.8507042 107.2342682  93.8910294  42.2616434 107.8411007  94.3393421
  42.3352432 106.4347744  93.7845516   1.2059200   0.6210666  38.7807864
   1.1138714   0.5775219  37.8290194   0.7825411  -0.1762194  39.0990943
   3.4960783   4.6792370  25.6837958   3.7065017   5.3489977  26.3344687
   3.1569326   5.1704412  24.9355144  24.3052948  15.1761442  15.8351439
  24.4126070  15.3919416  16.7615050  24.9008882  14.4410234  15.6899089
  23.8114393  10.1776415  10.4602546  23.0698765   9.5773082  10.3833407
  23.4173239  11.0150915  10.7043284  45.4953861  50.5846262  84.0613365
  46.2803984  50.0858927  84.2877293  44.7686815  50.0149536  84.3135452
 115.3816345  10.9660488  23.2716769 115.6555083  11.7067915  23.8125342
 115.4280283  11.2948948  22.3739356  40.8555687  26.7921453  24.5127696
  41.6185844  26.4218050  24.0690440  40.1698053  26.1340147  24.3995017
  37.2153401  54.7567606  79.9746799  37.7467132  53.9642429  80.0507736
  36.9198799  54.9336910  80.8677769 103.2573607   9.5777708  12.9457206
 103.6082747  10.4068762  13.2707900 103.2968929   9.6581703  11.9927234
  20.4421795  37.1189886  10.2886313  19.7057045  36.5094476  10.3365249
  20.3382385  37.6810175  11.0564536  38.6626852  10.3984075  48.7064094
  39.1162288  10.2408510  47.8783435  38.1183613  11.1677175  48.5387629
  20.4358852  68.0030161  31.3174170  19.8458803  68.4073549  30.6813067
  20.4845655  68.6351782  32.0345038   7.8428591  41.5589147  19.9479312
   7.8896463  41.0242849  19.1553325   7.0739305  42.1138578  19.8174685
   3.2719457  52.9612165  11.8067378   3.2560146  52.5466829  10.9441012
   2.7222526  53.7387281  11.7090243   3.1550920  12.8451830  15.6914252
   4.0666092  12.5607687  15.7583636   3.1725872  13.7674719  15.9469813
  88.0973806   3.5647588  46.2224311  88.4169450   3.6420398  47.1214026
  87.1588352   3.7418132  46.2858218  40.6037998  52.6921844  80.4959393
  40.2360535  52.7947807  79.6181774  40.8227777  51.7623520  80.5567074
  13.4460581  19.5804649  21.3546866  13.8627565  20.1719957  21.9813270
  14.0706384  18.8625389  21.2512034  31.1154259  61.3495165   8.0735702
  30.6278265  62.1633726   8.2005424  30.5128086  60.6623941   8.3580798
  54.4762945  76.5256977  75.5823469  54.4430923  76.2269592  76.4911318
  55.0788546  75.9187126  75.1525593 114.0537440   7.0756990  93.0430984
 114.4667650   7.3151112  93.8727570 114.7863965   6.9135231  92.4488354
  77.7476348  97.8533368  13.9010066  77.0583810  97.3662477  13.4494513
  77.3021640  98.2710509  14.6381015  62.5568570  77.9743056  29.2989844
  62.4437655  78.9151149  29.1636294  63.1016816  77.6904993  28.5649222
  60.6700720  16.5273194   9.9013728  59.7946824  16.8529062  10.1109332
  61.1265601  16.5091162  10.7425136  65.8261622  80.9887843  15.5509681
  66.4318002  81.3246374  14.8901862  65.4471148  81.7725234  15.9488505
  89.0252651  75.0668602  12.4449748  88.7063898  75.9691648  12.4648971
  88.6952032  74.7143810  11.6185111  64.0294112 101.2245660   5.4184741
  64.3771542 101.2847142   6.3082427  63.1115283 101.4828925   5.5020732
  96.0945190  77.1986370  31.3047236  96.0232271  76.3832288  30.8084887
  96.8358864  77.0567541  31.8933505  65.5636729  59.3736901  28.5679931
  65.6753625  58.6702417  27.9285258  66.4337338  59.4910433  28.9493770
  93.5352005  36.1378305   6.4835471  92.7356876  36.6505544   6.3646907
  93.2581247  35.2299826   6.3599605 104.3303707   1.3685852   4.1679019
 104.9700525   1.2987285   3.4592647 103.8687756   0.5301052   4.1574019
  81.6426767  84.6835427  39.4420833  81.9228996  84.1019063  40.1487655
  81.2129224  85.4130845  39.8885268  98.0423654  66.1585073  28.9423579
  97.3455299  66.3157194  28.3052272  97.9644598  65.2291946  29.1580886
  97.2723164  22.2829633  19.8159331  98.1607606  22.6362234  19.8618144
  96.8937948  22.6873451  19.0352744  94.1499152  25.1628500  10.1620978
  93.9475145  24.8794799   9.2704886  93.5288587  25.8703046  10.3353709
  65.2866734 107.6211982  14.5983619  66.2203993 107.6980786  14.7945231
  64.8729051 107.4883370  15.4512328  84.1920055  85.3335671  14.1595859
  84.6925987  85.5223041  13.3658427  83.4219612  85.8986907  14.0971488
  11.4938724  18.6121326   1.9621390  10.6151140  18.9760309   1.8544406
  11.3590753  17.6648861   1.9901294  96.1837209  96.8510537  10.7799357
  95.4389347  96.2717442  10.6189174  96.7122711  96.7884021   9.9843520
  37.4171162  60.2869415  93.8402271  36.5225816  60.2669430  94.1802883
  37.4305439  61.0368252  93.2454777 104.1682722  12.3042350  39.1746253
 103.7567308  13.1471353  39.3653792 104.6767428  12.1027332  39.9601764
 105.2463926  87.8251653  45.8369273 105.3226675  87.7281909  44.8877162
 104.4677128  87.3185496  46.0676402  37.2397685  26.2037110  91.4624786
  36.8303490  25.9183502  90.6456661  37.2963595  27.1558547  91.3821507
  23.1820333  13.4266287   2.3339194  23.0111873  12.6068311   1.8702620
  22.5195730  14.0323406   2.0015067  10.8908403   0.8809607  76.5995789
  11.0012114   0.9329633  77.5489712  11.7507970   1.1078390  76.2456942
 106.9071867   0.5178266  25.1952857 106.3636067  -0.0043578  24.6053046
 106.7092588   0.1772504  26.0676784  29.6407843  17.9292059  92.9412174
  30.3476286  17.4900544  93.4142303  29.9703979  18.8143098  92.7857208
  92.3942960 102.4086575  15.5237502  92.4709810 102.6021962  14.5894641
  91.4558471 102.2856479  15.6666297  25.4917896   8.2965236  31.2353820
  26.0141266   8.7071758  30.5463523  25.9605968   7.4878603  31.4415568
  19.8645365  41.3642979  70.4662657  19.8657739  41.9970083  69.7479916
  20.6130433  41.6150713  71.0076380  49.2092800  55.5924368  82.4773407
  49.7869110  56.3556385  82.4874020  49.7995806  54.8466969  82.3694038
  97.3992898  26.3566309  13.7859076  98.3147361  26.5575033  13.5913962
  96.9902565  26.2480074  12.9273528  69.3133296  92.2690754  35.4242629
  68.4164585  92.5883226  35.5239409  69.6070756  92.6364665  34.5906180
  15.5723275  77.3682289   6.3253230  15.5074204  77.3923426   5.3706378
  15.2203001  78.2113628   6.6107005  63.8675393  66.1207800   8.9820594
  64.6938361  66.5955942   9.0716094  63.1941045  66.7742531   9.1709823
  15.7444680  86.6801071  95.0425816  16.3216567  85.9578705  95.2904892
  15.0849402  86.2767410  94.4781780 113.3044364  14.4730764   7.7157039
 112.7958634  14.6920210   6.9349021 112.8961780  13.6750704   8.0514735
  81.5807642  79.5725183  21.4395064  81.2707390  79.0503101  22.1793765
  82.3259033  80.0622778  21.7875403  99.3438591  92.1736746  23.3127707
  99.1104568  91.4067321  23.8357944  99.9923576  92.6368480  23.8430041
  90.5721201  78.6810784  20.8818549  90.6689132  79.4015079  20.2590770
  89.8316492  78.1742506  20.5485934  21.8356979  12.8702932  17.0997066
  21.4085424  13.6982017  17.3195666  22.6114214  12.8448349  17.6599139
 104.3886913  60.1185726  27.6212138 105.0820078  59.6837791  28.1176967
 104.0958179  60.8296483  28.1911487 106.3728192  32.4534898  34.8475093
 106.0774996  32.1162229  34.0017718 105.5652668  32.6312929  35.3296679
 111.9579127  30.1067358   9.9764079 112.3295071  29.3547445   9.5152492
 112.7188184  30.6114298  10.2636928  91.6308273 104.8246341  42.3522872
  91.3395323 104.0439038  42.8232879  91.3038267 105.5561690  42.8758830
  46.9929790  37.0553589  82.0591736  46.8925571  36.8838334  81.1228371
  47.5140572  37.8571939  82.1012497  54.3374671  99.2066054  37.4501342
  53.8086952  98.4687238  37.7537078  55.1331593  98.8039927  37.1022719
  31.7921400  57.9396343  87.9226685  31.3430023  58.5069132  88.5493183
  32.3283696  58.5365582  87.4007797  55.4742290  63.5346137  16.5784282
  54.8993374  64.0645258  16.0262317  56.2118281  64.1108720  16.7786998
  54.4528557 105.6364064   8.8035315  53.7262083 105.1572852   8.4052104
  54.0494062 106.4247184   9.1668815  79.3179954  87.4329643  10.5591315
  78.9316906  86.8482881   9.9070949  78.5872377  87.6720862  11.1292666
  50.1742172  44.8805237  83.6915302  49.3209028  45.3086901  83.6225319
  50.6234169  45.3532410  84.3922329  97.3770573  11.6684871   5.1888579
  97.2408023  11.6727739   6.1362952  96.7655816  12.3253875   4.8559684
  19.5377398  31.5008044  78.4162092  19.0467310  30.9176779  77.8373241
  18.9400268  32.2289801  78.5857153  28.9791584  24.0995002  90.3972435
  28.6296439  23.3845806  89.8653030  29.9006605  23.8744020  90.5252838
  95.1986612  74.3037360  11.0663527  95.4301084  73.8706903  10.2446860
  94.2443193  74.3728702  11.0401172  99.5717872  90.8886795   4.2993850
  98.6922802  90.8903055   3.9216346  99.5129503  90.2859812   5.0406856
  69.9301460  26.8416887  35.5776423  70.2076557  27.3952203  36.3075847
  70.5381229  27.0558553  34.8700255  22.0200491  50.5907822  81.1541843
  21.5863466  51.0253239  81.8885612  21.3126469  50.3960705  80.5394459
  90.5702652  94.1529803  10.1555556  89.6590961  94.4246941  10.2659053
  90.9123052  94.0939336  11.0476035  15.2801037  34.8697066  90.1386356
  14.7654915  35.6595302  89.9725533  16.1161017  35.1944637  90.4731083
  85.4272386   5.5602508  40.9568995  86.2836697   5.3456598  40.5871600
  85.1796677   4.7815471  41.4554519  38.1607318  64.9942827  77.7640295
  37.7562213  65.6553650  78.3257914  37.8640842  65.2160120  76.8813801
  63.4701289 106.6140180  16.5900344  62.8844298 105.8970647  16.8332786
  63.0383123 107.4000506  16.9245738  76.7461528 100.6993775  42.3465365
  77.6777114 100.5324702  42.4899596  76.3059772  99.9341588  42.7165622
  90.3561081 109.0871386  49.0160960  89.8112692 109.8085599  48.7015552
  89.7939361 108.6113553  49.6275157  63.8470687  72.4091284  54.7222918
  63.7333215  73.2992749  54.3892211  63.4440316  71.8511777  54.0570945
   4.3928612   8.7947231   7.6406592   3.6312902   8.8610798   7.0646018
   5.0860346   9.2638546   7.1762675  94.4359555  30.6455708  59.3975735
  94.6210589  31.4764357  58.9598179  94.0388741  30.8973837  60.2313328
 104.9670042  95.2587895  18.9083976 104.9807085  94.5280437  18.2902926
 105.8454241  95.6351380  18.8538474   7.0988119   4.2855554  19.4936770
   7.9689014   3.9540010  19.2717570   6.7969406   4.7191101  18.6954707
  92.8101600  85.3477173  25.5009574  92.4705709  84.6765928  26.0929889
  92.9076971  86.1250882  26.0508746  86.3469185  46.4576625  18.0745715
  85.5281461  46.9193320  17.8937453  86.8796886  47.0931809  18.5526008
 103.6487354  89.6079617  24.5600528 102.8427042  89.6768289  24.0483874
 104.2518724  90.2215605  24.1405887  12.3384512   1.4972835  17.2382373
  12.1974504   1.8399864  18.1207961  13.2856691   1.3732773  17.1779460
  67.2216977  96.5237098  28.7112063  67.0124949  97.4571710  28.6777801
  66.7018045  96.1363702  28.0070037  66.3422860 102.5745254   9.8710746
  66.5294827 101.6528659   9.6929473  66.7101778 103.0428319   9.1216964
 105.5679477  91.6831856  39.2516250 105.9639372  92.3139172  39.8529548
 104.6259798  91.7739992  39.3954200  94.4479479  95.6810718  48.3265323
  94.9267162  94.9764399  48.7630099  93.8938965  95.2337508  47.6868743
  30.0012708  37.4706888  92.4200916  30.4023433  37.6379585  91.5672112
  30.4482627  38.0709600  93.0168343  39.6796465  81.1864567  89.8820782
  40.2621269  80.8473110  90.5617332  39.0975022  81.7893600  90.3445148
  10.6848085  56.0786295  42.7979994  10.1498663  56.8697596  42.7333069
  11.5456069  56.3934565  43.0739403  40.8810334  54.5558363   4.2916602
  41.1334389  55.4056952   4.6525783  41.3373829  54.5072760   3.4516543
  46.0118271 105.6927495   5.5471629  46.3142289 106.2086778   6.2945670
  46.7727722 105.1706843   5.2929229  48.3423758  64.4909954  80.2415276
  48.7515020  64.9159479  80.9953594  47.8100681  63.7915659  80.6205845
  71.6767920  91.1729364  32.6996821  72.0927323  90.3114300  32.7317924
  70.9184898  91.0516458  32.1282786  30.3080924  85.5576949  14.1429824
  30.9443040  86.1237578  14.5800609  29.7401745  86.1610322  13.6637324
  74.9589242  76.4977484  25.2165526  75.2074851  77.1062355  25.9123916
  75.6935872  76.5220051  24.6034354   1.9740700 101.2038617  11.0033149
   2.2717976 100.4479175  10.4972095   1.0565542 101.3130956  10.7533950
  95.3636087  31.5333896   8.6045283  95.1125778  31.6577558   9.5198077
  96.2674535  31.2208133   8.6444110  66.9738759  74.6136396  23.5215205
  67.7417315  74.8920946  23.0224246  66.2481822  74.6788113  22.9007453
  92.7908243  69.1126435  11.5035457  91.8681778  69.2800848  11.6957015
  92.8209890  68.1869309  11.2619323  80.4088176 108.3671098   6.3709563
  80.3697265 108.9251189   5.5942077  80.4586710 108.9803987   7.1041793
   5.0250613 100.5636471  66.8193769   5.2194535 100.9281933  67.6828289
   4.0762078 100.6525677  66.7299366  47.3625278  25.0007010  83.7908459
  46.6535521  24.5082164  84.2044258  47.0586014  25.9083509  83.7963295
  87.5246056  22.6576000  44.7886008  88.3145645  22.1171718  44.7770232
  87.1112677  22.4958091  43.9405459  74.9695123  88.7479238  21.2542361
  75.3326214  89.6298842  21.1734218  74.0229000  88.8712649  21.1839026
  39.6043015  39.4165850  88.5076714  39.0211272  39.9791503  87.9981041
  39.0540433  38.6801291  88.7742710  11.9763196  32.7228713  94.6651173
  11.0306787  32.6472139  94.7926712  12.1619534  33.6527944  94.7955418
  83.0008663  94.9263482  16.9401282  83.8996662  94.8017340  16.6354007
  82.4714817  94.3891244  16.3507480 103.9846780   3.3590036   8.8318557
 103.5297134   3.2621198   9.6684283 103.3989670   3.8996559   8.3018798
  76.4477695  81.0286646  22.4670905  76.2962760  81.2061911  21.5387744
  77.4007453  81.0118990  22.5553340  39.4555354  21.1307669  63.6550188
  39.0543127  20.6771374  62.9137516  39.3248820  20.5398631  64.3966341
  54.1286182  36.9662833  86.7700768  53.4358788  36.6849780  87.3677444
  54.9272966  36.9331622  87.2966194  66.4466466 103.4851794   3.9987582
  67.1798266 104.0200810   4.3029994  65.6919230 103.8128619   4.4878882
  54.9095262  89.8839693  16.4065951  55.2209879  88.9800315  16.4526576
  55.4621936  90.3596191  17.0267219  30.2520502   7.0483499   7.7191657
  30.9609449   7.6862531   7.6368255  29.4519365   7.5691038   7.6494044
  95.2946772  34.4934183  16.4351005  94.7937860  34.8484522  17.1694678
  96.2090375  34.5801359  16.7046565 108.9064886   3.1016927  57.5340766
 108.0644157   3.1878668  57.0871848 108.7352779   3.4002453  58.4272593
  81.5204824  96.0897212  24.1453856  81.9265522  95.3402190  24.5807952
  80.7835592  96.3240819  24.7095221 103.4039762  15.8687502   1.3580245
 104.0985944  15.2716451   1.6358870 102.5932624  15.3903871   1.5316504
  35.7372832  48.1413698  94.1625214  35.8006549  48.0028343  93.2175255
  36.4115119  47.5723124  94.5337677  24.4010198  26.1493116   5.2260035
  23.5452879  26.5775972   5.2488917  24.9386490  26.6556841   5.8349151
   1.1169637   0.0579363  13.6266631   1.9062794  -0.0064844  14.1643065
   1.4388550   0.2892357  12.7553863 100.5895307  28.4830766  30.9914702
 101.1237528  27.9026418  31.5336246 100.6612351  28.1196504  30.1088542
   9.0259111  37.1294408   2.0318717   9.8386514  37.0614439   1.5308112
   9.2598617  37.6537901   2.7977485   2.1063507  16.5074115  33.4305018
   1.5203417  16.4144331  32.6793784   2.9176557  16.0802560  33.1556338
  22.3871922  55.2124977  95.0383663  22.9045963  55.7445621  95.6428719
  21.8433309  55.8445501  94.5683002  14.5604885  18.2483631  26.9290179
  14.2283046  18.2348447  26.0314101  15.3561723  17.7171760  26.8979663
  91.4338817  33.3257299   7.2062510  91.4916041  32.4169641   7.5013083
  90.5227151  33.5718923   7.3656577  95.0900462   3.6425739  28.4326476
  95.1310184   4.5263010  28.0671519  95.1441553   3.7722355  29.3794745
  58.3421028  16.2959963  23.9102096  57.4774063  16.6046386  23.6395186
  58.1730163  15.7574564  24.6832675  98.4669926  49.5895105  17.6845759
  98.4615734  50.3640657  17.1222037  98.4054639  48.8521772  17.0772952
  61.9382228 109.3376594  13.1673068  62.4330057 108.6443620  12.7305526
  61.4065493 108.8790612  13.8178843  16.3168419  16.2232500  26.1940593
  16.4353836  15.4125219  26.6889304  16.9986999  16.1960083  25.5228251
 114.5346416  98.8004117  21.1021251 114.9278988  99.2297606  21.8618888
 115.2705349  98.6356120  20.5126113  22.8650129   2.5340849  24.3617839
  22.8554046   2.1893984  23.4688491  22.7741325   1.7604881  24.9181289
  16.8646324  19.2354351  32.8757209  17.1350754  19.9320083  32.2774905
  16.7166460  19.6804147  33.7101764  33.6131382  55.8035183  66.7661953
  32.7029777  55.8244419  66.4705515  33.8472629  54.8754597  66.7552042
  29.7814727  60.1043463  87.6825714  30.3400350  60.7693481  88.0850792
  29.8133230  60.2996969  86.7460537  94.2638172  69.5543759  47.8849429
  93.9646066  68.9662974  47.1914977  94.1099371  69.0676849  48.6946887
  93.8490833  98.4103351  24.0007228  94.4817795  97.9562478  24.5572585
  93.0121196  97.9892545  24.1967124  85.6067260  45.8374887  29.7603625
  85.6117698  46.7376142  30.0858897  85.9124615  45.9081178  28.8560504
  55.9194030  94.8680239  14.5615214  55.9748329  94.1033392  15.1345939
  56.5930630  94.7193723  13.8979548  61.5996517 103.8895993  45.0763816
  61.2629093 103.1702237  44.5422191  60.8300127 104.2297749  45.5326480
  92.4075749   2.6446300  51.8905276  91.4628162   2.7824693  51.8222350
  92.6978841   2.5232940  50.9865207  93.4087766  95.1380067  36.5417403
  93.7566150  94.8072557  35.7135791  93.2076038  96.0573487  36.3669032
 100.2947094   4.3614774  14.7026175 100.1310780   3.4244161  14.5959681
  99.5080211   4.7828966  14.3565577  76.5077855  16.2497812  39.0318793
  76.1381444  15.8850961  39.8359984  77.4530867  16.1351352  39.1293162
   4.3496788   7.0366054  18.4602565   3.4744919   6.6711431  18.5895556
   4.8187149   6.3653570  17.9646224  10.3556085  62.8748465  84.6352577
  11.1963427  62.8285170  85.0905037   9.8726273  62.1089458  84.9456692
  99.5046761  10.9262758  23.2151240  99.6925762  10.5682998  24.0827579
 100.3545692  10.9466749  22.7752418  12.5340307  20.3838401  46.3123244
  13.0122888  19.5621496  46.2013263  11.6116178  20.1318365  46.2688941
  19.4243133  12.0360094   7.1270484  19.2051113  11.5616947   6.3250464
  18.5882461  12.3867517   7.4339789  72.8519977  95.8903604  31.1475772
  72.2963608  96.6690974  31.1149806  73.7311281  96.2302117  31.3144893
  61.4752902  86.0858803   8.0527419  62.0315016  86.8528395   8.1892508
  61.4857067  85.9479814   7.1055812  87.4809374 103.5075622  27.0907039
  88.3508648 103.8859324  26.9630355  87.6365675 102.5652270  27.1540851
 115.1727679  36.1345297  18.9505786 116.0473540  36.5166097  18.8774604
 114.6403196  36.6349607  18.3322734  46.4313496  88.9997082  23.7516326
  46.5140910  88.8372617  24.6913070  47.1455712  88.4984498  23.3581084
  44.8349178  17.9723268  48.5421580  44.3955601  18.6865860  49.0037173
  45.7591713  18.0726391  48.7700099 109.4772651   3.0559879  49.9135703
 110.0619533   2.5083547  49.3896693 109.5228317   3.9183288  49.5006198
   8.2811487   8.8092285  44.4418830   7.8270328   9.5721536  44.7995872
   9.0581501   9.1710287  44.0157336  76.7397321 106.2829833   7.8625316
  75.9051121 106.1997514   7.4013156  77.4014605 106.1043458   7.1943683
  79.8336662  82.6669602  48.2066649  79.1346992  82.0160370  48.2697600
  80.5782283  82.1847897  47.8469867  45.0049686  28.1408000  79.9573517
  45.4729557  28.9450693  79.7329235  45.4087019  27.4678755  79.4092607
  41.9170463  22.8543335   3.3376140  41.4510143  23.0253273   2.5191993
  41.3547409  23.2282119   4.0160483  87.7582802  95.9208779  26.4527625
  86.8619264  95.7619815  26.7486114  87.7852215  96.8587308  26.2631816
 114.7168459 106.7711072  17.5555152 114.9922956 107.5859551  17.9754848
 114.8037876 106.1076074  18.2399482  96.6056659  27.1964842  19.5243758
  96.2742844  26.6446119  18.8159579  96.4208188  26.6997438  20.3214473
  89.5345558  83.2386594  31.4095515  88.7991012  83.7260442  31.0383529
  90.2608265  83.8621645  31.4068812 110.7156804  28.7168222  14.3646163
 111.6565564  28.6302000  14.5178527 110.6095459  28.5529810  13.4275264
 116.5910675  11.0288244   0.6947917 116.5091922  11.7141491   0.0315684
 116.1695530  10.2642303   0.3024215  81.0153493   5.5126959  18.5037536
  80.9771522   5.0460535  19.3386382  81.6598522   5.0282341  17.9878634
  21.1282242   5.6883245   4.4682807  20.8299339   4.8503261   4.8218554
  20.9076202   5.6478077   3.5377330  80.6872333 101.9443278  28.6515922
  81.4313425 102.2215228  28.1170863  79.9185003 102.1754651  28.1301898
  72.8173484  99.5027499   0.4209441  72.7873529  98.8574843   1.1273116
  73.5233749  99.2000585  -0.1501447 106.1655773   1.0517169  92.8628254
 105.2447809   0.9689761  92.6147747 106.4322675   1.9020415  92.5134563
  33.6668038  73.6022997  93.5694218  32.9768944  73.5316420  94.2291641
  34.4441509  73.8640261  94.0628338  84.3478311  98.2778316  11.0464877
  84.5069421  98.8346295  11.8086547  85.0658239  97.6449113  11.0581798
  96.7716516  92.4288540  15.7714766  97.4914898  92.1649103  15.1984138
  96.8438019  93.3819275  15.8231944 113.2625463  14.1440397  21.8335170
 113.3029344  14.9420791  22.3605269 112.3784473  13.8065248  21.9773406
  56.4130295  71.9491117  22.3704356  57.1245588  71.5819900  22.8950137
  55.7936753  72.2930019  23.0141562  39.9098611  62.4375916  94.5539284
  39.1013932  62.4797297  95.0646496  39.6160388  62.3733854  93.6452103
   3.5413349  50.0675874  19.9226111   3.2688463  50.4154974  19.0735263
   4.2020452  50.6862074  20.2340621  20.6074989   1.0206228   8.0659694
  20.0993860   0.2500063   7.8125876  20.4442537   1.1172777   9.0041846
  81.6007818  71.1923389  50.7672614  80.8641351  70.5817311  50.7400722
  81.6991390  71.4078491  51.6946811  35.5075205  20.9881502  20.6061477
  35.0352991  20.8782154  21.4314670  36.0593641  20.2088171  20.5402965
  12.3715484  10.5067020   4.2058486  13.0924166  11.0468298   4.5296496
  12.8007496   9.7834211   3.7488097  84.5865740 104.2749886   6.0277862
  84.9032129 104.3809991   5.1307124  85.3509725 103.9710813   6.5172500
   0.5266106   0.7943016  53.8074988   0.8507908  -0.0210423  54.1900653
   1.3171518   1.2930971  53.6013907  49.3753386  38.3852530  86.8938637
  49.3031788  38.8686848  86.0708714  49.5944929  39.0519238  87.5448227
  64.4392003  85.3087573  28.8861770  63.9226307  86.1141329  28.9137477
  65.3081382  85.5912023  28.6008567 109.7379877  20.2968126   2.4067229
 109.7219446  19.5158487   1.8534869 110.3741815  20.8752542   1.9861239
  79.1078628  81.4217548  16.5776271  78.2250537  81.2680130  16.2411231
  78.9782823  81.9817882  17.3430079  65.5351247  93.9557629  41.8245143
  66.3100876  94.5004015  41.9624824  65.8607567  93.1922274  41.3478488
  46.5518570  38.9632726  84.8486423  47.4558353  39.2439747  84.7063065
  46.3872433  38.3248043  84.1547394  94.5578254  89.9056606  35.8177203
  94.1215814  89.6585302  36.6331023  95.4918779  89.8397856  36.0163135
   0.0154900  92.2148519  36.7144889  -0.1317335  92.2623687  35.7698649
   0.9562182  92.3583536  36.8177909  23.0755901  47.2739887  87.8612995
  22.5915885  47.8221560  88.4789467  22.9127145  47.6742887  87.0072174
  16.7218006  22.6597267  40.4889792  17.0436514  22.4939495  41.3750762
  17.4646986  23.0572658  40.0347823  34.4225001  87.1211815  88.7349033
  34.0077639  87.3395157  89.5695019  34.0441227  86.2757778  88.4933472
  60.2411164 104.0147119   4.0473670  60.7449807 103.4271102   4.6104640
  60.1505054 104.8181586   4.5597095   7.1632469   6.2086301  44.1498488
   7.7775181   5.4843002  44.0304774   7.7196110   6.9695430  44.3162841
  60.9813369  85.7602410   5.3814811  60.2541126  85.2551489   5.0178164
  61.6890515  85.6527190   4.7460193  92.2944368  70.2676659  15.3325194
  93.1850208  70.5154877  15.5808658  91.9529880  71.0330336  14.8700732
   5.1281297  16.7138582  11.9547576   5.2347982  17.2657877  11.1800212
   4.1958177  16.7719227  12.1636886  88.9526727   1.4686018  25.6059951
  89.4746544   2.0169788  25.0202865  88.2420196   1.1392933  25.0557536
 111.0269549  25.0212007  15.5423182 110.0764825  24.9794346  15.4370231
 111.3647630  25.0766283  14.6484298  17.7731073  78.0563831  68.6118317
  16.8819833  77.8378153  68.8845205  17.6683116  78.8132334  68.0352688
  27.3262429  78.3768368  94.4265366  26.6593647  77.8376007  94.8516655
  26.8854499  78.7424564  93.6595631  86.3103832 100.1118045  21.0659427
  85.8520998  99.2720990  21.0991591  85.9791292 100.5955558  21.8225688
   6.2351501  24.5667225  25.2815360   5.5797088  25.2401643  25.4634971
   6.9331062  25.0305658  24.8190135  53.4071016  49.2153406  87.2185040
  53.5736656  50.1523256  87.1158314  53.9755630  48.7986422  86.5708637
  45.6569052  48.6307764  89.9651432  46.5742540  48.4590626  90.1777840
  45.4476166  49.4353437  90.4395866  97.0892062  17.1586424  46.1534423
  97.7934315  17.7831894  45.9795493  97.4514391  16.5666538  46.8126506
 101.3168920  85.4261212  33.0791396 101.8186964  84.6460705  32.8426093
 100.6005539  85.4515724  32.4447555  20.0172651  13.1468921  51.5601462
  19.4611490  13.9029794  51.3722819  20.0893963  12.6886802  50.7228488
 113.9104249   7.9209905  11.4029235 114.5254733   8.2787424  12.0432013
 114.0580346   6.9756656  11.4312572  71.1301101  98.6845021  19.4343966
  71.7730893  98.6733918  20.1434058  70.7363595  99.5556788  19.4817847
  10.5123222   6.4678150   9.3666667  10.4732216   5.5433803   9.6118754
  10.8515823   6.4640527   8.4716147  75.9955753  71.7248588  17.3584765
  75.6645049  72.5931792  17.1290320  75.3490127  71.3765233  17.9723567
  65.8850278  50.9523066  11.7531413  65.7584656  50.8367045  10.8114070
  65.1723851  51.5324320  12.0211429  13.0636204  15.0859600  27.4796790
  13.4924925  15.1363044  26.6254157  12.7986896  14.1697603  27.5610560
   1.3570917   6.4344936  13.3932322   1.9000232   5.6899744  13.1340903
   1.0826171   6.8301922  12.5659961  75.7874359 106.1273103  12.8595847
  75.5432810 106.8633895  13.4206599  75.4100455 106.3410907  12.0062942
  10.4948557  10.8345228  11.0561675   9.7557438  10.4106098  10.6200046
  10.1416385  11.6662079  11.3720340  23.1616771  19.1264158  35.6865329
  22.4652326  18.5382753  35.3944987  23.8746012  18.5429626  35.9464377
  85.2936901  88.9122348  37.4127501  84.8999847  88.0550008  37.5751513
  85.7022299  89.1497521  38.2451648  68.4737457  75.8146577  38.7221736
  69.3800844  76.1077146  38.6278266  68.2160987  75.5453448  37.8405112
  32.6280105   7.7536922  17.2321052  32.3752249   7.6225477  16.3182467
  32.0173252   7.2101074  17.7299041  94.5851507  13.4226232  20.6735248
  94.3960049  14.2223030  21.1644095  95.2598693  12.9796606  21.1880797
 114.3346908   8.9138370  55.1331920 114.2454150   8.8205724  54.1847342
 114.5075014   9.8457533  55.2670020   0.7777332  86.2336545  61.5569896
   0.1835703  86.6631727  62.1723861   0.8223175  85.3268962  61.8603629
  51.1693907  78.1871986  94.5217419  51.2791872  78.1596375  93.5712528
  50.9028292  77.2987175  94.7579193  19.1847360  27.4364281  91.0608006
  19.1093898  26.8782306  91.8347359  18.2835019  27.6865864  90.8572578
  59.6471227 102.7369885  14.1131610  59.3880762 101.8510680  13.8596457
  59.2907728 102.8477292  14.9946326  41.7689587  94.0729599  19.2106360
  42.4604366  93.4982781  18.8822574  42.1777312  94.5517354  19.9316806
  85.9828771  69.5552902  36.3508147  85.2424921  69.6763532  36.9452971
  85.6801904  69.9117117  35.5156058  44.6445072  40.1008039  14.6002501
  45.3307140  40.7235151  14.3602866  44.2530620  40.4692083  15.3922671
  99.5249059  23.4183031   6.2723845  98.8231017  22.7891641   6.1054057
 100.2623823  22.8825336   6.5644664 108.6260536  28.5939890  23.6862487
 108.0721071  29.1635709  23.1524390 108.1488683  28.5000520  24.5106906
  94.6961130 100.5804257  80.9171409  93.7647117 100.7968526  80.9605140
  94.8157991  99.9028592  81.5825767  39.1117636  87.4503832  17.7061290
  38.2300114  87.7726774  17.5193900  39.4621434  88.0689912  18.3470649
  60.6486953 102.5807624   8.0609340  60.6221594 101.8990855   8.7323779
  61.4185251 103.1048923   8.2820338 114.4374683   2.4615627  38.6607379
 114.5624473   1.5198904  38.7784881 113.5445216   2.6245027  38.9645881
  79.4199861 100.9070640  21.0864753  79.2481245  99.9817328  20.9119529
  80.3731312 100.9853606  21.0463637  16.9498110 102.8829098  94.6557808
  17.5601530 103.4770966  95.0924206  16.2303531 102.7785206  95.2784443
   4.8467052  29.0058428  47.1706599   3.9620579  29.0834432  47.5278872
   5.2041328  28.2203108  47.5846786 101.3169779  66.6004555  23.6325664
 100.8688606  66.0210233  23.0163783 101.8231834  67.1942418  23.0781287
  16.4084327  10.4175955  27.3443431  17.2128523  10.4382806  26.8259639
  16.7064274  10.2802568  28.2435435   5.5551088  29.2968469   3.1033057
   5.2779758  28.4703069   2.7080268   6.3154924  29.5657926   2.5878352
  47.2182322  70.9296083  63.8261509  47.1081209  70.0964069  64.2842770
  46.9619417  70.7421350  62.9231548  17.0405984  67.4950838  89.3618202
  16.6093874  66.8647766  88.7847614  16.3543093  68.1238651  89.5851517
  40.2398205  49.3966150  90.8225346  39.6721840  50.1170397  91.0964203
  41.1262941  49.7515154  90.8891964  20.8401573  15.3789478  17.6192397
  20.0454700  15.7662397  17.9862613  21.4240682  16.1232811  17.4734611
  79.1728367  56.7235123  10.4910392  78.3822311  56.2037166  10.6359023
  79.1638578  57.3739319  11.1932487  96.1518921 109.2896657   3.1314296
  95.9609617 109.7738175   3.9347857  96.2973131 109.9679284   2.4718493
   5.6182182   1.0406070  19.2936725   4.8143661   0.5265146  19.3695468
   5.4002273   1.7357927  18.6728496  81.8278803 105.6392341  23.8883800
  81.6907419 106.4859681  24.3131942  82.7689136 105.4820781  23.9657420
   6.5814102   8.8657098  28.2655162   7.1683252   8.2020145  28.6278171
   6.9519842   9.6984392  28.5578650 102.9126133  98.4662347  34.0428370
 103.6949695  98.5333734  34.5902366 103.1460203  97.8280549  33.3686942
  22.5525272   8.8742071  31.8319434  22.3816002   9.2084938  30.9514541
  23.4986818   8.7309223  31.8542499  82.5027384  99.5174222   9.1628188
  83.1097568  98.7788587   9.2106074  81.9300045  99.4062095   9.9216575
  26.4152086  31.3468652  60.0126761  26.6509187  31.2738996  59.0878314
  26.9688499  32.0530039  60.3459567   0.9171331  26.5037256  32.2624511
   0.0166595  26.1797720  32.2833365   0.8739412  27.3590379  32.6899928
  50.6323959  95.1894765  37.1593303  51.2000002  95.7479339  37.6905364
  51.0633386  95.1532178  36.3054008  48.4667206  50.2742815  88.9327717
  47.5791502  50.6314945  88.9618874  48.7727356  50.4651165  88.0461121
  36.4246118  40.9473520  21.7756480  36.0650766  41.7148691  21.3307971
  37.3520983  40.9459692  21.5390128  23.8627517  30.4584985  20.4031772
  23.9180649  30.4887109  19.4480533  23.0187452  30.8613783  20.6070727
 101.9289567  11.0346513   8.3413238 101.7939474  10.9105354   7.4018592
 101.0962489  11.3839203   8.6588782  57.6281000  87.9466848  21.9667548
  56.9872309  87.2456841  21.8479461  57.1267821  88.7528329  21.8441123
   5.9458195 107.5770786  93.8972092   6.4652668 107.3799194  94.6766567
   5.4339014 108.3487650  94.1394329 115.3157594   6.3472515  35.0780982
 116.0276296   5.8085828  34.7326869 115.5498006   6.4945322  35.9944839
  38.4834469   7.1663242  13.3306235  38.5069311   6.9063669  12.4096984
  38.4780681   8.1232744  13.3092994  13.5056293  13.4248310  17.3086852
  14.0450275  13.7650114  18.0225200  12.7563370  13.0207258  17.7462787
  77.0036567 101.2463384  46.5256995  77.6854075 101.6226058  47.0823592
  77.1639789 100.3031163  46.5550536  67.5603404   5.1746231  37.9620379
  68.0318710   5.8307033  37.4487609  67.3817088   5.6069189  38.7971610
 104.1276004  44.3128019  17.7332896 103.7646940  45.0482660  17.2397059
 104.0127160  43.5574346  17.1566981  26.8090475   0.5382543  20.7316989
  26.7247617  -0.1594014  21.3816279  26.1476505   1.1823421  20.9845656
  96.7627396   1.6802030  17.1996898  95.8807709   1.7561012  16.8355483
  96.8173971   2.3859745  17.8440017   2.0846546  10.3373342  27.9288215
   2.6331222  10.0545507  28.6605662   2.3033512   9.7341448  27.2184962
  98.0209210  33.5800272   8.0729407  97.6408961  34.3167692   7.5943679
  97.9927351  33.8504606   8.9907092  11.9099701  13.0294662   1.3205546
  11.3955915  12.2231250   1.3587779  11.9039524  13.3602052   2.2187728
  89.3384327  89.3140607  13.6129683  89.3999113  88.6003332  14.2478293
  90.0606598  89.1565638  13.0048484  31.0646582  50.5887842  91.3952637
  31.4435959  49.8656654  90.8955288  30.1840854  50.2886820  91.6205692
  83.0304874 103.5042863  49.4510478  83.9187444 103.7871985  49.2337913
  83.0439867 102.5554042  49.3258685  82.0666231  87.5930624  35.8000392
  81.5806736  86.9960575  35.2311152  82.7661623  87.9370289  35.2445525
  66.3138665  97.5568585  51.0280341  67.0614446  97.9059892  51.5132922
  65.8859409  96.9613795  51.6432780  12.1869219   4.1953808  28.3739776
  12.1982944   5.1447015  28.2519359  12.2219551   4.0754657  29.3229884
  60.1453270 105.0886731  34.4057578  60.1647128 104.5267444  33.6310977
  60.5769433 104.5727496  35.0867576  40.6404781  50.2018118  81.3111019
  41.1404228  49.4453192  81.6177082  39.7501397  50.0436878  81.6249943
  16.0983503   1.6692215  27.4992007  15.9932888   2.4034410  26.8941230
  15.2179754   1.5123611  27.8406161  35.5125368  26.7022710  17.0931930
  34.6451366  27.0894724  16.9751948  35.5818069  26.0522752  16.3939494
  23.8627088   3.5412841  12.2875136  23.9206398   3.9926296  13.1296367
  24.0001047   2.6182562  12.5005263  81.0057081 109.6412616  42.2802562
  81.0998548 109.0975146  41.4981383  80.1664509 109.3762450  42.6566142
  81.9695390  98.6569362  32.0293635  81.3824714  98.2174592  32.6445407
  82.8484024  98.4407906  32.3409862   6.5591991   3.3419758  41.7766780
   6.8124187   3.5983329  42.6634616   7.3497045   3.4757143  41.2537497
   3.2472742  -0.1002497   0.9614009   2.8258121   0.3306585   0.2178210
   3.2907999   0.5763155   1.6371173  72.9494132  97.3404794  21.1133784
  73.1411709  96.4041333  21.1654967  72.4952139  97.5379043  21.9324988
  34.4900298  53.2999706  92.2823334  34.1429853  52.5211573  92.7173519
  34.0860963  53.2896566  91.4145947  29.9055326   7.0070081  24.9095363
  29.5438850   7.3652178  25.7201690  30.2018869   6.1284118  25.1471728
  78.5984386  98.1443315   1.3612288  79.0015329  98.9549880   1.6720122
  77.6836766  98.3772426   1.2024898  85.2206411  20.8123213  35.7506865
  85.1219841  21.0165697  34.8207492  86.0633411  21.1966901  35.9922427
   6.6891050  54.6364355  77.4329615   7.2657037  53.8732815  77.4698448
   6.4159781  54.6862173  76.5169048   6.7182720   7.2386270   3.6872310
   5.8673942   7.3210340   4.1178626   6.7170704   7.9258829   3.0209655
  78.7677087 103.8933377  30.3605098  79.6545042 104.2317538  30.2368373
  78.8935817 102.9797559  30.6169433  60.8486022 100.8241229  27.1147937
  60.3388442 101.1418633  26.3695258  61.7426981 100.7529168  26.7804927
  55.3090383 103.8457065  12.3824233  55.6700171 102.9599433  12.3457355
  54.3721713 103.7292771  12.2244472  79.3685402  92.8453045  37.8919429
  80.2541078  93.1876759  37.7703685  78.8659872  93.2184081  37.1677417
  70.8754290  94.2690473  32.0882243  71.3982309  94.9419217  31.6521663
  71.3989509  93.4714417  32.0108718  92.4315418  77.2656279  37.1611613
  92.7334179  77.7229385  37.9460067  93.2259763  76.8883686  36.7833060
  88.7780250 101.9270425   7.9871482  89.1850628 101.9095902   7.1209735
  89.0126861 101.0858636   8.3790511   1.1195886  23.0063253  10.1039523
   0.8742488  22.7353531   9.2192954   1.9872415  23.3976608  10.0026149
  63.0620040  90.9565835   3.8475818  63.4783782  91.8178182   3.8813418
  63.6979498  90.3670387   4.2528457  44.4868267  15.0084835  32.8719443
  44.5740974  14.6528154  31.9875735  43.5514343  14.9442964  33.0646914
   8.7151850  20.2445703  18.1051368   7.8718460  20.1521688  17.6618976
   9.3522108  19.8917585  17.4838847 106.4793017   8.7623554  28.5132903
 105.6054380   8.4005075  28.6604804 106.5704014   9.4459396  29.1770953
 107.5518467  36.5709310  30.3627414 106.6090491  36.6770273  30.4896754
 107.8461602  36.0957628  31.1398047   0.4290045  17.9009109  -0.0157243
   0.6711686  18.8052803  -0.2150041   0.0420153  17.9437118   0.8587092
  18.8687408  17.7389341  33.7903995  19.4639671  18.2700926  33.2614249
  18.0000913  17.9265409  33.4347457  14.2143572   6.7391163  11.2018317
  14.3167866   7.1910959  10.3643054  13.2737291   6.7689758  11.3766402
  10.3357017   2.8408580  26.7530555  11.0107553   3.1488519  27.3577708
   9.5769680   2.6662069  27.3098773  49.3383646  47.3575211  88.1174183
  48.9307976  48.0206823  88.6744976  50.2658510  47.5937366  88.1032467
 104.7911098  25.4043203   3.0064982 104.2092612  26.0750681   3.3639735
 105.2411773  25.8390051   2.2821254  22.7336312 107.6094918  15.4018325
  22.1675302 107.8153901  14.6579474  22.9956545 106.7000155  15.2588862
  96.7556060  71.6938024  19.1398543  97.7034677  71.8247561  19.1145152
  96.4360441  72.1002631  18.3343142 104.8025372  12.6037126   6.4752025
 104.6877744  13.1123739   5.6725043 104.6031930  11.7033106   6.2187404
  52.7479839  66.7227650  79.1056681  53.4071779  66.4619970  79.7488546
  53.0791092  67.5443697  78.7429619  66.0009946  95.0202517  38.9666957
  66.8001856  95.4958205  38.7400550  66.1710633  94.6688728  39.8406714
  11.9835127  26.1557584  44.2591590  11.2002838  26.6045385  43.9407748
  12.4134624  26.7968279  44.8251933  95.7138350  19.2176872  27.4156589
  96.2821522  19.9754863  27.2778625  96.2756576  18.4623151  27.2424716
   6.6604746  22.0273834  10.1127833   6.0322464  21.9349247  10.8290309
   7.3244989  22.6272636  10.4525584  36.1524332  10.1119190  22.1756476
  36.7197407   9.3433672  22.2366733  35.3158319   9.8215347  22.5389785
 106.2424543  59.6361356  16.7639560 106.9610193  60.1216512  17.1691340
 105.4649737  60.1648718  16.9433803  22.9515875  12.9367691  32.1502990
  22.0024336  12.8323513  32.2168654  23.1554258  13.6585956  32.7449817
 112.1255782  56.7185312  13.6056727 112.7683499  56.7900854  14.3113345
 112.5826957  56.2419801  12.9127234  34.7108162  19.9617105  29.7400397
  35.2773178  20.0481373  30.5067462  35.3160703  19.8735815  29.0037459
  36.1365223 102.3990822  86.4736938  35.4208899 102.9285336  86.1218643
  36.5440726 102.9571056  87.1360779  69.9133778  88.7137985  78.0961323
  69.5674849  88.2532406  78.8606405  69.7432899  88.1223488  77.3629951
  17.9354847   7.3746162  24.0974921  18.3701742   6.9521623  24.8383063
  18.6485279   7.6100784  23.5038966  61.3084472 108.6975198  17.1770019
  61.1057247 108.1993394  16.3852042  60.9367336 109.5647864  17.0160502
  22.5734604   6.4005809  59.2976684  22.7715433   5.9409195  60.1135749
  23.4013307   6.4032417  58.8171977  50.4252387   4.8621131  81.8743134
  50.7834102   4.2691661  81.2137413  49.4962634   4.9324275  81.6545582
 110.8560016  33.2731825  23.3868808 110.8142092  32.7245527  24.1701335
 111.1326458  32.6767736  22.6911849  18.0930937   4.1493755  56.8361682
  18.0204857   4.6891695  57.6233119  17.6308382   3.3407503  57.0568007
  21.5815199  12.4540764  14.2938918  20.7458723  12.0229107  14.4728393
  21.6907013  13.0736070  15.0153464  10.1709259  14.3809419  43.3121413
   9.9427545  13.5210615  42.9589099  10.8979213  14.6791893  42.7655524
  14.3537164  73.0234337  94.1072369  14.5063162  72.2673464  94.6740532
  14.5447540  73.7804031  94.6610737  26.2855661  29.6517950   4.2575282
  25.7511652  28.9375406   4.6046657  27.0111263  29.2137151   3.8126964
  51.9864929   2.3275667  26.7934913  51.2050903   1.8315702  27.0376796
  52.6763714   1.9817453  27.3598021   5.7934177   8.8185030  25.3847903
   5.9932077   8.6642986  26.3081187   5.6851709   7.9428392  25.0136680
  27.0460725  84.0504074  90.3795338  27.9397535  83.7076950  90.3688335
  26.9134212  84.4009495  89.4987679  89.0325966  24.8406416  45.5994147
  88.8261678  24.7479873  46.5294856  88.2619002  24.4969230  45.1476211
   9.9256885  58.6859232  41.3298911   9.1388691  59.2175966  41.2095851
  10.0692070  58.2742887  40.4777259  11.6965759  64.0979772  66.9551963
  11.9011295  65.0205904  66.8029517  11.7540729  63.6938768  66.0893744
  43.0797184  28.7864500  15.4557628  42.7161110  29.1510873  16.2626475
  42.3277080  28.3991342  15.0077838  17.1393669  28.4155470   2.0275992
  17.4234665  29.3006807   1.7994422  16.2006986  28.5008341   2.1945018
  10.4989469  14.8320680  11.2550754   9.8152387  14.3415027  11.7112750
  11.1509836  15.0187832  11.9305152  23.0360019  11.0574918   0.8743590
  23.8111103  10.5320316   0.6760329  22.3020065  10.5299287   0.5594653
  16.7670143  13.5971552   5.4786223  17.6517999  13.9402538   5.3534430
  16.7913521  13.1804662   6.3400191  12.0574177   3.9603573  48.3968467
  12.3676050   3.5570865  49.2076415  11.5505064   4.7192817  48.6854953
  35.6608820  62.0744324  87.2059822  35.8998823  62.8034401  87.7783966
  35.2525902  62.4901056  86.4465523  40.0363255  57.8104067  82.0604897
  40.7689714  58.1101227  82.5986671  39.4940424  58.5897255  81.9387245
 113.7436249  21.7574411  25.7045573 114.2894366  22.2134166  26.3451880
 114.3610122  21.2351471  25.1924342  80.5776514 108.1183915  52.2354716
  81.1130441 108.6090713  52.8590316  80.8939375 107.2176366  52.3050517
  21.3015592  26.1927515  56.0103911  20.8628595  26.0054212  55.1805228
  20.9260452  25.5642992  56.6270370 112.6788833  41.3336473  50.2580279
 112.7426603  40.3933531  50.4254168 113.5027482  41.5561586  49.8244685
   2.8645872 108.3697848  28.2726878   3.0796408 108.3045392  29.2031306
   2.3414969 109.1683917  28.2031936   1.1644352  35.8230882  30.8951205
   1.3455713  36.6234403  31.3879127   1.6032875  35.9547716  30.0547046
  53.1834364  71.3025570  92.1461296  52.3974276  70.7582712  92.1928406
  53.8323879  70.8314705  92.6687908  37.5225925  67.5278425  70.8774233
  37.2792244  66.6209650  71.0633802  37.9743314  67.8216362  71.6685295
  16.3012779   0.4037386  19.6333713  16.4131010   0.4882103  20.5802554
  16.4806068  -0.5189318  19.4523829 109.9949744   6.1550956  12.6953238
 110.6319072   6.8607050  12.8078479 109.7263720   6.2188106  11.7787951
   9.4043386  50.6741529   7.5803012   9.2010248  51.2718206   8.2998008
  10.2737272  50.3332525   7.7905005   6.7808985 102.3529582  29.0051288
   7.5944399 102.0463281  29.4055766   6.5138029 101.6378264  28.4276504
   3.2414711  37.2873121  53.4827727   3.3374059  36.4213854  53.0862826
   2.4565208  37.2163873  54.0259665  27.2149408  37.6915937  36.7682666
  27.3527086  38.5297590  37.2095508  27.6820362  37.7787691  35.9373301
 111.3943508   9.6328026   9.6824759 111.4332964   9.1178041  10.4883880
 110.6512024  10.2223259   9.8106402  44.1945350  22.0036131  29.6258086
  45.1172054  22.2562605  29.5929069  44.2012680  21.0549598  29.4983500
  41.1085594  27.2310358  19.9323672  41.3380134  26.8255811  19.0961856
  41.4976585  28.1045442  19.8897571 108.8265302  48.1649976  18.0926532
 107.9020049  48.2848364  18.3097285 109.2276981  47.8676134  18.9092654
 114.1222384  30.9093004  14.4521922 113.7112501  30.0702863  14.6604651
 113.5263493  31.5645605  14.8152083  60.6943655  63.3460760  94.2106056
  60.8882284  62.7431345  93.4928989  60.0982380  63.9899445  93.8281059
  32.8155840   7.6837736  25.4684085  32.0908010   7.1500927  25.1426620
  32.4807680   8.0758053  26.2749022   8.2043064   9.7608715   6.4899844
   7.5650394  10.4116207   6.7799777   8.8758171  10.2703529   6.0364169
  16.7151236 101.3087611   5.6133288  17.3539900 100.7063346   5.9943217
  16.4224409 101.8449836   6.3502330  48.5452736  62.9425722   2.0963973
  49.0406025  63.6126524   2.5674457  49.2129028  62.4153906   1.6575641
  32.3765016  65.5319357  76.0043573  33.0169249  64.9631166  76.4315987
  32.8067374  66.3858318  75.9596968   6.3291586  16.1209684   4.0099162
   6.1788929  15.7405430   3.1445140   5.6234730  15.7686573   4.5522422
  99.3433525  56.5503412   0.6504172  98.4306672  56.2733179   0.5698508
  99.6513774  56.1296659   1.4531535  71.4289045  68.6722088  47.6816082
  70.8854342  68.5441780  48.4590912  71.1305332  68.0011797  47.0676661
  29.3395794  27.0844846  14.9552649  29.0244901  26.6699606  14.1520709
  28.7723434  27.8469663  15.0697154   5.2543438  16.8813472  19.6048659
   4.7905576  17.5800377  19.1433829   5.4687250  16.2449747  18.9227313
  16.3629282  19.1480308   5.8015651  16.5605152  18.6599594   5.0022048
  16.4289320  18.4983164   6.5013808  60.7269669  69.2410612  90.7287884
  60.1066494  69.1201639  90.0098896  60.2300024  69.0139246  91.5147018
  22.9190338  23.3556848  39.5445937  22.6996219  24.2811304  39.6524829
  23.5295379  23.3386236  38.8075561  11.0310877  18.8634449  39.6553534
  11.0408199  19.6901708  39.1730041  11.8384016  18.4223610  39.3909377
  95.4320968  86.4430551  18.9491099  95.9294904  86.7088370  18.1756801
  94.5341362  86.3420730  18.6333388   5.0862110  37.2789865   6.6712779
   5.7294405  37.1961504   5.9672660   4.9698723  38.2228952   6.7795581
  38.4329164  52.8614813  10.6135196  38.6918342  52.5205904  11.4696712
  39.0821541  53.5372644  10.4184741  14.8727190  55.7353115  86.2963581
  14.7472465  55.9606886  87.2181416  14.3740535  56.3975716  85.8178425
  13.0006254  10.8346849  20.4318732  13.1216276  10.1236063  19.8026198
  12.4676025  10.4504400  21.1279124  37.4939561  72.5116110  67.5530291
  36.9022727  72.0801306  68.1694412  38.3432102  72.0975256  67.7064276
 106.5769055  24.3352037  22.7159232 106.6309693  25.0837188  23.3101005
 107.3530676  23.8126426  22.9177588  39.4497192  21.5238863  15.4370040
  39.5338810  20.6085258  15.7039470  39.7701967  21.5408235  14.5352096
 105.1038744  28.0837064  37.9169959 104.4697025  28.2750326  37.2260112
 104.5939734  28.1182771  38.7263411  10.0459850  11.5419298   5.1982516
  10.3686273  12.0818906   5.9197635  10.8377207  11.2118583   4.7734755
  38.0382622  39.0518003  24.7788829  37.1855104  39.2279440  24.3813724
  38.3652532  38.2821470  24.3130988  30.7004631  33.4706598  46.2746638
  30.8195007  32.5642114  45.9910888  30.7070434  33.9783006  45.4631919
  44.1504848  20.4820162   1.6867846  43.6765564  19.7639471   1.2672633
  45.0495899  20.1627975   1.7639464 102.9670885  56.1076742  28.0071944
 103.7703040  56.5558630  28.2721538 102.2698285  56.7372804  28.1906432
  38.1510246  25.7162481  23.5272521  37.7049244  24.9201017  23.2384986
  38.0841959  26.3122373  22.7812213 111.9186332  15.9541851  19.4388598
 112.8041055  15.6238323  19.5906562 111.5038111  15.2857357  18.8935775
  87.4898637 104.0092378  21.5855426  87.7071584 104.2621283  22.4827975
  88.2836927 104.1972070  21.0848063  27.0906580   2.6367908  16.9405574
  27.2730959   1.7619901  17.2835845  27.9104269   3.1164509  17.0594615
  83.8273593  12.0593649  52.8442019  84.3605205  11.8046385  53.5972613
  84.1510215  12.9276519  52.6043147  12.9837835  53.2414537  11.2545699
  13.3231199  52.5023752  10.7497424  12.1406973  53.4421545  10.8481711
  24.8621500  12.4417072   8.0873984  24.3403566  12.6860719   8.8517589
  24.2320669  12.0500904   7.4825305  18.2733333   8.9876609   2.5873870
  17.4861610   9.4850355   2.3655528  18.9711750   9.4064336   2.0835227
  27.3224771  21.8359667  38.4112472  27.5064743  20.9501606  38.0986423
  27.6906097  21.8595415  39.2945117   9.6974027  28.0800920  11.3781470
   9.3432176  28.1407266  12.2653407  10.1450193  27.2342878  11.3562411
  14.6480644  43.3156210  17.0649451  13.8162077  42.8583723  17.1881026
  14.7139156  43.9005285  17.8197879 115.3060844  30.6836420  11.2257689
 115.6738665  31.5151983  10.9266299 115.2018502  30.7940202  12.1708507
  24.9909389  15.7360559  18.4398192  25.2898252  16.6181522  18.6607379
  24.6681392  15.3783804  19.2669219  33.3770216  55.6057745  21.4608878
  33.1397140  54.7554403  21.0909480  34.0873516  55.4111677  22.0722693
   0.1903236  57.3542696  35.3419417   0.5679500  57.0037466  36.1486358
  -0.5612290  56.7888551  35.1638717 113.7030842  27.7650552   5.7350558
 113.2670476  27.2674566   5.0433177 114.6095254  27.4580866   5.7159251
  53.6281574  54.7812277  21.3113135  53.1170261  54.7665125  20.5021399
  53.7789047  53.8584428  21.5162009  56.0149574  71.5392065  75.9644556
  55.5050850  70.7375383  75.8478594  55.3677654  72.2015953  76.2065554
  48.4444988  26.3646131  11.6679973  47.7486122  25.9611612  11.1491508
  49.0108288  25.6345468  11.9179934 103.9826777  14.0501123  16.9057864
 103.3575537  13.4311109  16.5285701 103.5547616  14.9024301  16.8240756
 110.5356767  42.1239572  19.2098254 109.7257140  41.6227728  19.1149062
 110.3632524  42.9467493  18.7520999  43.2935894  58.2458406  19.0524692
  44.0298069  58.3381277  18.4477347  42.5194729  58.4119039  18.5145110
  19.8407638  43.8683420  41.6774959  19.6299732  44.4523626  40.9489840
  20.2962387  43.1317144  41.2698859  29.3535507  47.9563623  33.9179725
  28.5252035  48.3612066  33.6607188  29.9050510  48.0231577  33.1384772
  42.3743820  73.0877495  92.0504379  41.4976120  72.8302908  91.7654419
  42.4391460  72.7633762  92.9486656 112.1996572  39.7553926  31.9017428
 112.7392056  39.4092088  31.1909121 112.1022918  40.6854444  31.6974181
   4.1451299  52.8828722  25.5615348   4.2373121  53.1891542  24.6593589
   3.4680498  53.4454351  25.9374637 104.1879333  90.0405054   1.3408774
 103.7002767  90.6535439   1.8909759 104.8878540  89.7152548   1.9070548
 102.9882600  16.6544014  20.0704879 102.4161127  17.0609718  19.4196528
 102.5064590  16.7308431  20.8940524 110.1451805  16.7590051   8.7899322
 110.3605940  17.6020246   8.3910006 109.1987851  16.6741710   8.6743087
 109.2993715  25.2958017  27.5880259 109.5424058  26.1577421  27.2500533
 110.0019982  24.7162586  27.2936076  14.2013347  24.6697574  39.0548724
  13.6621797  25.0734382  39.7350043  14.5058096  23.8505846  39.4453544
  52.4981392  29.4117075  16.5469378  51.7397487  28.8524061  16.3788337
  52.9612053  29.4453054  15.7098788  36.4578092   9.8316484  28.2884807
  35.5007160   9.8396164  28.2764930  36.7083013  10.7082563  27.9968471
  26.3587702  53.0648523  48.6293334  25.8669126  53.5615259  49.2832583
  26.6206968  52.2642141  49.0838641  59.7358311 108.0271821  53.4165019
  60.5757011 108.3555894  53.7374419  59.7011102 107.1203523  53.7209434
  38.7843406  32.6164728  25.9957141  38.3862818  31.8855959  26.4685744
  38.0465687  33.1779581  25.7576770  91.2226381   1.1054807  12.8793735
  90.6442752   0.3428083  12.8871554  91.1988141   1.4149051  11.9738788
 100.8891871  17.6573187  18.6187476 100.3688981  18.2231384  19.1891784
 100.3952339  17.6238161  17.7995318   9.4290340  57.9910284  48.9377994
   8.6893022  58.5940271  49.0113944   9.7206772  58.0793482  48.0303973
  39.3347061  16.0487323   8.7418956  39.6814907  16.4382654   7.9392547
  39.7398460  15.1824337   8.7821406  92.7448000 108.3444791  50.6739539
  92.0745100 108.0255561  50.0696105  92.8140510 107.6588683  51.3383121
  15.4529262 105.1241875  78.7193966  14.9934673 105.9541988  78.5920668
  16.0700762 105.0775814  77.9892015  35.4130924  48.8474756  24.9500579
  35.1956547  49.5252042  24.3100280  34.5650423  48.5322958  25.2626342
  39.3062019 101.1289120  76.3150740  39.1878414 101.0397434  77.2607327
  39.3429828 100.2285099  75.9923363  13.7136162  43.2380300   6.7199248
  13.6969745  43.9589506   6.0904521  14.6433437  43.0408102   6.8336886
  54.6721351  13.6537796   7.4902648  55.2392376  13.6688810   6.7192859
  55.1875103  14.0799814   8.1750697  10.2702403  38.2717109  93.8546944
  10.7688701  37.6532173  93.3207798  10.7806897  39.0808487  93.8234901
  12.6765478  22.7661615  28.2791156  11.8897808  22.2455269  28.1173533
  13.4007252  22.1573597  28.1336612  17.9816616   7.8543573  51.2262458
  18.7000740   7.2895723  50.9414023  18.0172813   7.8234249  52.1822852
  44.8037422  73.6161810   6.2548560  45.4751098  73.6202722   6.9371242
  44.4853676  74.5184427   6.2267131  23.5216606   5.0811678  54.9126739
  23.0845249   5.1451927  55.7618159  24.4333589   5.3088718  55.0948543
  75.9615601  86.5043216  20.5027026  75.3363217  87.1532659  20.8254737
  75.4178513  85.8287005  20.0975532  43.3634615  85.8494091  63.9738464
  43.9626265  85.1029491  63.9802170  43.7141275  86.4436722  64.6372509
  33.8466382  53.1835794  66.0672188  33.5960507  53.1398344  65.1444340
  34.1174269  52.2915411  66.2844181  48.8131428  69.3546343  93.4194660
  48.9127827  68.6063480  94.0079975  47.8674507  69.4921637  93.3648777
  24.0163696   4.0590292  44.6316642  23.6362493   4.3771749  45.4505176
  23.3377397   3.4994751  44.2540568  59.4271135  82.5529385  86.4115524
  58.7156296  82.5016117  87.0498276  60.2144003  82.3405933  86.9128704
 111.5943914  91.2295914  81.8806934 111.3586297  91.6012764  81.0306931
 111.6898375  91.9887161  82.4558926  31.5638340  56.0594373  32.7639693
  31.8016899  55.8597665  31.8585509  30.6635511  56.3800626  32.7099723
  51.7948389  88.5744190  66.6874123  52.7101803  88.8497353  66.7381954
  51.4238167  89.1052246  65.9825611  10.7218492  25.3629785  11.3671893
  11.5705335  25.7108503  11.0933990  10.9323108  24.5451170  11.8177814
  44.9936378  24.1204267  22.8959674  45.1526821  24.3260580  21.9747466
  44.6872890  23.2135921  22.8895301  96.4017547 106.2922101  22.9204387
  95.5128492 106.3015656  22.5654811  96.6505445 107.2153048  22.9676169
 105.9274104  40.9329229  49.4411200 106.3943269  41.6320043  48.9833945
 105.0690486  41.3076406  49.6386928   7.8583801  13.9670282  52.6947135
   8.1409586  14.1182619  51.7927665   8.6512029  14.0871578  53.2174319
  11.0457968 105.4820828   1.4865512  10.3198790 104.8674827   1.5939635
  11.6004061 105.0828986   0.8162612  68.8705444  97.3158360  88.8767052
  69.7106600  97.5209618  88.4663963  68.9845800  97.5654507  89.7937298
   8.0176389  27.7846437  13.5002631   7.0917881  27.7085405  13.2695312
   8.2128036  26.9778066  13.9768714  60.8676375  96.2168174  43.0541343
  61.8008865  96.3469653  42.8857821  60.4662789  96.2092690  42.1851748
  19.9909771  23.0737882  39.5647735  20.9478796  23.0942398  39.5771140
  19.7376716  23.9274889  39.2136878  89.8250831 102.0294909  82.9140204
  90.3320469 102.2841935  83.6849708  89.0387357 101.6160541  83.2703322
   0.3099655 108.6695676  25.5175132   0.4696678 107.7575641  25.2746600
   1.1829924 109.0372519  25.6548614  14.3624151  31.1774641  10.3317088
  13.9070261  32.0007711  10.1556128  13.7221754  30.4989916  10.1172179
  11.2054622  30.2352052  44.6003074  11.9862259  29.7664934  44.3054313
  10.5024421  29.9053388  44.0406817 111.3641932  45.1300245   4.7162265
 111.8900587  45.7799440   5.1823729 112.0059898  44.5814996   4.2651671
  22.6008356  14.9875217  20.1094932  22.0422352  14.7812420  20.8589286
  22.3428190  15.8734995  19.8551291 110.8464076  11.5133720  19.1512984
 109.9749162  11.4497715  18.7605399 111.2324502  12.2920805  18.7502784
 100.5706551  27.8329282  33.8215941 100.0476506  27.4027925  33.1450767
 101.2797716  27.2164636  34.0042323  22.6750267  27.8778082  24.8574752
  22.0461262  27.1984678  24.6141738  22.3932541  28.6511427  24.3688125
  50.1049948  58.7211180  91.4684391  50.9777689  58.3515310  91.6022396
  49.5153141  58.1075716  91.9067001  90.2343382  99.8311381  14.4195956
  90.2632822 100.6452994  14.9221152  89.4570268  99.3766980  14.7443980
  26.4476085  40.6784630  77.4321985  25.5688810  40.3010702  77.4727488
  26.7993951  40.5616760  78.3147144  29.8123825  40.1810842  26.7550296
  29.4238794  40.9128576  27.2344035  30.5747879  39.9307256  27.2768420
  25.6081856  60.3982168  22.8686446  25.4520118  60.4022222  21.9242782
  25.9471643  59.5219522  23.0516356  21.6507995  41.7222410  31.4296550
  22.0212591  42.1075826  30.6356162  22.4117553  41.5071588  31.9690341
  21.4150179  65.5916696  25.7980365  21.4305771  64.6641164  26.0339087
  20.5192411  65.8716589  25.9862441  54.9645221  46.2011915  20.4336661
  54.9959934  45.6103330  19.6812457  55.6602466  45.8892923  21.0123939
  72.4277033 101.9222598   9.7479743  72.5546778 101.9747167  10.6952590
  71.7395390 102.5613027   9.5628089 105.0171484 109.9535327  18.1213111
 105.6732191 109.2577081  18.1616515 104.8348964 110.1642661  19.0370673
   7.6823795  33.0872636  43.1697005   7.4605215  33.2971960  44.0768641
   8.5619009  33.4452635  43.0492324  33.3884883  89.2297840  72.4763107
  34.2077279  89.1484165  71.9879913  33.6565948  89.5254993  73.3463144
  32.9479826  22.7744537  21.3407248  32.4340046  22.7154594  22.1460647
  33.2722175  21.8852478  21.1978454  19.9997652  50.4201322  24.3309516
  19.6647299  50.5636697  23.4458560  20.4380930  49.5703703  24.2862433
  43.2578647   4.9135070  26.8828982  43.1407249   5.3010374  26.0155314
  42.6157844   5.3611046  27.4339122  28.1868541  10.4804569   1.6666430
  29.0192116  10.0130516   1.5963191  28.4178341  11.3236433   2.0564097
   1.4010704   9.0361458  36.9407672   1.1434496   9.8091274  37.4431342
   1.1376870   9.2356258  36.0423964 113.0123247  96.4856248  10.2868480
 112.4294723  96.5729766   9.5326060 113.8871349  96.6471391   9.9335021
  12.7639091  10.5149894  45.8785361  13.1976784  10.9565645  46.6086596
  13.0233658   9.5977073  45.9651584  25.4573893 107.8158002  51.4578742
  25.7737040 108.7184100  51.4961261  26.2509989 107.2872357  51.3740176
  88.1592907  65.8657103  33.9455241  88.5055078  66.4421039  34.6268004
  88.5918821  65.0258748  34.0997046  82.2505535  96.5982299   4.4378108
  81.4851011  96.0498719   4.6098918  82.6058496  96.7925363   5.3051299
  94.5067753 108.0413203  31.3505191  95.0104059 107.7791648  32.1211452
  93.7969412 107.4012189  31.2991733  45.6207454  20.8267694  23.8829154
  45.5979526  21.3712698  24.6698302  45.7886780  19.9423986  24.2083758
  44.7573841  16.2318426  70.6115836  44.2950237  15.6576877  71.2221641
  44.3113506  16.1005693  69.7748870  29.2711771  18.5459905   3.1139487
  30.0073993  17.9595190   2.9399985  29.6082151  19.4192987   2.9140395
 102.1287706  43.4417921  10.0416965 101.1784198  43.3882433   9.9407214
 102.3367813  44.3597513   9.8675555  60.8337772  37.0648485  20.4870242
  60.7190502  36.4560991  21.2167472  60.9122265  36.5027242  19.7162456
  72.9789114  78.1534386  86.1734962  73.7325764  77.7818918  86.6319370
  72.7472782  77.4938536  85.5196381 115.1558078  95.6576018  46.2271995
 115.9510959  95.3295665  45.8075065 114.5396866  95.7855802  45.5059165
  95.5458463  87.6703029  46.3742942  95.7446207  86.7801051  46.6645831
  95.2063049  87.5623159  45.4858798  55.9954822  11.9978672  42.5471229
  55.2151764  12.5377660  42.6730365  56.1161697  11.5521150  43.3855552
  88.6305332 102.5219345  90.1979351  88.1812668 101.7318153  90.4981136
  88.4855080 102.5351524  89.2518806   5.9652698  58.2102304  17.3319644
   5.7318723  58.8538461  18.0009288   5.1271713  57.8454023  17.0478553
  16.3063181  26.0014635   7.2633285  15.7280910  25.2906328   6.9865626
  16.5116728  26.4715772   6.4552134  70.3419770 107.9929261   8.0089587
  69.5176161 108.4792476   8.0212134  70.5128969 107.8346257   7.0805377
  39.1134918   7.2163873  19.3045920  38.2294786   7.2345358  19.6712226
  39.6836889   7.0784479  20.0609511  28.0025566  15.3317314   1.2656611
  28.5340154  14.9821430   0.5504149  27.1698988  14.8648077   1.1956996
   2.7446354  30.5227667   4.6448535   3.4645689  30.6852441   4.0353221
   3.1673801  30.4481035   5.5003852 115.6189301  11.3591629  48.1464595
 115.2323081  10.8230882  47.4540919 115.1257970  12.1790701  48.1181354
  17.0709694  18.8929754  40.6036204  17.8480137  19.3380886  40.2655238
  17.4176014  18.1709486  41.1277980  22.6241339  35.5876737  13.4951991
  22.1577490  34.7520071  13.5145015  22.0050991  36.2160879  13.8668460
  24.1998661  43.3542638  20.0185889  23.8288725  42.5852686  20.4512900
  25.0135029  43.5265070  20.4924697  97.0580734  98.8892751   6.4184875
  97.2815527  98.3381753   7.1685428  97.7692379  99.5281510   6.3703460
  13.8671339  20.5662113   8.2742995  14.0500915  21.2632900   7.6443500
  13.2462204  20.9562927   8.8895530  35.8574283  50.5902677  14.4211978
  35.1207578  49.9995428  14.2643756  35.5854547  51.4210516  14.0312594
  16.4411628  46.3440805  11.5844172  17.3407448  46.5230756  11.8581790
  16.0443008  47.2094732  11.4852542  32.0212305  35.8706289  21.6290683
  32.0312822  36.4937692  20.9025496  31.9100082  36.4140325  22.4091834
  44.8347664  70.5944300  89.9755573  44.6682310  71.5247774  89.8240471
  45.7502365  70.4710293  89.7247219  44.6594131  47.3553949  31.9133967
  45.0608814  48.2190900  31.8180961  45.2820862  46.8591314  32.4446601
  88.8329220  97.7526569  52.1272039  89.3176746  97.2594261  51.4654160
  88.0748558  97.2036362  52.3275423  27.8533649  93.5833645  86.8176842
  26.9077468  93.6070824  86.9642258  27.9468822  93.5176849  85.8673286
  29.2202425  89.8954868  86.3017941  29.7757602  89.8729134  85.5226135
  29.5264983  90.6582928  86.7922783  13.4048975  43.1087499  10.4844684
  12.7770412  43.6418443  10.9721679  13.8929403  43.7386709   9.9541396
  52.9761934  94.8347569  80.6523514  52.2199678  95.4188824  80.5961800
  52.9326296  94.4708920  81.5366268  23.4754026  18.8807779   5.2068442
  23.2261074  18.9989191   6.1234302  22.8397787  18.2520681   4.8648757
 102.3783029   4.9739218  87.6823235 103.1320919   5.4924632  87.9636574
 101.6469539   5.5914260  87.6887798  25.9318912  54.8507791  27.8881091
  25.7844532  55.5202776  28.5561389  25.4005850  55.1338773  27.1439380
  18.5940813 106.2775521  29.9403876  18.6110567 105.6826739  29.1906756
  17.6670240 106.4818530  30.0630874  40.1891268  87.9491144  13.7719172
  39.4633997  88.3585172  14.2430228  40.0829447  88.2422929  12.8669280
  52.7062595  40.1447778  27.1206969  51.8453586  39.7978120  26.8867988
  52.6698005  40.2555185  28.0707664  27.0275677   1.8898063   9.9419898
  26.7886293   1.5624672  10.8091563  27.7270210   2.5216013  10.1088256
  10.8217943   9.1412454  17.1957225  10.3205621   9.2297416  16.3850707
  10.2035940   8.7599044  17.8191394  36.1264074  52.8149706  56.1458796
  36.3544262  52.0732694  55.5854148  36.7183483  53.5146814  55.8697814
 109.9103334  41.2674623  26.8293780 110.6021454  41.1051660  27.4706954
 110.1740458  40.7630735  26.0597724  86.7747583  42.7106863  21.3770312
  87.3896965  43.3499628  21.7367572  86.1446246  43.2358175  20.8836764
  52.6567745  86.0057545  94.1594410  53.2862425  86.1516571  93.4532356
  52.2379684  85.1737785  93.9388943  57.8108204  14.6408277  21.7518920
  57.9544723  14.9794012  20.8681697  58.3524215  15.1965862  22.3122806
 112.9087403  52.3317724   4.1467208 112.8032305  53.0447488   4.7766131
 113.3736374  51.6502195   4.6320933  13.4889877  26.5731531  20.1777953
  12.8247059  25.8843523  20.1551455  12.9910076  27.3882776  20.1159972
  79.4370283 102.0239978   6.7812175  78.5583867 102.3494391   6.5854854
  79.5799936 102.2572141   7.6984996  21.6201723  18.6309200  16.9717330
  21.4024818  19.5521026  16.8293780  22.3146236  18.4483438  16.3387794
 106.5714314  23.5017210   3.2689208 106.2918403  22.6311498   2.9857749
 105.7847764  24.0419536   3.1943816  44.7081661  77.6713610  90.5590248
  45.4852867  78.2301950  90.5635071  44.9452448  76.9359493  89.9940491
  37.4451923 105.1454544  68.2052755  37.3980737 105.7967663  68.9051342
  38.2369852 105.3739452  67.7183580  32.1706569  36.9135290  24.3693370
  31.5017450  36.3762479  24.7937411  32.5487840  37.4310499  25.0802630
  36.8428934  12.7348858  51.7844790  35.9100092  12.5208049  51.7958850
  36.9262111  13.4066683  51.1077136  54.6254539  69.5957184  93.7336731
  53.9658546  68.9094687  93.8347912  55.4535770  69.1222048  93.6547661
  31.1284340  31.4602190  17.8779811  30.5606640  31.5726762  17.1155948
  30.6036937  30.9490495  18.4940833  11.1541164  53.5769182  19.9838275
  10.6069124  53.1527334  19.3228644  10.5451477  53.8121992  20.6838531
  84.6713448  94.3904495  91.1825848  83.9340401  94.1687202  90.6138515
  85.4343033  94.3689728  90.6049538 100.4936613  92.6890140  20.3092498
 101.2442173  93.0857449  19.8670882 100.3888906  93.2022457  21.1104030
 105.7205452   9.6553851  88.3936501 104.8914589   9.2145014  88.2080078
 105.6603159   9.8997832  89.3171597  26.4141023  40.8901697  17.7133864
  26.7124117  41.6583639  18.2003325  26.6155803  40.1503187  18.2863254
  21.1960577 100.2643161  36.9396323  21.2419104  99.5194297  36.3402385
  22.1075319 100.4405313  37.1728534  24.5200670  21.0261541  27.4459666
  25.2185667  20.4776960  27.0888537  24.3892753  20.6982761  28.3356971
  96.6145446   0.2179533  14.7468490  96.8932392  -0.5483908  15.2481193
  96.5117385   0.9082418  15.4019469   0.4128659  29.5892626  25.7309073
   1.0596764  28.8837534  25.7195014   0.3385413  29.8311525  26.6540545
 100.7049431 108.9625030  18.4907645  99.8856128 108.8221984  18.0161685
 100.8158983 108.1703238  19.0164775  54.6965122  96.3650131  72.1172190
  53.8227654  96.3594913  72.5080729  55.2908087  96.4668369  72.8606415
  22.4318207  40.9556871  25.1599711  22.3778332  41.3672071  26.0225123
  21.5371788  40.9908300  24.8214168  -0.0208366  71.5810686  23.9162654
   0.1862419  71.4918333  22.9860038   0.2368319  70.7430750  24.3004531
   3.6452520  39.2552190  32.5239295   3.9428079  38.4611231  32.0799560
   4.2337072  39.9409681  32.2081679  28.7841976  34.7472578  10.2645606
  29.5336902  34.4793611  10.7962722  28.0709732  34.1769319  10.5513782
  37.0226705  18.6664968  20.0612468  37.0559919  17.9080015  19.4783133
  37.8729141  18.6682087  20.5009097  48.9262629  99.4916630  79.1290855
  48.6912394  98.5755825  78.9814472  48.3982849  99.7559643  79.8824883
  38.6178673  57.5110250  13.5639876  38.9536178  56.8992429  14.2191428
  39.3414343  57.6225095  12.9473418  36.8690848  93.0546665  79.9600410
  37.7305150  92.6392651  79.9199772  36.4289212  92.7710724  79.1587543
  19.1808689  71.3090086  82.7985764  19.8104846  71.7198086  82.2060680
  18.5162568  70.9351015  82.2200298   1.4600933  46.9065099  29.0406436
   1.9528473  46.3610845  28.4275073   1.8241155  46.6905885  29.8991889
 109.0703167  86.1690145  24.9057216 109.2863716  85.2488022  24.7548598
 108.2347978  86.2956839  24.4561690 105.6921341  27.6830965   1.6253013
 105.0385477  27.7148157   0.9266967 106.5190294  27.8887468   1.1891955
   6.8443144  46.1989885  25.7469291   6.0672224  45.6406694  25.7721442
   6.4991606  47.0850664  25.6375712  18.2570242   2.0724154  88.2286835
  17.5187468   2.3558951  87.6894093  17.8551649   1.7570067  89.0381622
  51.5555048  99.9079514  92.6634216  52.2829056  99.5101452  93.1418228
  51.8878555 100.7628727  92.3897552   1.1958540  31.9764906  39.4507617
   1.7743814  32.1891790  40.1830882   1.7769707  31.9324499  38.6914271
   1.7793501  17.6303821   9.2286509   2.6122511  17.2539907   9.5129699
   1.2568796  17.6876217  10.0286406  45.1657474  40.2531915  30.5242557
  45.2983082  39.3707472  30.8705920  44.6658218  40.7047659  31.2042445
 107.4126675  35.9844976  55.2234286 108.1882384  36.4828973  55.4809588
 107.7033903  35.4562193  54.4800395  68.4650791  29.1771227  18.6038703
  68.2474220  28.2845312  18.8724536  67.6177109  29.6122175  18.5095710
  23.7395132   6.9439703  29.3746585  24.1575420   7.5141054  30.0199717
  23.7508810   6.0762697  29.7786349  49.9731148  17.3777824  14.6080226
  49.8163307  17.4860006  13.6699790  49.0999687  17.3920351  15.0000113
 107.9387309  18.8047367  13.1395549 107.6905801  19.6228033  13.5701579
 107.2518566  18.6584907  12.4891395  20.5719888  16.9089943  40.1146430
  20.3684128  17.3807245  39.3070144  19.8129976  17.0599466  40.6780070
   9.8397196  28.7108617   3.4820479   9.6003855  29.1641432   2.6736659
  10.0631511  27.8232961   3.2018107  24.4170749  34.8837858  16.2005538
  24.0959728  35.7541948  15.9649295  24.8109663  34.9997717  17.0652122
  50.1376820  71.8132067  93.4957123  49.4438410  72.4621534  93.3787155
  49.7023773  70.9708643  93.3645248  79.0044035  22.2858191  82.2815990
  79.4088949  21.6325522  81.7107582  78.5328783  21.7719317  82.9371929
  27.3058403  27.7656465  11.3581199  27.3219526  26.8540197  11.0667151
  26.5959490  28.1652361  10.8555240  28.8269842   7.0113187   2.9395789
  27.9194916   7.2697073   3.1005877  28.9696062   7.2025781   2.0125884
  55.0622738  56.4811617   6.9702548  55.3742492  57.3313051   6.6601676
  54.6034801  56.1057382   6.2187213  51.9516361  19.2615228  15.6774920
  51.3841903  18.5667949  15.3434485  51.4367283  19.6805340  16.3670749
  29.8552406  49.0292841  22.0590896  30.1797521  48.9988142  21.1590880
  28.9824569  49.4154745  21.9860476  38.6584938  46.1388307  54.5957011
  39.4532717  45.6057554  54.6152991  38.6601293  46.6021352  55.4333037
  25.6099343 102.7615643  85.3618717  24.9690437 102.9110909  84.6667957
  25.1027131 102.3766804  86.0765934  76.4649476   7.5760031  86.0237122
  76.5514625   6.6778708  85.7041740  75.5269898   7.6851702  86.1803913
  52.0863724  74.7174644  90.0571728  52.2965288  73.8097239  89.8379040
  51.4447355  74.9808216  89.3974972  69.8081684  97.7109432  91.3266087
  70.1440859  98.5769749  91.5576553  70.5798340  97.2241116  91.0371971
  60.8968925  72.6990700  79.7498417  59.9884987  72.8015327  79.4660234
  61.4103889  73.1410456  79.0736628  15.8090818  27.5785452  21.5542525
  15.4620397  27.6688963  22.4417418  15.0740564  27.2400861  21.0429687
  55.4903114  45.8401781  28.0545348  54.9360073  46.6100794  27.9271144
  56.2509525  45.9974580  27.4951285  92.1405888  72.2720385  94.9577618
  92.0971012  71.3938046  95.3359795  92.2224236  72.1233416  94.0157318
   3.2524956  28.8237672  12.6871318   2.7336586  28.9995676  11.9021911
   2.6996982  28.2482057  13.2156867  78.1898928  60.0305748  71.8900633
  77.8135967  59.8138618  71.0370302  79.1334295  59.9232054  71.7698812
  54.0709007  27.1281534  48.3192557  53.9934719  26.1746984  48.3534736
  53.1795776  27.4350172  48.1531161  90.5477872  51.8309313  19.7677058
  89.9554958  52.4482923  19.3384189  91.1726763  51.5848356  19.0856666
  82.5480760  77.7306108   5.8768386  82.0797886  77.7893763   5.0440806
  81.9541134  78.1272225   6.5141314  65.3912449  77.1917868  77.5453281
  65.8427429  76.5693998  76.9752264  64.7778034  77.6449537  76.9669199
  80.1858820   4.1663600  86.2665749  80.4500593   4.7712088  86.9598293
  79.2478193   4.3223239  86.1572742  31.2021339  27.6747518  35.0995749
  30.7537163  26.8479734  34.9218387  31.5144003  27.9667860  34.2431659
  41.9904793  30.2936655   7.2438449  42.2407711  30.3280550   8.1671065
  41.8841541  31.2105089   6.9902152 100.4020084 106.0286670  55.2269095
 100.5701555 106.2203984  56.1495131 101.1534132 106.3997035  54.7643680
  39.2494154  69.6714211  63.7258244  39.0357614  68.9249325  64.2855930
  39.4804883  70.3708029  64.3371344  13.8645720 103.3941941  34.6744365
  14.6344542 103.9560990  34.7626323  14.0564131 102.8423648  33.9161986
  22.5072611  43.1037908  13.9901561  22.7334154  42.7031141  13.1507892
  23.3478487  43.2261186  14.4313830  69.6245277  29.7131448   4.9904746
  69.6102608  29.6863275   5.9471911  68.9392269  30.3397566   4.7581881
  34.2068422  26.7082220  23.0440921  34.9571789  27.1671205  23.4217566
  34.5920313  25.9802633  22.5562972  19.2389906  45.9470945  11.5295810
  19.7588241  45.1594930  11.3693065  19.6885050  46.6348081  11.0384482
  14.5960701  12.0591121   4.7012061  13.9731205  12.7782970   4.5966071
  15.0545347  12.2562509   5.5180186  56.2099075  86.1586857  87.3563004
  56.9806099  86.2402344  86.7945099  56.3970423  85.4015350  87.9112148
  20.9019125  15.3088480  31.0296744  21.8584287  15.2737051  31.0382194
  20.6415403  14.9523025  31.8789786  26.8720424  49.8015218  28.8885707
  26.0337341  49.5061212  29.2438239  26.7906750  49.6721464  27.9436511
  42.6593769  42.6367860   4.3612403  42.6568020  42.9101568   3.4439105
  43.4743393  42.1450144   4.4623202  30.4736316  31.1527353  40.2615375
  31.0199487  31.7706495  40.7472915  30.4018152  30.3920084  40.8380431
 104.8902788  52.1953297  60.9097195 105.5422988  52.3990536  60.2392006
 104.8312034  51.2399721  60.9039211  92.9009176 105.1275169  75.5841970
  92.5834096 106.0206878  75.7171106  92.1179224 104.6264558  75.3559685
  15.2915846  98.8103592  81.3676548  15.0585591  99.7110760  81.1426163
  16.0014426  98.5888898  80.7649231  22.3758864  12.9020357  90.9958267
  22.6160431  12.1330762  91.5127945  22.5369000  13.6431170  91.5798664
 110.4108634  43.1013489  72.9618359 110.1419493  42.3582745  73.5019827
 110.6113507  43.7945080  73.5907793  20.9652734  61.3336849  82.0492840
  20.8112264  61.6217518  81.1495495  21.2703300  60.4305363  81.9626999
  18.6461604  47.9362249  90.1552200  18.7103283  47.5723934  91.0382557
  17.7074337  47.9473829  89.9684048  26.0580945  12.9438937  65.1925087
  26.8063045  12.9556882  65.7893944  26.4460874  13.0177701  64.3205929
 114.5076490 103.5966205  94.0304089 113.7685109 104.1999268  93.9533997
 114.3525721 102.9399621  93.3514500  89.8668302  91.1771588  19.9270171
  90.1344408  91.9803791  19.4804210  90.4759897  91.0968714  20.6609839
  25.9242105  24.0981078  72.8375340  25.6437922  23.6758375  73.6494970
  26.0299683  25.0202823  73.0712891  82.3951496  99.9398732  87.1546173
  83.1445659  99.3490969  87.0798397  81.6505838  99.4222187  86.8482018
  93.8191237  37.0482898  83.7902355  93.7969436  36.9350815  84.7404575
  93.0260815  37.5453734  83.5896683  32.7876639  27.8725243  92.1001148
  32.8683066  27.8472447  93.0535698  33.2481217  27.0888734  91.7999363
  17.5062060   1.7001414  90.8503246  16.9771469   1.9957873  91.5912151
  18.3982599   1.9680673  91.0709763  51.4403152   8.7537831  87.0909786
  51.1273241   7.9641145  86.6497421  50.6519508   9.2782438  87.2311783
  51.3038540  25.4420495  76.0005903  51.6613293  25.6150866  75.1296711
  51.8852234  24.7776365  76.3704491  44.5597219   9.2161047  80.2736473
  44.9548244   8.6123925  80.9026623  45.2986526   9.7117513  79.9207354
   5.0246894   7.4462724  92.2826672   5.7947999   7.0813578  92.7185631
   4.6284220   6.7003417  91.8323421  99.0556301  83.5737448   6.0011596
  98.7606205  83.0848341   5.2329463  99.1504682  84.4740467   5.6902045
 100.8814670 103.5523718  84.5566082 101.1998058 102.6516634  84.4964695
 100.1268364 103.5010301  85.1432323  88.0365194  55.7335297  32.7804870
  88.8330854  56.1427486  32.4424762  87.7896560  55.0984852  32.1081752
 107.0755876  76.6036658  20.0951213 107.4212803  77.3870068  20.5230350
 107.8332771  76.2157874  19.6572989  93.1594337  83.5861735   8.9558238
  94.0369810  83.2699089   8.7410659  93.2795013  84.5172005   9.1429061
  57.7891588  28.2253170  63.0682373  58.3106327  27.6651096  62.4933767
  58.2931900  29.0364146  63.1338453  15.5147624  69.7612476  81.8785954
  15.4931843  70.4425478  82.5506020  14.6976852  69.8771954  81.3936424
  27.9673840  63.8315039   3.0596370  27.4387718  64.3990366   2.4986476
  27.5747706  63.9202892   3.9280910  49.9909533  70.5111091  20.6983394
  50.4676808  69.7325044  20.4107017  49.6959187  70.9246283  19.8870486
  89.8474039  60.8186393  11.0787410  89.8946203  59.9689870  10.6404609
  88.9296592  61.0786449  10.9989184  88.0740036  89.2845063  33.3433742
  87.7209104  89.6298938  34.1632861  88.7440647  89.9176078  33.0856246
  43.8869865  98.7204843  10.7298106  43.1992037  98.0547671  10.7271880
  43.4176306  99.5494132  10.8237285  28.9690089  32.7639365  59.0319109
  29.2512226  32.7029085  58.1192970  29.3574810  33.5793829  59.3487215
  58.6463536  64.5870470   4.0215510  59.5064677  64.6823667   3.6124724
  58.7490309  64.9783807   4.8890418  51.3695145   8.2638443  90.2438736
  51.7877197   7.4080801  90.1489830  50.8688784   8.3766872  89.4358730
  77.3228968  65.0229983   0.9868258  77.1321906  64.2775254   0.4175014
  77.0559157  64.7327398   1.8590087  46.2533998  31.7854881  57.3744869
  45.5500412  31.2438655  57.0164919  46.8996906  31.1569118  57.6961040
  74.2837800  49.4475590  21.5688247  74.7734965  49.7483634  22.3342818
  74.2472566  50.2110519  20.9926433  20.3396869  14.4886744  94.7652340
  20.3585529  14.0262604  95.6031132  19.4611096  14.3262863  94.4217777
  79.9572338  93.7662129  18.1852645  79.3041004  93.3044176  18.7109965
  79.7612442  94.6933799  18.3201045  62.8321266  16.4622283  72.6785088
  63.1367779  17.3688900  72.7157068  63.2286739  16.1087871  71.8822289
  30.9998345  40.8374643  81.4210033  31.5395069  40.0535631  81.3186073
  31.2194729  41.1673117  82.2923183   1.9541031  15.1978433  80.2206421
   1.7937841  15.0551510  81.1534691   1.3528815  15.9024954  79.9793291
   3.1577143   0.3395459  75.4295826   2.6686585   0.3175382  76.2521219
   4.0767387   0.3285910  75.6969881  88.7905706  56.5654782  21.1296100
  89.4172062  55.8916452  21.3932628  89.3052829  57.1794175  20.6057948
  25.9494328  18.2331455  87.5128269  26.6531944  18.3889639  86.8830109
  25.1533246  18.5001731  87.0533276  66.9401134  63.2160478  14.6860904
  66.6393484  62.9045557  15.5397529  67.5063981  62.5158803  14.3615645
 104.4578136  70.0081878  35.3738898 104.6438993  70.9281461  35.5617255
 103.7801183  69.7671192  36.0054416 102.0974780  91.3367581  26.3492560
 102.4831677  90.7232093  25.7239294 102.1219874  92.1823382  25.9013438
  78.8054562  17.7234256  83.2927990  78.2701397  16.9360566  83.1942272
  79.1792488  17.6505244  84.1709805  41.0011005  55.8069515  93.6347771
  40.5663109  56.4078856  94.2398167  40.9724236  56.2555456  92.7896976
  77.0696963  34.1250877  25.0718135  76.8091096  34.2594724  25.9830016
  76.6629780  34.8499041  24.5969981  86.5890039  49.9126764  16.4580935
  86.5373529  50.8632891  16.5575904  85.8391727  49.5791923  16.9508094
  29.7234249  45.7286549  66.2504530  28.9545107  45.3631401  66.6879463
  29.6592903  46.6716719  66.4015770   6.4570981  44.4772863  78.6895418
   5.5953735  44.0645027  78.7467289   6.8900335  44.0283108  77.9634428
  68.8628234  96.7536311  14.9898261  68.7101186  97.5688558  15.4676646
  69.1384066  96.1301522  15.6618136  54.4735838  55.0461010   4.4898719
  54.7285606  54.1803859   4.1708774  54.6801485  55.6382248   3.7667102
  57.5628854  88.1155019  15.2472991  57.3902394  87.1955543  15.0470084
  58.5173763  88.1871204  15.2402514  48.6163284  82.0934396  10.7768744
  48.7133975  82.9846840  10.4414767  47.6708282  81.9450574  10.7924861
  42.1525383  23.0598903  65.8305836  41.4257812  23.1387091  66.4485216
  41.7360687  22.8359747  64.9983311  64.0536202 106.0790973   7.3942298
  64.1691674 105.6516843   6.5455932  64.8388017 106.6160874   7.5008410
  94.1009439  79.9234920  12.5062865  94.9953712  80.0888591  12.8044147
  94.2052759  79.3767767  11.7275447  29.7033596  33.0043316  75.3592682
  28.8039303  32.7044320  75.4908848  29.9147272  33.4858799  76.1590576
  67.1404422  84.3327312   3.8167304  67.7598323  83.7571316   3.3680934
  67.6177014  84.6456437   4.5851916  81.3274779  60.2666330  78.1436157
  80.7354464  60.6802702  77.5154161  80.9236230  59.4193268  78.3312607
  38.7247777  31.5245438  88.8693428  39.3016696  31.9860148  89.4780064
  37.9049420  32.0179081  88.8956642  61.0306597  26.1199450  91.6267300
  60.3856802  25.4278302  91.4810753  61.1365032  26.1524796  92.5774956
 110.0506904  12.1429306  10.8403510 109.4806697  11.8989759  11.5695971
 110.8007338  12.5693374  11.2548942  58.3995212  78.4077244  10.1178187
  57.8489400  78.7093072   9.3952292  57.8992809  77.6975398  10.5198497
  77.8736986  93.3374934   1.2010688  78.6256779  93.4366446   0.6171721
  78.2362570  92.9411297   1.9933337 109.4103779  45.7721041  34.0047091
 108.7092508  46.2441550  34.4539565 109.9688114  46.4601980  33.6428946
  22.8164707  97.6985525  79.2527485  22.5159441  97.1729922  78.5113287
  23.7715517  97.6650237  79.1986036  69.1184616   8.9643240  66.0329294
  69.9606705   9.3598586  66.2575769  68.9673138   9.2228925  65.1237917
  88.8061633   3.9498048   8.6448306  89.2333259   4.7717291   8.4035796
  87.8733256   4.1629511   8.6696071 108.9592553  70.7859587  79.9486780
 108.0047394  70.7440423  80.0067806 109.2654038  70.0902294  80.5304527
  49.1061258  28.8777065  80.2861977  48.6450243  28.9595699  81.1210155
  49.7694302  28.2058358  80.4438305  50.8083868  51.5175390  94.5738029
  51.7151356  51.8078613  94.4750881  50.8187389  50.6013441  94.2968273
  92.6073660  47.6783644   4.6512240  92.8041853  46.8221192   5.0311488
  93.4372915  47.9691552   4.2732066  76.5615572  85.2712803   5.2674788
  75.8027662  85.0994163   4.7098655  76.9081677  84.4033818   5.4744643
  72.4296726  77.4872379   8.8685054  71.5088953  77.3599772   9.0969962
  72.4379386  78.2882886   8.3445949  55.4688836  60.1994835  10.1036853
  55.2775086  60.2275674   9.1662330  55.9819163  59.3997310  10.2195472
  83.6413383   0.5235360  77.0928049  84.5899105   0.6489744  77.1194315
  83.2929611   1.3816322  76.8508625  92.3059238 105.4443841   7.6462668
  91.6700853 105.7525639   7.0005340  91.8317236 104.7859149   8.1539840
  28.1729174  27.5598431  63.6204958  27.4596119  28.1119323  63.9408493
  27.7342558  26.8495822  63.1521559  82.6734317  57.6651846  37.0481986
  82.7164234  57.2195630  36.2021464  81.7418588  57.6722910  37.2680968
  24.3456554  20.3077173  70.0808430  24.2822695  20.6235123  70.9822273
  23.5195374  19.8486114  69.9292517  96.5659190 108.6639705  94.7326946
  96.6754795 108.8989780  95.6541061  97.4570049 108.6404727  94.3839169
  16.9783831  38.4386921  82.9634285  17.7459097  38.6500216  83.4949112
  16.2463212  38.8442850  83.4279823  62.1974516  29.0016627  86.4364910
  62.6372147  29.7927308  86.1249638  61.2884998  29.1064143  86.1553097
  70.2936686  61.8688701   8.6908168  70.8020581  62.0029424   7.8909415
  70.8446516  62.2257297   9.3874473  64.3970669  84.7252517  20.4764670
  64.5471204  84.0660267  19.7988719  63.6412848  85.2224593  20.1637191
  84.4323887  64.8397647  17.2482223  84.9969019  65.6007116  17.1121520
  83.8973583  65.0711589  18.0074519  54.6722603  16.1034656  92.3932457
  55.4282427  16.1099076  91.8061543  53.9338589  16.3485157  91.8356228
  79.6480716  45.0442855  29.0140170  80.3165592  45.1887130  29.6837157
  80.0556863  44.4379954  28.3955592   9.2876421  99.6782481  93.3825302
   8.9820086  98.7767088  93.2823086   8.5187041 100.2146744  93.1896305
 107.8392435  74.1285681  92.6380157 108.3549405  74.9328207  92.5791454
 107.9419638  73.8441204  93.5461807  81.0811485  70.7507412  15.9547347
  80.1516164  70.5234628  15.9782523  81.4478458  70.1890712  15.2718848
  26.4135361  12.3056161  85.6144714  26.4688897  11.9573605  84.7245979
  25.4768801  12.4353158  85.7630825  36.6582060  38.8290668  79.4605494
  36.2025332  38.1077003  79.8943996  37.1106744  39.2870760  80.1688766
  54.2270447  74.9333506  22.3873347  53.7362565  74.2035739  22.7651996
  53.5558118  75.5098801  22.0222396  87.7113498  74.6649246  21.3692969
  87.6700748  73.9007168  21.9442004  88.2552923  74.3824391  20.6340617
  56.2980223  37.3575497  88.3738708  56.5554619  38.2712531  88.2509708
  56.7970467  37.0688057  89.1379547 101.1673928  70.3423666  64.5875263
 100.9339977  70.8059334  65.3918076 102.0743323  70.5975961  64.4185543
  78.4192241  78.7421017  28.6342544  77.7149213  79.3353181  28.3729476
  79.0598406  79.3067198  29.0667552  77.2446598  50.0394126   4.5137042
  76.7464603  49.9956127   3.6975402  78.0309428  50.5364405   4.2879695
  77.4138417  37.4673462  90.7652855  76.9412794  38.1117249  90.2383232
  76.7495789  36.8217945  91.0066414  32.6602840  49.9791431  73.7030172
  32.6095247  49.6571684  72.8030205  31.7482924  50.1114225  73.9618683
  64.9333228  74.9397879  11.3103503  64.7190417  75.5782108  11.9905871
  64.1101898  74.8046451  10.8408565  58.2555151  47.3517132  87.7980232
  58.2078743  48.3034515  87.7077389  57.9908752  47.0163202  86.9414616
  34.3241119  32.0798779  85.5419159  35.2005720  32.4452472  85.6625652
  34.4639730  31.2887239  85.0215816  82.9146970  95.2714639   2.1046752
  82.1346344  95.4638391   1.5843600  82.7019657  95.5898576   2.9819411
  26.2371445  70.5083036  75.8359003  25.8527470  70.0358248  76.5743017
  26.0601544  69.9520016  75.0773239  50.0386763  16.4605772  62.2137499
  49.4911671  15.6787992  62.2864723  49.4210625  17.1697831  62.0354080
  58.5052204  23.1771469  85.8039951  59.2662001  23.3578849  86.3557911
  57.7644920  23.5363317  86.2924004  31.3052726  55.8144665  65.5167150
  30.7604337  55.1254225  65.1364470  30.6820059  56.4826059  65.8019495
  85.9160709   6.2174535  89.5944500  85.5605221   7.0997709  89.7008991
  86.8253422   6.3560069  89.3293476  35.8039331  38.8488245  94.6098232
  35.8954382  38.1036997  95.2036667  35.7979941  38.4590411  93.7355995
  83.4409203  13.8083511   6.1552161  83.9228269  13.2734924   6.7860335
  82.7269366  13.2439666   5.8586902  87.9322256  90.0272565  21.1315364
  87.9312242  89.0892868  20.9406299  88.7362350  90.3531461  20.7270640
 102.1524013  56.5878414   7.9905719 101.8379654  56.4010847   7.1059913
 101.6264261  57.3336597   8.2792586  91.4317144  97.4380259  19.5620650
  91.1747373  98.3260350  19.8103351  91.6596807  97.0144515  20.3896159
  80.4553808  53.5793107   4.3450469  80.9261621  54.3735903   4.0926284
  79.5333112  53.7908488   4.1991919  85.0959587  12.5164473  65.5237961
  84.2773724  12.9596722  65.7467365  85.6593037  13.2111454  65.1828241
  45.3684998  44.1103601  53.3699465  46.0575914  44.6282053  52.9537487
  44.8998117  43.7049770  52.6404047  30.8294415  50.0331163  80.4444695
  31.0868573  49.1600132  80.1484013  29.8770618  50.0470924  80.3495598
  38.7994456  57.6006937  85.0957489  39.0899372  58.4716129  84.8249245
  39.4795942  57.2976255  85.6972313  70.6739744  19.4817072   7.7693290
  70.1594808  20.1290756   7.2872085  70.9361502  18.8425165   7.1068114
  23.7473059  52.9035187  80.7773495  23.2343364  52.2721624  81.2818146
  23.4609747  53.7577105  81.1007690  58.0096008  96.7267709  14.0627307
  57.1322669  96.3533931  14.1470355  57.8830720  97.5208430  13.5434264
  16.6869343  24.1747194   4.4287223  17.3874653  24.8033386   4.6028728
  16.8234813  23.4795242   5.0723762  47.0437622  21.6262913  92.5976753
  47.7657795  22.0825887  93.0297852  47.4193573  20.7898831  92.3227596
  73.5468711  81.4543657  29.2435760  72.8413643  81.3184528  29.8760432
  73.1123747  81.4293294  28.3910388  36.9849014  65.9419250  93.5206604
  37.4749255  66.6024017  93.0308819  36.1425829  66.3571405  93.7059402
  80.9593309  97.9862552   7.1291083  80.9458269  98.6769729   7.7916450
  81.5293325  97.3115735   7.4980754  87.6318659  64.3184154  25.4388827
  87.7091039  63.3692561  25.3421134  86.6888202  64.4811182  25.4594535
 103.6831249  84.2709451  27.3873919 103.9857830  83.3703594  27.5039119
 104.4487442  84.7398691  27.0554751   7.2424495  15.9862190  13.8389510
   6.5047777  16.4128023  13.4029407   7.5061786  16.6028696  14.5218963
  77.8238548  82.8687983  13.8951224  78.7028421  82.8984361  14.2729300
  77.9474105  82.4743371  13.0317801  33.8942337   1.9394423  70.7779932
  33.1862903   2.2916833  70.2385712  33.8099003   2.3986965  71.6135788
  79.2244781  98.4619622   5.0742549  79.9837221  98.4005074   5.6539077
  79.1432012  99.3965964   4.8842925  97.0866693  90.9914546   3.5939998
  96.9807876  90.2221541   4.1536349  96.4283861  91.6101890   3.9103240
  34.1358542  37.2729087  59.3298006  34.1208029  37.8203869  60.1148319
  33.3248138  36.7665792  59.3753242  58.2821716  93.4623699   9.1457004
  58.6202635  92.8504806   9.7995490  57.9830683  92.9045110   8.4276790
  38.0875874  14.9748540  81.0168457  38.6961722  15.5566740  80.5614948
  37.8386021  14.3260705  80.3585720 109.0998032   4.0225607   9.2328853
 108.2421234   4.3971258   9.0320987 108.9857795   3.6077886  10.0879878
  85.7638229  81.3809018   3.8270682  86.1085905  81.0197406   4.6437186
  86.4655746  81.9429712   3.4986514  49.2719793  49.7029972  92.4819469
  48.4876728  50.2516174  92.4925804  49.4421625  49.5105362  93.4040260
  79.3047918  95.4755120  48.2785720  79.3641676  95.0996737  49.1568965
  79.9470390  96.1852651  48.2778377   4.7189653   6.2680727   8.4555072
   4.3939340   7.0562034   8.0202693   4.2849720   6.2693601   9.3086738
  82.1062578  77.6952391  29.9664515  82.2677387  76.9277029  29.4177741
  82.9785026  77.9916124  30.2264136  89.1708578  80.4138617  23.9941615
  89.2163480  81.1487584  24.6057910  89.9187101  80.5413823  23.4104842
 108.8328388   2.6908117  11.9293612 109.0463807   3.1508356  12.7411574
 107.8760579   2.6695257  11.9106978  19.7206569  22.1562386  93.8340855
  20.4813814  22.4526072  94.3337822  18.9685714  22.4159861  94.3661880
  91.8631042  98.9252477   8.1734294  92.0043434  99.8334222   8.4408301
  90.9193433  98.8629060   8.0262679  88.5696329  61.3992976   6.8095225
  89.5114196  61.3932757   6.6385478  88.2552112  62.2002934   6.3902682
 114.6359136  30.8582597   2.1618480 115.0780942  31.0177236   1.3280124
 115.3465059  30.7757002   2.7978343  13.2697141  69.2617846  88.4085274
  14.1421938  69.5392513  88.6878490  13.3336961  68.3096600  88.3337116
  85.1880420  87.5643735   5.2204627  84.3765415  87.7890305   5.6756896
  84.9790729  86.7635803   4.7395343  77.6856269  61.8010085   5.6115836
  78.0243744  60.9455304   5.3476924  78.3273829  62.4267404   5.2756614
  44.1528893  43.3405495  90.9484196  44.9289179  43.1731558  90.4136372
  44.0845108  44.2948055  90.9792042   2.1983313  87.9540710  17.7004546
   1.2630056  87.8419905  17.5306243   2.5349783  88.3825664  16.9135016
  55.4891777   7.3573720  77.3171329  54.9532032   6.6339588  77.6421452
  56.1937666   7.4409246  77.9596329  99.2739309  73.1423120  14.4629115
  98.4624256  73.0314617  14.9582976  99.9019731  72.5674300  14.9003047
  29.5157051  29.9427485  77.9282904  29.0961266  29.3147969  78.5163927
  29.0751052  30.7727766  78.1103849  32.7695417  64.7657347  93.7534714
  31.9491410  64.2972946  93.9075565  32.5298095  65.6911278  93.8024807
  49.5674658  11.4303613  74.9537945  50.3863859  11.6131365  74.4931459
  49.0535164  12.2319210  74.8558569  75.8760322  84.5143442  14.1279143
  76.5740336  83.8594537  14.1399116  76.0001768  84.9815993  13.3017844
  42.3011589  24.9192309  78.5905552  42.4657917  24.7263622  79.5135546
  41.3885641  24.6658444  78.4520006  83.7097801  64.2870210  10.5133742
  83.1067384  63.5685776  10.7041949  83.1448950  65.0528269  10.4100245
  45.7123698  63.0880766  25.2835196  46.5649713  63.5205530  25.2359027
  45.7665248  62.5371777  26.0644168  21.9165683  55.0544167  91.1433125
  22.0216942  54.7264957  90.2502060  22.0674586  55.9969330  91.0717201
   3.5160464  36.1359692  87.7935696   3.6172211  36.5401387  86.9318104
   4.4119078  36.0174012  88.1091785  72.9471827  34.5274329  88.8611221
  72.5211954  34.0347719  89.5625877  73.0909252  35.3977251  89.2328262
  38.9225793  29.6675754  76.6204405  38.7322211  30.4701638  76.1347961
  39.1476798  29.0270352  75.9457016  78.8845218 100.8840280  10.8062572
  78.9184011 101.5776544  10.1474971  78.1230296 101.1013703  11.3439673
  84.6292652  68.0615966  41.0354251  83.6980976  68.2734709  41.1007327
  85.0656761  68.7377851  41.5536422  65.4266977  22.0287824  93.2325554
  65.0656414  21.1632013  93.0411339  65.4871082  22.0572853  94.1874218
  32.2329164  62.3919249  62.8352737  31.9796062  63.3084202  62.7252817
  31.4775610  61.9837904  63.2584667  15.0184333  23.1972337  78.8743019
  15.4569483  22.4049067  78.5642195  14.3785322  23.3995390  78.1917810
  44.7822237  26.0066462  77.7398443  44.2212725  26.5211248  77.1594334
  44.5211077  25.0992274  77.5828695  55.7034588  21.3075829  87.2073460
  55.7600164  21.5820813  86.2920952  56.4999199  20.7973218  87.3540211
  72.0104731  45.2766060  13.4298057  71.0927404  45.5247025  13.3182448
  72.4805082  45.7989447  12.7798385  60.7715429  91.2926226  24.0389937
  60.6776107  91.7073684  24.8965377  59.8803438  91.2562757  23.6916083
  70.0086082  96.1868720  12.5407809  69.4493068  96.3849263  13.2919139
  69.9727024  96.9763141  12.0006675 105.1037801  66.9190817   1.9047564
 105.9445156  66.7561369   2.3323649 104.5499719  66.1880808   2.1789283
  83.2973875  66.5619414  13.0329627  82.8029646  66.4225678  12.2252768
  83.2908834  65.7092981  13.4679240  86.4694942  76.6949277  14.3155879
  86.1102308  76.0035877  14.8716468  85.7195438  77.2548919  14.1149539
  88.4057440  68.4557300  16.1499995  88.7884439  69.3267183  16.0443896
  87.7546610  68.3938436  15.4510707  60.0158548  23.8891506  87.8944969
  60.6024122  23.1646490  87.6770592  59.2853355  23.4760118  88.3548164
  50.7243527  94.1102295  11.6543216  50.8210696  94.1668205  12.6049346
  49.8707117  93.6970692  11.5245933  84.7918320  91.7986488  92.8779316
  84.4333363  92.6648617  92.6845837  84.0436840  91.2964153  93.2008171
  40.2940559  35.9021258  87.7264309  40.3324127  35.5195475  88.6030102
  41.1270332  35.6590271  87.3223400  49.0730858  52.0840883  90.9447670
  49.6217537  52.8371000  90.7253075  49.2429495  51.4522362  90.2461052
  42.8003263   6.0777360  71.4599705  43.0642271   5.2699775  71.0193825
  43.4877777   6.7063153  71.2396669  86.7523826  83.5919647  24.6537894
  87.7077259  83.5530453  24.6989364  86.5693153  84.3579965  24.1098136
  60.5738391  90.3675728  19.4904632  60.3780140  91.3007121  19.5749492
  61.0651220  90.2991061  18.6718196  47.0178318  74.0490580  80.5469608
  46.0974169  74.1931534  80.7667446  47.3887777  74.9289465  80.4804134
  86.7648328  48.9398031  34.5250720  86.6835273  48.5156213  35.3792972
  87.6291240  48.6771028  34.2084998 102.1117796 101.9520764  27.3511237
 101.1638035 101.8684916  27.4540156 102.4754633 101.2803798  27.9280013
  56.5715970  98.6718755   9.4955081  57.3522474  98.9442115   9.0131778
  56.1222590  98.0689912   8.9031810  50.4525375  57.8811646  82.7304268
  50.9300137  57.6892805  83.5375404  50.8470964  58.6904097  82.4053478
  44.4774818  17.3248565  77.0372152  44.7015476  16.3974023  76.9606972
  44.8810816  17.6016843  77.8598404  35.3384495  46.9316626  91.5167141
  35.5710530  46.3210726  90.8172035  35.3413868  47.7910805  91.0952663
 101.1316503  91.2309031  17.2671908 101.4018310  92.1389918  17.4036235
 101.1546625  91.1142878  16.3173980  64.7098912  98.6067586  21.9564742
  64.6144355  98.3652692  22.8777713  64.7388066  99.5635085  21.9614047
  66.0302843  86.4219646  45.7995337  66.8985356  86.6732030  45.4844970
  65.7070388  85.8041863  45.1437110  83.2906641 100.8361058   4.5246238
  83.0104412 101.1498074   5.3844470  83.8971008 101.5069489   4.2108745
  44.9538357 102.4297290   0.8921546  45.5226321 103.1862168   0.7492274
  44.9563957 102.3040395   1.8410701 101.9073309  93.3588939  24.4095534
 102.4811758  93.0505137  23.7082404 101.6204179  94.2252116  24.1207522
  17.5428939  17.2048402  60.2808380  16.8807328  16.7124498  60.7659388
  17.0397496  17.8067219  59.7323704  74.1088581  26.4399147  91.2930298
  73.2865810  26.8598199  91.0405064  74.1023827  26.4567995  92.2500610
  11.5391648   7.4707335  78.9953852  12.0862949   7.9934025  78.4091282
  10.6640172   7.5162965  78.6103249  86.5284456  79.3324881   1.3687533
  87.4375309  79.6302919   1.3354987  86.1556019  79.7852926   2.1251887
   4.7969330  18.7283331  25.1925487   4.8987043  19.6738105  25.3018397
   4.7328031  18.6021763  24.2458743  49.6245909  33.2834697  88.8326263
  50.1397419  32.5520325  88.4922504  49.5405674  33.1021190  89.7687244
  91.8769134  70.4872279  41.5884608  91.2384666  69.9819331  41.0851783
  92.4753584  70.8404617  40.9301871  90.1976312  74.1103964  41.1002082
  91.0097517  73.8017409  40.6984347  90.1912988  73.7067549  41.9681186
 110.6021131  98.9976506  16.6343516 109.7860969  99.1711812  17.1036452
 110.7612480  99.7942071  16.1279887  18.3929431  19.1284168  90.7360649
  18.0989921  18.7451196  89.9096775  19.3442786  19.0233254  90.7238388
  80.9056295  68.8174849  34.5454616  80.1878418  68.2052879  34.3835086
  81.6315139  68.2644551  34.8343867  11.4119947   5.0643783  24.9449462
  11.3585222   4.1688257  24.6112365  10.6197441   5.1715379  25.4713267
  21.0878515  23.2987928  85.7987976  21.8515134  23.8750482  85.8301544
  20.4546738  23.7079477  86.3886356  43.3593559  27.2557092  68.8537025
  43.5173941  28.0534530  68.3488655  43.8876057  27.3641396  69.6445417
  78.5482658  39.8650413  20.1451510  78.5490907  39.2695396  19.3957442
  77.7369655  40.3646104  20.0532073  19.1327177 101.0699647  79.6459770
  20.0724016 101.2382513  79.5759487  18.7554680 101.4932048  78.8747549
  43.4147024  32.8157449  90.5235386  43.9915371  32.7019763  89.7681904
  43.8511324  33.4769130  91.0607719   3.0239462  85.5682759  21.8031043
   3.4068655  86.0914354  21.0988921   2.1563648  85.9489207  21.9396800
  60.1162804  60.4760956  20.8377665  60.3438677  61.1230652  21.5054912
  59.1750754  60.5894386  20.7053966  42.1959209  61.8315554  86.5699577
  42.5607729  62.7027941  86.7250633  42.9371595  61.3140011  86.2554169
  63.8887848  67.5425427   5.9769458  63.7864507  66.5997319   6.1068267
  63.2682551  67.7571111   5.2804297  64.4902004  56.1807660   3.0787868
  64.9830378  55.3720768   2.9396266  63.5908521  55.8901195   3.2302112
  10.5415857  19.0560823  16.4580649  10.9749592  18.8065582  15.6418818
  11.2508381  19.1121011  17.0984286  56.2436056  19.0611482  84.5539665
  56.2121773  18.4920168  83.7849903  57.0655775  19.5429397  84.4619274
  83.4638656 101.3314252   7.3540610  84.4004883 101.1408286   7.4053878
  83.0612816 100.7227473   7.9734725  88.9296354  88.3249431  38.1091708
  88.1814588  88.2914619  38.7052840  89.0295376  87.4247794  37.7994079
  73.5496855  41.3816404  94.8322105  73.4276104  40.6030321  95.3754425
  73.8577604  41.0416746  93.9921284  43.8218380  87.6627641  26.7392749
  43.8535191  88.5558753  27.0821780  43.0993493  87.6727323  26.1114711
  27.7306736   4.3934732  22.5107306  26.7985046   4.3875890  22.2933501
  27.8836906   3.5477405  22.9321021  71.8416680  91.2933187  24.0447253
  72.6252187  91.1014228  24.5599479  71.2153114  90.6160336  24.3000621
  11.7295146  36.8769574  81.9433403  10.7779384  36.7979932  81.8762684
  11.9667935  37.5024295  81.2587070 103.5986627  70.1105874  20.1735133
 103.3032430  70.6650882  20.8956546 102.7925266  69.8400788  19.7339744
  35.4531741  57.1317673  82.1916008  34.7701049  57.1281052  82.8621483
  36.1439705  56.5746927  82.5503540  85.5243934 106.3371091  12.7429980
  85.4610313 105.9010224  13.5927314  84.8015989 106.9646459  12.7413577
   3.7392889  95.9006881  64.1060162   2.9870163  96.4511036  64.3236494
   4.1087185  96.3004112  63.3186293  23.1280375  42.9772711  74.4795609
  23.2923365  42.2446966  75.0733423  22.9091001  43.7088823  75.0566626
  60.5162191  15.9051502  85.9738541  61.1711550  16.5774763  85.7860470
  60.3528357  15.4871392  85.1283932  47.2492743  54.5282555  89.4890881
  46.8306398  53.9261675  90.1042843  46.5347672  54.8360157  88.9314175
  42.9246521  30.5716252  77.5765181  42.0112181  30.8574700  77.5890875
  42.9301834  29.7646189  78.0912447  80.9096349  66.2046699  16.7952174
  81.6152061  65.6885653  16.4052886  81.3483204  66.9736736  17.1591205
  86.9372429  90.4874210  23.8875979  87.5493158  90.4456954  23.1528396
  87.1826233  91.2836485  24.3588084  27.8823113  52.6850939  81.2442112
  28.1597257  51.9837189  80.6548500  27.2325611  52.2751808  81.8151951
  50.5204643 105.4127173   5.7171649  50.7682539 104.7873025   6.3981074
  51.2735165 105.9991889   5.6451053  99.9220909  76.6285686   5.6025905
  99.8700250  76.1459212   4.7776145  99.2682327  76.2131147   6.1648196
  82.5684465 104.0515285  11.2914676  82.6861156 104.9691062  11.0456294
  82.3300089 104.0805011  12.2180480  43.3147144  30.4614592  92.2909832
  42.5537062  30.7555676  92.7915764  43.5299063  31.2025881  91.7247200
 103.6512531  86.9380503   1.1129779 103.4403528  86.8746476   0.1814574
 103.4449447  87.8437095   1.3441581  68.8663149  22.7222180  94.5709896
  68.6280489  21.7951894  94.5797729  68.7746906  22.9843950  93.6549664
 106.6499522   2.5986009   8.7819690 105.7494690   2.8853422   8.9340991
 106.9189908   3.0640989   7.9900378  76.9817342  90.0176768   8.3953494
  76.8187274  89.4098644   7.6740855  76.1166276  90.3601961   8.6200828
   7.7290410  32.8070927  87.0778751   8.3481038  32.4715304  87.7262497
   8.0915636  33.6534524  86.8161774  18.4267080   8.9922481  17.7306575
  18.9294517   9.4616514  18.3963508  18.2752264   9.6409231  17.0432681
  48.6571264  91.5571976  94.2531490  48.6670065  90.8436871  93.6151600
  49.5035219  91.9900703  94.1414928  39.0167135 106.9537692  14.5494670
  38.8641071 107.8892188  14.4157714  38.2878026 106.6685157  15.1004237
  68.9980019  36.0696011  15.3693217  69.9317254  35.8601384  15.3920192
  68.9320720  36.9177692  15.8080596  57.3156108  98.9790444   1.9648093
  56.9377125  98.1047444   2.0598334  57.8661812  98.9184480   1.1841506
  56.3802099  24.7324610  73.6831522  55.6296158  25.3042650  73.8440275
  56.2569857  23.9999199  74.2868376  76.8069018  80.8148603  28.2079047
  77.0381893  81.7346554  28.0786151  76.0252656  80.8397393  28.7598628
  72.5046123 101.1643844  12.5321692  72.8916587 101.7395978  13.1921405
  72.1695651 100.4191689  13.0307979  33.8365245  25.5844069  90.7222939
  33.4849596  26.1160636  90.0081635  34.7469282  25.4227424  90.4747772
  50.5801630  45.0394344  80.2672291  49.7895145  45.3744984  79.8443365
  50.3196144  44.8868036  81.1755562  66.9608450  41.2023878  86.5610504
  66.7915392  42.1440363  86.5316486  67.5280905  41.0373926  85.8078957
  72.4242687  31.5926480  93.8678169  72.5966215  30.9809256  93.1520462
  71.7530489  31.1604142  94.3958950   3.2837938  76.7073398  35.9362239
   3.9407515  76.6572432  36.6305846   3.6215376  77.3705964  35.3343505
  13.5377013 100.2650308  69.1449022  12.8016506  99.8779141  68.6709833
  14.3095385  99.8235368  68.7905312  60.9437073  93.4474759  28.9640826
  60.2271117  94.0418153  28.7416381  61.1057056  92.9557281  28.1589908
  50.1947403  41.0632038  91.8339252  49.2688847  41.1436176  92.0631886
  50.5937672  40.6396484  92.5939274  18.2825279  21.9424343  88.6237907
  19.2155099  22.0494914  88.4385395  18.2442737  21.7583966  89.5623589
  29.5354223   6.4750725  84.5530128  30.2411127   6.3440317  83.9197159
  28.9899635   7.1596110  84.1655636  56.7927254 104.7365813  53.8253802
  56.1646475 104.0217595  53.9291972  57.0096494 104.7313170  52.8931064
  36.5113115  19.1747725  88.8561440  35.9667873  19.0267932  89.6293354
  35.8878779  19.2369628  88.1324768  22.1268057  85.5168562  12.8330916
  21.9877695  85.5534534  11.8867511  22.9522585  85.9811454  12.9720324
  36.4464474   5.3181458  80.1929188  36.1568785   5.3743631  81.1035347
  36.4699817   6.2266916  79.8925495 108.0601324 107.0819430   9.8452682
 108.6838926 107.8073506   9.8146934 107.2438492 107.4805217  10.1470107
  61.9972337  44.2356412  33.1560534  61.5911926  43.5923855  32.5750274
  61.4604462  44.2152731  33.9483088 109.7308710   0.1398807  11.5040416
 109.6729877   1.0810619  11.3395328 108.8209178  -0.1449627  11.5881938
 110.9780325  78.8628035   4.6342200 110.5739082  78.9602141   5.4964370
 110.5128444  79.4890313   4.0795440  35.4569493 105.6465154  10.8261317
  35.8725570 106.3583999  11.3126773  36.1299114 104.9678903  10.7730025
   7.0204347  37.8017187  52.2263718   7.4234450  38.1274962  51.4215803
   6.8003267  36.8906283  52.0322084  48.8732386  26.1737347  89.6141052
  48.6869049  25.7133722  90.4323769  48.5544395  27.0640492  89.7622204
  22.2544813  73.1300497  76.9854450  22.3177910  72.5223064  76.2486458
  23.1190634  73.5378838  77.0344925  11.5500534   9.5392137  27.7432078
  12.3321808   9.7205692  27.2220439  10.8273876   9.8835331  27.2184009
  72.3395098  97.2303348  13.6416453  72.0416654  97.9941134  14.1357726
  71.5355481  96.7617230  13.4174079  77.2168029  98.7901692  29.5525855
  78.0979265  98.9142280  29.9053782  77.3207225  98.8939195  28.6067218
  49.4053520  97.6702409  31.5121001  50.0669051  98.2154183  31.0862369
  48.8970293  97.3020272  30.7894248  80.6423916 101.0610204   4.7707862
  81.2402786 101.7883830   4.5984286  80.1988758 101.3030391   5.5837745
  30.6451559  62.5474882  88.0359936  30.7539058  62.9314899  87.1659660
  29.7704649  62.8219748  88.3113194  66.9064487 101.6860347  15.5413455
  66.7222847 100.9381728  16.1096972  66.0726465 102.1523004  15.4813212
  43.0162668  56.8983221  88.4277058  42.7269697  57.8105259  88.4482193
  42.5452566  56.5142441  87.6882076  65.5943168  81.0705476  20.9060782
  65.2397169  81.6854577  21.5482444  65.4733385  81.5080337  20.0633449
  48.2928848  55.1942635  86.4299393  48.6867428  54.3814373  86.7468357
  48.4411049  55.8233929  87.1359539  28.7920367 108.0693819  92.6302433
  28.5009657 107.6807625  91.8053246  29.5832335 108.5562595  92.3996162
 103.3817031  18.4546810   8.2328624 103.5667279  17.7465921   7.6159209
 103.9284685  19.1814237   7.9343337  80.5749893   2.8194040  64.8845911
  80.8069706   2.3051746  64.1112995  80.8617687   2.2830805  65.6237459
  45.5840874  39.5817590  78.1371450  44.7155333  39.3604827  78.4731245
  46.1262560  39.6784711  78.9200449  39.2765594  48.2864141  71.4484167
  40.0430250  48.4619999  71.9942427  39.1638947  47.3368692  71.4920521
  69.3682612  90.0487547  23.5686034  69.2357649  89.3240695  22.9574508
  69.0313567  90.8163743  23.1065577  42.1349192  11.8614948  57.1432781
  41.2220097  11.6821897  57.3683929  42.6331043  11.5548134  57.9008961
  93.1204224  13.3278370  93.1648350  92.6086617  13.9873970  93.6331463
  92.8586864  13.4270895  92.2494793  47.4083376  56.4839315  84.3255043
  48.1789303  56.4191914  83.7613869  47.7221537  56.2210703  85.1907539
  43.1887293  41.1027861  92.0906448  42.4335718  40.9968424  91.5120697
  43.4532261  42.0153618  91.9745636  36.7750287  31.8662763  82.9408550
  35.9083438  32.1097755  82.6155853  37.2172379  31.4853096  82.1822071
  48.3848619  44.7201538  89.0156174  48.7676811  45.5580759  88.7556744
  48.9584780  44.4005251  89.7120571  30.6909132  19.0691924  79.0268803
  30.5310321  19.8492718  79.5580530  31.3421059  19.3473256  78.3828115
   4.2212904  22.5712829  18.3997268   4.2037285  23.3778244  18.9149112
   4.3609226  22.8651004  17.4994964  89.8895183  12.4758583  27.6583022
  89.4171967  11.6971594  27.9528731  89.4762339  13.1992441  28.1296081
  26.0216594  18.9261758  75.0392628  26.4998484  18.6376655  74.2618752
  25.1569915  18.5251617  74.9511242  47.8409243  15.0452220  58.9029741
  47.9075193  14.1763568  58.5069084  48.2191944  15.6352544  58.2510519
  93.8711990  92.1534591   2.6279468  94.3082966  92.3891358   3.4462565
  93.7105335  91.2129478   2.7044696  99.4305327  32.0670896  12.4649638
 100.1876285  31.5235429  12.6831359  98.7701895  31.4458566  12.1579570
   7.2229040  20.1384979  34.5723647   6.8842209  19.9262720  33.7026042
   8.1249273  20.4182726  34.4164485  59.6403731  88.0905561   5.2745265
  60.2878798  87.4131803   5.0792712  59.5407952  88.0595427   6.2260360
  54.3679953  56.9416285  85.3469276  55.0330162  56.2587690  85.2592945
  54.8527908  57.7112198  85.6451511   9.2426336  42.5819879  16.5204638
   8.9632881  43.0639368  15.7420558   8.9436329  43.1186109  17.2545451
  76.7010153  98.4532027  16.2531203  75.7530583  98.3215384  16.2697047
  76.9276751  98.6762767  17.1559447  23.6189771  62.0324612  83.5034752
  23.3904672  62.3266697  84.3852043  22.7981853  62.0836449  83.0136681
  63.0645932 109.0852599  19.2283935  62.5643147 108.7590413  18.4803695
  62.4500097 109.6465354  19.7011394  44.5299196  48.3921385  69.1047430
  44.3011427  47.7931976  68.3939981  44.1080999  48.0180883  69.8782969
  91.2321819  93.5829358  22.0428199  90.2929939  93.7549381  22.1104354
  91.4097942  92.9473047  22.7361125 104.1094698  95.2399116  21.7728442
 104.7256292  95.4137855  22.4844283 104.5465244  95.5755715  20.9901923
 102.2878612  63.6220633  21.6688365 103.0063785  63.4721492  22.2832316
 102.2664369  62.8325252  21.1280936  91.0238851  96.4482980  14.3077773
  91.8802417  96.2734179  13.9175147  91.1744894  96.3911061  15.2513236
  44.3738174  49.5985174  87.5741863  44.9638653  49.0908098  88.1312370
  44.9557352  50.1252556  87.0263195 115.4184892  27.9037290  18.8204688
 114.8914435  27.1047502  18.8107318 114.7931340  28.6007696  19.0186805
  64.3120146  76.1374855  90.4399776  63.9539766  75.8962154  91.2942791
  64.1658258  77.0813513  90.3769112 114.3311275  92.4579816  27.8118152
 115.1440967  92.9534821  27.7128333 113.6419262  93.1219082  27.7909869
  97.3030533  52.3704939   2.3915786  96.5333523  52.4449443   2.9557151
  97.5526441  51.4480983   2.4474544  55.4974365  87.8998756  95.0446033
  55.7352018  88.1829262  94.1616631  54.5407629  87.9293537  95.0560856
  46.3078213  38.1153750  94.5745754  46.1973619  38.5481524  93.7279701
  46.4781141  37.1994138  94.3549156  28.6671591  27.0378542  92.4704075
  29.4900870  26.6451788  92.1791553  28.7819242  27.1635532  93.4123516
   0.4630173  26.8653684  27.3930949   0.6487692  26.4187818  28.2191104
   0.9847653  26.3941961  26.7434806  13.6967730 104.3284898  18.4805888
  14.3639921 104.3987708  17.7978629  14.1766333 104.4577651  19.2986602
  37.7455306 109.3828540  10.8434504  37.8167280 109.2301993   9.9011821
  38.0414067 110.2853065  10.9629077  31.1148810  59.8443604  80.9957981
  30.4392743  60.2824354  81.5133667  30.6702280  59.5909262  80.1869202
  66.4508928 107.7704196   2.4689216  66.8149747 108.4857326   1.9473857
  65.6224478 107.5581174   2.0389956  68.3198966 105.4160266   4.8707217
  68.2277526 106.3548331   5.0331420  68.7360729 105.3615050   4.0104598
  17.4937237  25.8003145   1.1221522  16.5683830  25.5871397   1.0015697
  17.4944437  26.7171961   1.3970202   2.7186430  26.8704420  54.9794406
   3.3719766  26.4029985  55.4999083   2.0236528  26.2283617  54.8346824
  19.6422756   7.5381809  10.3713817  20.2009571   7.1914774  11.0670108
  20.1107681   7.3316484   9.5626182  77.9052986  79.6628504  25.2029342
  77.1912898  79.2830019  25.7149238  77.8823246  80.5959015  25.4153460
  44.5846033  51.4288187  81.6238308  43.6827898  51.4060545  81.9439125
  45.1178312  51.5035248  82.4152374  55.0145341  83.5756235   5.3582782
  55.3720618  84.1537218   6.0322303  54.3183578  84.0883737   4.9476069
  48.3387709  77.2805929  84.7702026  48.6207867  76.6946030  84.0678406
  48.2517481  76.7124844  85.5356598   4.0414369  10.5292993   2.0123500
   3.4494055  11.2137085   2.3243064   3.4772861   9.7679191   1.8771953
  78.2742013 103.2013707   2.3765296  78.6556853 103.6170964   1.6033095
  78.6452354 103.6836867   3.1154078  16.1630285   5.0814396  26.0381526
  15.4006422   5.6576782  26.0925216  16.8269718   5.5111318  26.5773982
   3.7128580   7.4318605  10.7856292   4.0272749   7.0764881  11.6169471
   2.8298748   7.7470689  10.9785480  87.4607242 103.0865436  40.5670756
  87.1228231 102.3516850  41.0789794  87.7307810 103.7304406  41.2218303
  90.7861627  87.3926549   8.1924647  90.5592121  86.8331270   7.4497336
  91.1354078  88.1897860   7.7939147   9.9272430  22.3371463   7.5557822
   9.7422493  21.4543968   7.8763408  10.5094135  22.2032552   6.8078631
 100.4163660 104.3652396  25.3877849  99.9824156 104.9531894  24.7695369
 100.7672561 103.6610322  24.8426265  78.0110086 108.5753684   9.0491027
  77.8200711 107.7340798   8.6343783  77.2105230 108.7944417   9.5260352
  93.7742628 100.0175910  21.6525096  93.7753500  99.4597535  22.4303550
  93.1717552 100.7291894  21.8689364  49.4803858  12.0186543  65.5841923
  48.8153744  12.6182628  65.2458668  49.8246717  11.5793645  64.8065519
  83.6770405  91.2979464   9.7630233  83.6140884  92.1232324  10.2438277
  83.9516796  90.6583219  10.4200477  45.7022524  45.8854008  89.7435379
  45.8192587  46.8167543  89.9309349  46.5874100  45.5222321  89.7724152
  34.2749489   4.9142175  30.7461280  34.3779075   5.6042009  30.0907248
  33.9289940   5.3651624  31.5163154   7.5252765  79.7721195  61.0749865
   7.4677145  80.3350449  61.8470192   7.4592948  78.8824129  61.4218330
  48.1377125  17.4520576  89.0620899  48.1796360  17.8434360  88.1895638
  48.5632324  18.0922544  89.6324539  75.6277097  93.7325292  17.6379413
  75.9375013  94.1885023  16.8554133  75.7228388  94.3737607  18.3422202
  88.8703026  87.0929031  29.2930240  89.5718397  87.7390556  29.3740100
  88.1869901  87.5423102  28.7956828   3.7477672  30.9454351   9.8542708
   4.1633928  30.6262880  10.6552905   4.2343986  31.7391020   9.6317786
 100.5622638  63.9780592  12.9485053 101.3684763  64.0444474  13.4602183
 100.0258220  64.7110115  13.2505721  10.6670892   3.6440855  12.5111217
  10.2511204   2.7952581  12.6617640  10.5871570   3.7859541  11.5678805
  36.3498199   2.0656400  23.8704986  35.6058729   2.6599842  23.9681453
  37.0399702   2.4556356  24.4069976  37.6726091  10.0215774  45.6153029
  37.1061743   9.4888740  45.0570792  37.5032795  10.9220939  45.3384704
 111.8318822   8.4285551   4.6584529 111.1426427   8.0437427   5.1998443
 112.5160077   8.6748272   5.2809924 103.2373335   4.2585855  38.1735724
 104.1475942   4.5126682  38.3255595 103.2934716   3.3802849  37.7971858
  84.5399965  81.9438558   9.3414992  84.3388666  81.4912777  10.1606196
  85.1322712  82.6508384   9.5976657  43.3500374  15.0205141  36.5127772
  42.4835956  14.8039632  36.8571872  43.6861408  15.6871610  37.1118182
   7.7548861  89.8710566  27.3844165   8.3030199  90.6432776  27.5239009
   6.8893885  90.1316004  27.6994819  92.7985920  99.5549493   1.0301227
  93.0893577  99.0131860   1.7637271  91.9308771  99.8643784   1.2900371
  53.8544941  83.1001854  67.6605177  54.2490673  82.7172852  68.4440565
  54.5985842  83.4135342  67.1463442   5.8036697  27.2364145  35.6228847
   5.5788601  28.0242258  36.1179084   6.6390884  26.9512468  35.9929961
  86.4073957  96.5957980  11.6691703  86.6710962  96.7279010  12.5797957
  86.8954529  95.8217292  11.3883609  54.0645742  19.8738134  81.1536312
  53.3065557  19.8277628  80.5709457  53.7224960  20.2557826  81.9619083
  13.0574119  37.4582010  28.0943316  13.5519159  37.3087984  27.2884864
  12.4230325  38.1368833  27.8637141  95.1886382   2.7436166  47.1977443
  94.4603934   3.0430370  46.6534633  94.8079696   2.6366478  48.0694503
  61.0659374  97.3915582  27.3510379  61.4014758  96.9869332  28.1509894
  61.5778602  98.1947617  27.2559852  24.6821106  25.4351335  17.1622104
  24.1708505  25.8795934  16.4859694  25.5926359  25.6323057  16.9424361
  41.6837120  61.3447714  90.7266808  41.3037062  61.8456125  91.4484692
  42.3187685  60.7642937  91.1461830  56.8989648  98.5954671  12.5345248
  56.2189640  97.9407649  12.3757953  57.1875621  98.8578277  11.6603965
  89.8020996  94.2912202  66.0150069  90.6084121  93.9760475  65.6066627
  89.6017278  95.1050525  65.5526847  21.2302709 100.4245090  75.8276272
  21.7265058  99.7148418  76.2354946  21.8829918 101.1015987  75.6494951
 110.8420910 103.2622914  22.2420424 111.2582792 103.4299474  21.3965148
 111.1042703 102.3691421  22.4651450 110.8724941  99.0818696  13.3309478
 111.6227306  99.3396955  12.7953071 110.5714716  99.8980813  13.7302131
  63.3131361 102.7133179  92.1788025  64.1726875 103.1338310  92.2027302
  62.9931164 102.8727818  91.2908936  45.9045172  53.0623198  92.9075813
  46.7329884  52.6519728  93.1555462  45.5322599  53.3690548  93.7343597
  21.0819745  77.1065760  93.4055328  20.9481907  78.0435133  93.2624340
  20.6570435  76.9293833  94.2447472  10.4808878  97.5687270  23.2973498
  10.8235716  97.1463351  24.0849990  11.1760019  97.4639754  22.6476783
  72.6156391  90.3258901  11.5280265  72.9024709  90.7150536  12.3541659
  72.2668613  91.0617690  11.0249633  13.9462745   7.1475273   6.4691562
  13.4017599   6.3618761   6.5190715  13.8678158   7.4359470   5.5598277
  98.7717975  74.4896667  11.9811934  98.7453331  75.2938585  12.4996585
  98.6794008  73.7868504  12.6244277 111.6986945  11.8795257   8.2557601
 111.6356351  11.0763746   8.7726706 110.9761073  12.4234491   8.5692042
  94.3514026  76.5154128  35.5855865  94.0180792  75.6883531  35.2375907
  94.7160162  76.9661455  34.8239249  74.3466104  91.8936877  48.3321589
  75.2592815  91.7495542  48.0821818  73.9464415  91.0252218  48.2889956
  95.2580274  80.2178531  18.2515735  95.2203954  80.7094364  17.4311084
  94.3422092  80.1092319  18.5079211 106.7317928  98.6220651  15.2511138
 107.3091186  97.9032044  15.5083484 107.3149837  99.2649798  14.8476523
  60.5070699 109.7694259  10.2378196  59.9349130 109.0774159   9.9061698
  60.2920641 109.8324923  11.1684245  95.9263385  96.4161448  25.6347865
  96.0033811  95.6047873  25.1328010  96.8161358  96.7681317  25.6591434
  17.4869478   8.5885006  33.0236072  18.3971584   8.4449249  32.7644843
  17.0520485   7.7552896  32.8423518 103.2044948 105.7554727  15.3500957
 102.2769512 105.9727483  15.4432696 103.6280597 106.5916543  15.1561278
 105.8555092  91.9410472  14.7938460 106.3947977  91.3053827  14.3233890
 105.7909549  92.6876693  14.1983432  30.1401985  19.5505863  35.6161231
  30.3116977  20.2532249  36.2431163  30.8306158  18.9084726  35.7812137
  82.8529943 106.0274606   3.9843863  83.0500997 106.9480233   3.8113421
  83.6249651 105.5546527   3.6733455  52.2510803  36.7259412  34.2220611
  51.5503395  36.9652849  34.8286170  51.8702209  36.0387998  33.6752433
  88.6813415  66.3170295  21.7133540  87.9484380  66.2382977  22.3240012
  89.3100084  66.8800466  22.1650428  82.0987142  84.9458699   5.5996818
  82.7488865  84.5491486   5.0199241  82.6104559  85.4966812   6.1920947
  46.3100612   8.2492691  30.5016726  46.5313328   7.3765236  30.8266181
  46.6145695   8.2512766  29.5942039   7.4175632   1.9896608  11.0137195
   8.1898725   1.5678840  10.6370563   7.2812736   1.5392643  11.8472690
  68.1950092  31.4327526  94.7390652  68.1752586  31.9808149  95.5235863
  68.8206577  30.7388997  94.9473095  38.2290769  43.7110519  83.3479118
  38.0382323  44.2943335  84.0824795  37.3753834  43.3630657  83.0903339
  79.6493019  85.2177172  47.6211471  79.8281063  84.2931132  47.7925128
  80.4484905  85.5434875  47.2071380  30.1454258  25.3184509  81.7375088
  31.0649490  25.1035953  81.5808392  29.6958685  25.0444078  80.9381104
  51.5551233  30.9120536  77.9474735  50.8567095  31.5646648  77.9980230
  52.3322296  31.3672900  78.2716608 110.4495790   4.4552141   6.9424933
 111.3455965   4.5213228   7.2726649 109.9478581   4.1067892   7.6794547
  27.1726978  13.4340101  23.7237185  26.7974699  12.5537449  23.6998862
  26.4837301  13.9976698  23.3717936  19.2519617  66.7403841  81.9733429
  18.3407211  66.7820501  82.2634029  19.2029393  66.8053675  81.0196114
  51.7685270  57.5583172  85.0106812  51.4403963  56.8106365  85.5102158
  52.7201223  57.4556208  85.0230885  57.4214889 109.7393708   5.7954711
  57.4210132 109.8567586   6.7454452  56.8804480 108.9633040   5.6497592
  57.6977158  33.7846994  90.7196331  57.1981955  33.0732775  90.3188992
  57.3085833  33.8912463  91.5876484 102.9550899  72.4453204   2.9986018
 103.0437149  71.5921097   2.5738543 103.7304558  72.9329376   2.7206344
  72.5212145  78.7973022  91.5497684  72.5469255  77.9307795  91.1439323
  73.1493378  78.7431812  92.2700214 113.1113876  96.0372453  44.3982429
 112.1667207  95.9832768  44.2535895 113.4972299  95.7434134  43.5730094
  84.8754419  97.7824311   0.4997272  84.9489320  96.8290095   0.5423564
  85.7426609  98.0773168   0.2218646 107.1854032  73.2450001  28.9324206
 107.8088630  73.3677821  29.6482867 106.6246189  72.5261049  29.2238730
  17.3225963   7.8485447  38.1096667  17.9833448   8.1660610  38.7251586
  17.7795446   7.8036934  37.2697753  18.0015171  25.7698255  23.7843722
  17.5579775  26.6135889  23.6973495  18.2343328  25.7160955  24.7112769
 108.2055868 108.9508872  12.1868247 108.4752763 109.1158538  11.2833423
 107.2491802 108.9335542  12.1519202 114.0387691 100.2732043  26.1760444
 114.3792022  99.4007068  25.9783477 113.3515752 100.4153447  25.5250472
  51.7771721  40.8841610  79.7194815  50.9496641  40.9664440  79.2454672
  52.1273804  41.7745924  79.7463417  63.4194673  88.4404473  35.8021087
  63.8285531  89.1975574  35.3829879  62.4956168  88.6790256  35.8783549
  51.4460611  64.7368050  77.6228237  51.8467331  65.5251312  77.9892015
  52.1607065  64.1012430  77.5830603  60.7279110  50.8713531  94.0292835
  59.9773884  50.7826614  93.4418488  61.4116383  50.3358030  93.6268711
  27.7742756  23.6439901  33.1899852  28.2320154  22.8040939  33.2258529
  27.3460377  23.6470133  32.3339290  85.4297937  97.5186591  37.9327792
  85.2823986  98.3975987  37.5835437  86.3819135  97.4420791  37.9946822
  40.3389108   9.4556289  46.5742606  39.4382561   9.5270925  46.2581176
  40.8387554  10.0440841  46.0084838  25.6296563  75.8696365  86.7059040
  26.5228295  75.8398390  86.3630009  25.6951809  76.4016771  87.4989223
  52.9817295  35.5101538  71.9884872  52.7958918  34.8756671  72.6806736
  52.9777670  34.9935532  71.1826706  22.1703708  20.3743463  25.9690494
  21.6627586  20.9816747  26.5073031  23.0780542  20.5183702  26.2366218
  46.2327337  86.4972591  92.0780087  46.1243105  87.3773956  91.7176914
  47.1172190  86.4955425  92.4439526 107.8633035  98.3040576  39.4516295
 107.1911873  98.3788876  40.1290435 107.6520599  97.4906115  38.9934558
  97.6669801  78.6932974   3.0052012  97.8505291  77.7540784   3.0253619
  98.4410251  79.0970879   3.3976859  56.3413572  70.9819889  82.8273201
  56.8753147  70.6797361  83.5620022  56.8508387  70.7519007  82.0503235
  42.4150753  28.6065340  79.1040659  41.6018200  28.2271028  79.4370413
  43.0931187  28.2732034  79.6917582 106.2496235  24.9810033  47.3549861
 105.3166892  24.9224954  47.1489734 106.5204551  24.0742593  47.4988765
  62.4257660  69.6388483  87.5705338  63.0847597  69.7463942  86.8846893
  62.2496653  70.5290174  87.8751945  49.5028687  51.4056110  86.2152386
  49.4754362  52.0693302  86.9044018  50.3822851  51.4810991  85.8448792
  95.1184524 107.5695472  14.9662894  95.6709827 108.2605605  15.3315944
  94.4409050 108.0375247  14.4782752  72.8504324  25.3331780  93.5857201
  72.7655172  26.1977649  93.9875984  72.0831442  25.2562428  93.0186367
  44.7094965  55.1145554  85.0702572  44.2633963  55.5305576  84.3325806
  45.6405544  55.1938677  84.8627281  82.3515667  98.8804488   0.3765983
  83.1871713  98.4142737   0.3504867  82.1747030  99.0029769   1.3093108
  98.8451351  94.3471270   1.8075294  99.4442953  95.0494676   1.5546435
  98.1110014  94.7974043   2.2252959  27.1632385  70.4714108  90.1896191
  26.8938732  69.8138094  89.5483398  27.2223663  71.2846899  89.6883011
  37.6482284  31.6616254   5.1263064  36.7888630  31.2784773   5.3021354
  37.4879587  32.3009115   4.4321460  39.4315660  19.5348650  24.2478579
  39.5245636  20.4229217  23.9029807  38.6834944  19.1711145  23.7742537
  99.2516435  96.2130504  12.8307265  98.6852564  96.3746219  13.5852736
  99.4893469  97.0860724  12.5183791   2.8635729  46.2118154  31.3695449
   3.3967197  45.8910375  32.0969314   2.2564829  46.8322473  31.7729491
  26.1198080   0.3046470  38.8359660  26.6319549  -0.2201981  38.2207602
  26.7470014   0.5609041  39.5121306  20.6304264  45.3452921  93.3817673
  21.3960791  45.3057337  92.8086662  20.8229589  46.0590982  93.9897537
  36.0875559  85.7015228  83.5258961  35.9512424  84.8167133  83.1871223
  36.6759253  85.5844021  84.2717743  37.2733057  30.9627634  27.5110930
  37.4489725  30.3408628  28.2172221  36.5887726  30.5448347  26.9886226
  49.1255808  76.8831778  63.3679342  49.4617701  77.3436785  62.5990772
  49.4117403  77.4156046  64.1101360  66.8114042  74.7869492  76.1564922
  66.1149836  74.1320610  76.2049627  67.5714922  74.3578053  76.5493488
 100.0717163  58.3295727  88.2124805 100.7654762  58.4414005  88.8624191
 100.4516792  57.7476549  87.5542831  42.7643871  51.9024992  63.8036871
  43.0319309  52.7865648  64.0548277  42.7157640  51.4229584  64.6306753
  55.0965166  66.4014912  94.4678497  54.4376421  66.7855501  95.0463200
  55.1906061  65.5004597  94.7769165  70.7863998  84.1013718  84.1916656
  71.1043549  83.8078880  85.0454807  71.5635681  84.4468880  83.7524986
  72.3549700  80.8401966  86.0149956  72.5703335  79.9464798  86.2816811
  72.9521084  81.0242367  85.2898788  48.1712723  88.5081005  76.8037128
  48.4884834  88.6205482  75.9076262  47.7757835  89.3511295  77.0253515
  53.5458935   3.0807310   1.1006183  54.2216194   2.4216133   0.9418982
  52.7993572   2.5829464   1.4339465 109.4803097  44.3072324   6.3912505
 110.0339963  44.6684080   5.6989879 109.4492271  43.3683115   6.2076968
  26.0416734   7.4468332   2.9357356  25.9467972   8.3844286   3.1034965
  25.1465976   7.1081930   2.9555530 109.1551174  91.9940381  27.6350516
 110.0501598  91.7950540  27.9098910 108.7588896  91.1381655  27.4715919
  36.5848816   7.0343071  20.1677054  36.7298162   7.4248748  21.0295028
  36.2168300   6.1707597  20.3549403  47.1821487  19.3883663  27.9463309
  46.8581474  19.2020946  27.0651072  48.0115783  19.8447948  27.8050536
  24.3453729  10.6943756  41.6488475  24.6611011   9.8127943  41.8472499
  23.6550272  10.5610185  40.9993381  31.6227758  17.0552259   3.4943885
  31.6943634  16.2057930   3.9297885  31.7710483  17.6947027   4.1910380
  39.9791837  88.6051941  94.7664452  39.3382049  88.8453674  94.0973473
  40.8130264  88.5701466  94.2977142   5.6442713  99.0071683  30.9980887
   5.1728415  99.5336776  30.3525084   5.8417772  98.1891875  30.5418700
   6.9127643   5.1485210   9.5143622   7.6887310   5.1040941   8.9556712
   6.3105142   5.7237487   9.0425128  50.0380325  60.0792313  89.1714859
  50.1597548  59.5503569  89.9599743  49.3779564  59.6058369  88.6650944
  24.2130136  73.3633709  86.2258244  24.8404288  72.6644945  86.0410213
  24.7437334  74.1593122  86.2581539  83.9240516 102.1471076  16.7329997
  83.5326923 101.7709451  15.9446067  83.2048668 102.1830754  17.3636359
  69.1890430  72.2245884  88.2451820  69.0312099  71.9100428  87.3550224
  70.0540209  72.6325607  88.2052040  33.8480902  87.0609379  83.8437653
  34.0548515  87.7928829  84.4249153  34.6231461  86.5003681  83.8795471
  43.7119579  81.5255547  92.0179749  44.3509722  81.3780022  92.7151966
  44.2413330  81.6489315  91.2300873 102.7007354  85.0690680  29.8586291
 102.0102466  85.7319837  29.8582667 102.9070772  84.9376516  28.9332122
  97.4386657  86.1305408   6.5823096  97.7529873  86.1943440   7.4841804
  96.6499914  85.5913143   6.6411227  89.5521069 109.1504288  86.2764168
  88.7224293 109.3531799  86.7085838  90.1124859 109.9021530  86.4690685
  24.3242407  41.2820005  85.3065968  24.5495582  41.7352057  84.4941521
  24.8391867  41.7268753  85.9797573 112.0258429  22.9534059  48.4627742
 112.5535443  23.7517696  48.4432811 112.5478461  22.3336464  48.9723319
  46.4334583  55.9917831  92.3441124  45.5343294  56.2435865  92.1334171
  46.3623333  55.0905561  92.6586914   8.2988823   4.8045450   3.6529559
   7.8129184   5.5375963   4.0307158   8.6380422   5.1435428   2.8245276
 104.4613804 100.5048137  14.6909636 105.3611959 100.4861598  14.3650454
 104.3295778 101.4081435  14.9788016  90.8603668  88.1503487  85.3349400
  91.6570663  88.0894470  84.8078728  91.0563850  88.8215160  85.9886551
  88.3103848  76.0087967  89.6192265  88.5764503  75.7405424  88.7397480
  87.3996830  76.2862349  89.5197678  47.3159015  38.3361345   5.8930606
  47.8610695  38.7638193   6.5534419  46.8206966  37.6780897   6.3808841
  32.5516022  30.5881124  12.9311580  33.5059345  30.6617361  12.9234904
  32.3515117  29.9925142  12.2090453  27.0921076  27.3219782  27.1095294
  26.5760935  27.6649004  26.3799018  26.6218698  26.5356832  27.3867625
  84.0973200  87.6196413  19.2823428  83.3396400  87.1042733  19.5590228
  83.7310613  88.2989674  18.7161273  36.5363669  75.7053328  85.4980469
  36.5934825  75.5862522  86.4460945  35.6437588  76.0172987  85.3491879
  23.0565918  11.5874296   6.3548392  22.4741066  11.3428932   7.0739669
  22.8261459  10.9875827   5.6453914  84.2181301  77.8708506  58.7654161
  84.3842983  78.2404852  57.8982449  83.9894772  76.9568586  58.5963869
   3.5421156 103.7050824  23.6031264   3.2153009 103.0415969  24.2107600
   2.8951143 103.7235026  22.8979510  33.7608040   9.6992212  28.3109969
  32.9806078   9.5734459  27.7709025  33.5307873  10.4174286  28.9004916
  40.4824436  33.5595899   4.4551105  40.6234825  34.4499498   4.7769946
  40.7354725  33.5954958   3.5326594  25.4256332  28.1843858   6.5908450
  24.7980726  28.8689809   6.8226165  26.2545002  28.6487585   6.4743442
   9.3765915  19.8919349   4.7298736   8.5054338  20.0526052   5.0925178
   9.3597114  18.9723974   4.4645423  34.2778039  67.8425360  77.1562767
  35.1004052  67.9972601  76.6919327  34.5397735  67.4149370  77.9716110
  50.6814384 101.3331032  72.9794168  51.5193176 100.9662437  72.6972532
  50.9111023 102.1665859  73.3902597   1.0132349  37.0457559  17.8518695
   1.1361158  37.6749998  18.5626430   0.5796755  37.5465780  17.1609038
  51.2326813  88.4811115  73.0853558  50.3152752  88.3848381  73.3409643
  51.7233610  88.3331680  73.8937950  75.5721188  66.5591955  94.4421387
  75.2120733  66.7615747  93.5786343  76.4942551  66.8086624  94.3816185
  23.7516248  20.0396591  12.4192542  23.9953125  19.1607338  12.1288318
  22.8622997  20.1635175  12.0876044  44.5899248  63.4688044  78.4313631
  43.7220764  63.7377787  78.1301689  45.1173973  64.2662001  78.3848047
  31.9717586   7.1853977  14.7434443  32.3760116   7.4572139  13.9194697
  31.0481918   7.0580488  14.5265502  86.5028286  64.3477535  94.2349148
  86.1054325  63.8643217  94.9592113  86.2348175  63.8680410  93.4511566
  63.0698574  23.1400781  17.3589725  63.4902084  23.8594299  16.8877238
  62.9183185  23.4860950  18.2384795  64.2199981  45.3285986  20.0104732
  63.8786018  46.0496431  19.4815272  63.8351333  44.5431619  19.6216220
   4.8383892  21.0094314  20.4662246   5.7576311  21.2183433  20.6322879
   4.6650779  21.3669019  19.5953578  33.1560123  16.3301330   1.1876601
  32.8045404  16.7969280   0.4294986  32.4028337  16.2119156   1.7664260
  54.6053505  75.7136393  78.3365107  55.1518822  74.9280357  78.3176661
  53.9899921  75.5601788  79.0534592  29.6239460  24.9973112  26.9172305
  29.6728122  24.0501552  27.0466155  29.0227258  25.3012376  27.5972289
  29.9374056  51.2829304  71.9860077  30.0644255  50.6493425  72.6921701
  28.9872980  51.3439035  71.8869591   7.5247705  20.4490095  28.0591792
   6.6176594  20.7080084  28.2213706   7.6191700  20.4903656  27.1075458
  58.1608856  45.9303575  10.5874652  58.4985721  46.5693765   9.9598903
  57.2197044  46.1015516  10.6206531  19.4808424   1.6050630  29.5313472
  18.8323820   0.9484964  29.2770881  19.3916786   1.6742187  30.4818648
  46.1151266  63.0351877  94.5522022  45.6139231  63.5679388  93.9347935
  46.8980598  62.7774429  94.0655708  61.3678921  35.5569654   7.2378558
  61.5890205  34.6822839   6.9180507  60.7678879  35.4007536   7.9671210
   6.6206348  19.7245556   5.3485793   7.0696056  19.4917112   6.1612624
   5.9494484  19.0501552   5.2440566  58.8419713 107.9283147   8.7819976
  58.3793391 107.1205382   9.0049380  59.6558465 107.6332860   8.3735866
 115.7034397  75.3580904  83.9691830 115.2968693  76.1222315  83.5605049
 115.4238796  74.6198177  83.4278584  49.5005274  65.1631689  67.0015335
  49.7676611  65.4529428  67.8738356  49.0294170  65.9112120  66.6344929
  29.7613466  15.6439644   6.4970702  30.0632608  16.3897949   7.0155543
  28.8454426  15.8426338   6.3024444  30.8992088  14.2050224   2.9405326
  30.5049408  14.7975736   2.3004741  30.7605350  13.3312231   2.5751895
  55.8785152  80.0583363  87.4792480  55.7916832  79.5174456  86.6943073
  55.8460236  79.4346905  88.2046700  18.3193754   2.8321219  82.2042084
  19.0595697   2.2901679  81.9310284  17.5465941   2.3322631  81.9411945
  27.7846420  32.7526861   6.5814322  28.3238590  32.3148065   5.9228343
  28.3945787  33.3223062   7.0501918  82.7757263  58.4656763  67.0092058
  83.3307076  58.7366676  67.7405024  83.3307934  57.8836918  66.4901352
  73.1120253 100.7164192  79.4510460  72.4316740 101.2477112  79.8646641
  73.8880587 100.8561993  79.9936962   2.8972805  11.4832693  41.3992900
   3.6194408  11.5527063  40.7748813   2.6813257  10.5508476  41.4130038
  52.2057915  47.5811195  88.8578796  52.4739933  48.1095600  88.1061840
  52.0934677  48.2136583  89.5674706  42.9786348  70.0193787  92.1814728
  42.1452999  69.8428297  91.7448807  43.5983229  70.1621389  91.4660454
   4.0182531   0.4436689  48.1417769   3.6298263   1.3124281  48.2448215
   4.5848835   0.5241161  47.3745173  53.1104279  80.2807236  89.1955376
  52.3343611  80.2211952  88.6383915  53.5756588  81.0539818  88.8763809
  41.2025785  75.7768393  91.9859982  41.1426067  76.0494137  92.9016113
  41.6135550  74.9130154  92.0196915  41.9395721   1.5196520  23.0630225
  41.9175804   0.5641800  23.1161326  42.6964939   1.7113977  22.5093574
  28.1700552   8.1109338  16.1275023  28.2523859   8.9877992  16.5024108
  27.6797617   7.6151329  16.7832583 115.5298116   6.9079357   5.3328151
 115.0865152   6.3048320   4.7361678 116.2542393   6.3975721   5.6947154
   3.4583925 107.5911097   4.8778647   3.8765215 108.3166604   4.4142074
   3.9280199 107.5363498   5.7101459  84.9105835  60.5415583  93.6680317
  85.2808762  60.9539938  92.8876400  85.4324722  60.8872509  94.3921566
  94.2555011 102.2026782   8.2451838  94.6565927 101.4116483   7.8851432
  94.2011942 102.8032975   7.5018519  40.2611399  72.6496458  86.7391777
  40.0357389  72.2676802  87.5874233  40.1231241  71.9394541  86.1124325
  36.6029156  17.0574241  38.4638423  37.3584211  17.4075609  38.9359111
  36.9444883  16.8323999  37.5984401  85.8531202  98.0556731   8.5439605
  85.6481041  97.3249679   7.9606360  86.7996181  97.9991965   8.6750716
  20.4057396  20.2435833   0.7775706  20.8389080  19.4034439   0.6266898
  20.9944189  20.8899742   0.3878707  33.9568365  20.6024604  22.7848929
  33.2780063  19.9644571  23.0048293  33.8824022  21.2745434  23.4623927
  84.8876442 109.4816451  17.4806804  85.0905050 108.5814385  17.7350444
  84.4030346 109.8375659  18.2254619  89.6103573  85.1298141  94.0042114
  88.8148975  85.4879665  94.3981838  90.1839256  85.8877659  93.8913155
  13.2620943  24.8340088  15.9908599  12.6031769  25.3836351  15.5666274
  12.8151596  24.4714409  16.7557258  17.6903761  45.1747518   0.4340667
  17.8295887  45.1583677  -0.5128175  17.3788059  44.2947488   0.6456107
  99.7082903   3.3491760   9.2787570  98.8074639   3.5335642   9.5447368
 100.2378633   3.9683633   9.7811431  52.2054851  25.6174761   6.0320300
  53.0983818  25.4552751   6.3364047  51.7608440  24.7760635   6.1347884
  88.6126770  96.7223935   7.9775352  88.0612148  96.0336118   8.3486194
  89.4729770  96.3141255   7.8804034  28.1877923 106.7782879  64.6303511
  29.0892577 106.5060806  64.8020935  28.1240940 107.6523972  65.0152111
  41.8069172  78.4518194  67.7651644  42.6522970  78.2580280  68.1701469
  41.3411617  78.9717770  68.4201050  41.9465685  38.8680434  87.3699379
  41.0505724  38.9415288  87.6985931  42.2755766  39.7669220  87.3683453
  23.7299526  28.7263399   2.5186748  24.3195236  27.9940992   2.3385161
  22.8544700  28.3399873   2.4964637   7.3320841  89.1086750  17.7998656
   7.3757624  88.7760119  16.9033927   8.2317041  89.3633490  18.0049342
  13.8204134  87.0514584  81.5128994  14.4535947  87.2998905  82.1863937
  14.3182445  87.0752430  80.6956863  28.5884607  11.0165268  31.8294066
  29.3273723  11.4853197  32.2173137  28.4407270  10.2748209  32.4161643
  39.7502792  46.5519148  24.1454143  40.6085718  46.7119222  24.5378036
  39.9445522  46.2655931  23.2529372  36.2395704   8.7493711   3.3560199
  36.7144764   8.7429815   2.5249595  36.5692795   9.5223241   3.8143462
  30.7127369  23.0983930  14.2214126  30.9906423  22.8260189  15.0959510
  30.1318014  22.3975139  13.9255828 107.6945782  56.0521746  74.4063282
 107.2927380  56.8847847  74.1583109 107.1401501  55.3874922  73.9976311
 103.8480747  11.5132957  44.2307586 103.5233867  10.6373935  44.0219230
 103.0779445  11.9848114  44.5482558  82.8486694  96.2608962   8.4269351
  83.7470592  96.1966758   8.1028956  82.9029573  95.9804826   9.3405360
  29.3318892  50.4434919  84.8032188  28.6573529  50.5107641  84.1274166
  29.4020319  51.3287067  85.1605701  43.0285025  56.2060642  74.3725395
  42.5330210  56.4979887  73.6073542  42.3925018  55.7221460  74.8993731
  84.9713434 102.5778060   3.3779353  85.2315677 103.4863524   3.2261008
  85.7968582 102.0943313   3.4097022  40.3601206  14.5350605  12.5710696
  40.9010780  14.0669685  11.9350833  39.6107662  13.9581114  12.7188128
  31.0035742  17.8971439   8.1239337  31.8292034  17.9510503   8.6052531
  30.3309953  17.8692251   8.8044375  43.9393127   3.0685144  21.4958877
  44.5096863   2.8192716  20.7687205  44.5380581   3.2336145  22.2242183
 100.2684200  27.9937559   3.8549537 100.0794971  28.4595209   4.6695727
 100.2256191  27.0676428   4.0931052  20.2088249  18.4736019   7.1220988
  20.6312216  18.2709413   7.9568118  20.3794515  19.4057947   6.9874305
  37.3304832  22.7117067  16.0596961  38.2392109  22.4266439  15.9638518
  37.0986164  22.4748855  16.9576854  30.7707882  52.9379606  89.5565701
  31.0483456  52.4207306  90.3126621  30.5954909  52.2898436  88.8743401
  21.7188478  70.2956104  76.2044573  21.0405874  69.6439028  76.0270691
  21.5931296  70.5278063  77.1245193  73.9980758 108.1961637  42.5216121
  74.1765298 108.8433366  43.2039279  74.4505943 108.5326104  41.7481345
  51.5836143  89.3994427  85.6579494  50.8134794  89.0133095  85.2407837
  52.2403574  88.7033272  85.6394196  25.5911052  13.9996820   0.9425277
  25.7396925  13.3029037   0.3032702  24.6743047  13.8984733   1.1983890
  22.7875566  66.2140179  90.1656055  22.8186464  66.9841003  90.7332611
  22.2864103  66.4996243  89.4017220  48.0291510  70.0380611  75.5085468
  48.8184786  70.5531359  75.6755590  48.1196976  69.2709208  76.0738134
  26.6150641  67.7859306  70.5545807  26.9578481  67.4094009  71.3651085
  26.8155646  68.7195635  70.6206512  10.3875053  16.3543420   6.2746829
  11.3411892  16.4359861   6.2673015  10.0990236  16.8465334   5.5060691
  11.5545309  32.7356249  30.8965415  11.0334528  32.7739912  30.0945205
  12.3154962  33.2869631  30.7143611  84.8740162 104.9829345  14.7648734
  84.3216432 104.3741755  15.2553100  85.7035173 104.9916320  15.2424640
 105.9198345 108.8477950   9.6385688 105.5443014 109.7163587   9.7827929
 105.4342045 108.4979014   8.8915938  53.1474638  73.4871578  84.7543812
  53.7374163  74.0985632  84.3135071  53.2554293  72.6642036  84.2775917
  19.1987407  14.3133312   4.6666068  19.4133795  15.2442508   4.7261828
  20.0347698  13.8862568   4.4797915  83.4468365  69.1007948  63.7929916
  82.9286861  68.4414387  64.2545080  82.8082085  69.7597694  63.5206985
  97.0162977  93.3016877  42.6150435  96.4399685  93.6122303  41.9167251
  96.7283643  93.7789350  43.3932132  47.0539367   2.4428564   3.6040324
  46.5058887   1.9225221   4.1915053  47.8407753   2.6319318   4.1152686
  33.6665428  21.7463499   5.2766150  33.7469805  20.8455854   4.9629516
  32.7426899  21.9624525   5.1500148  84.7805882  94.7001266  80.3906441
  84.1868019  95.0494766  79.7261143  85.4653645  95.3638935  80.4727077
  41.7992866  50.3082472  19.0897578  40.8750665  50.2800661  19.3372745
  41.9153488  51.1726289  18.6952991  45.6755531  48.5819441  43.5336036
  45.8935821  48.1655603  44.3674678  44.7755230  48.8875681  43.6466140
  65.3190364   5.2871085  50.6762505  64.9556531   5.1371432  49.8035002
  65.6093992   4.4224692  50.9666204  66.5649843  71.1422348  84.4785690
  67.1571445  70.4682159  84.1449928  65.8742666  71.2021637  83.8186073
  53.8296306  62.8260141   5.0409812  53.8974369  62.1346384   5.6994933
  54.4236267  62.5507646   4.3426818  13.8852762   6.8409682  93.2266045
  14.0726732   6.9399119  94.1600513  13.2427382   7.5248004  93.0375099
  44.0103042  23.1139808   8.6956328  44.1750324  23.9659219   8.2915324
  44.4520557  22.4875360   8.1223601  45.7628965  76.2839556  82.4321461
  45.5577374  76.0596275  83.3397961  46.7041349  76.1284733  82.3538876
  94.1855049  96.7414093  70.4719925  94.2843819  95.8498383  70.8059978
  94.7262001  97.2762585  71.0532188  26.6285742  43.9814001  21.5433234
  27.4091518  43.6537748  21.9900817  26.2596500  44.6258264  22.1473426
  99.0921879  78.5518074  79.7066975  98.9609337  77.6051521  79.6533346
  98.3325195  78.8718891  80.1931953  72.0320845  65.9305477  82.1240330
  72.9271317  66.1636782  82.3705482  71.4833832  66.3591862  82.7808571
 111.2777532 104.8892693  15.3388328 111.2923301 105.8381944  15.4635734
 111.0261739 104.5391850  16.1934585  39.6077097  10.2385288  12.8340453
  39.4522035  10.0170999  13.7522048  38.9048422  10.8494192  12.6126307
  19.8169792  33.2584768  16.0258979  19.4772375  34.1477304  15.9256572
  19.1695202  32.7041917  15.5902499  32.6821888  15.9208637  20.9134120
  32.6585329  16.8422847  21.1715907  32.8792465  15.4501920  21.7232627
  16.3984287   1.4314609  12.4567718  16.8034494   2.0895820  11.8919200
  16.0864914   1.9257026  13.2148284  90.5600357  92.6424694  81.1066246
  91.4619160  92.9450893  81.2127781  90.6390953  91.6992283  80.9642410
 100.6381061  65.8312040   8.2204169 100.0052884  65.2797323   8.6804790
 101.1074045  66.2897974   8.9173240  68.0947399  87.3158169  67.7786827
  67.4591541  88.0294323  67.8336716  68.9046860  87.6891518  68.1263113
 104.1632080  79.3114376  57.4440908 104.0780354  78.7499619  58.2146263
 104.1429520  78.7058830  56.7030621  35.7910585 107.2926807  90.4935837
  35.0752282 107.4602413  89.8806095  36.1556292 108.1582069  90.6784630
  36.5023363   0.5022960  14.1764754  36.3165367   1.2992483  13.6799067
  36.7615640  -0.1378722  13.5137481   5.5486334  33.3497053   4.1493148
   5.3728283  32.4532514   4.4351596   4.8213756  33.5614591   3.5640925
 102.4821091  89.1129398  85.1532555 103.2008362  89.3457794  85.7410049
 102.9110050  88.8896275  84.3271732  16.8756473   3.2384496   1.2940806
  16.6701925   4.0158373   0.7747668  17.7834499   3.3671003   1.5689868
  29.0323818  38.8835626  16.6511363  29.8201454  38.8578993  16.1079997
  28.6343611  39.7319036  16.4558619  46.8604374  85.2058697  82.9968071
  45.9315538  84.9748802  82.9899311  47.3111200  84.3807030  83.1762981
  45.8940983  73.0358315  77.8772926  45.1492739  73.6256218  77.9940033
  46.3600492  73.0702305  78.7127209  39.4915712  38.0284696  28.6714953
  39.0828264  37.1673494  28.5841769  38.8241136  38.6425596  28.3654994
  96.8407154 104.9532890  77.3710775  97.4017429 105.0362682  78.1421852
  97.1345425 104.1471672  76.9467402  38.0223656  46.9361401  87.2252941
  38.7034607  47.2578621  87.8159142  37.3395801  47.6061106  87.2595596
  15.1230276  21.0965591  11.0655326  15.6675232  20.4450136  10.6236762
  14.9062145  21.7307192  10.3821105  92.8792191  83.2965565  93.4682465
  92.6789474  83.7342358  92.6408672  92.8013897  83.9852238  94.1284847
  51.2693966   0.9950357  14.7696322  52.1179188   0.9564357  14.3283195
  50.6282509   0.9155803  14.0633315  80.9069538  80.6472397  88.1586838
  81.0061455  80.6287384  87.2068214  80.8544064  79.7256613  88.4119797
  65.4243422  87.8927612  81.3453960  64.9556637  88.1176853  82.1491241
  65.6597424  86.9714832  81.4552402 102.7587488  20.5721193   4.5690936
 101.9364931  20.0839334   4.6115321 103.0364039  20.4947334   3.6563224
  19.6305406  16.9882351  23.1426543  20.5211151  16.6461044  23.0648726
  19.6844995  17.6398664  23.8417262  42.2091663  33.0395322   6.8051261
  41.7265880  33.1274419   5.9831637  43.0038917  33.5563665   6.6727370
  42.9049385  27.9561716   6.6832179  42.5471580  28.8264661   6.8587703
  42.3733127  27.6197153   5.9618300   8.4048784  16.0187059  31.7494792
   8.1094635  15.5380397  32.5227374   7.7642429  16.7222791  31.6455955
  38.2390297  21.8279129  33.1907004  39.0053070  21.6620928  32.6415557
  37.7354419  21.0148626  33.1509894  89.2066860  86.0438347  10.9019721
  89.3084240  86.9931698  10.9701526  89.2755604  85.7301903  11.8037033
  32.4982059  69.2862993   5.0140494  32.2004164  68.4186941   4.7405452
  33.4230364  69.1652971   5.2291697  51.8612087  65.3345400  21.0137671
  51.6492737  65.9809976  21.6871280  52.8159416  65.2696233  21.0361117
  54.2045403  76.9443083  83.4285545  55.1161718  77.0062637  83.7137318
  54.0144014  77.8010368  83.0463314  30.8951128  38.7798601   4.8386115
  30.1858938  38.4288221   5.3771419  31.6844070  38.6414724   5.3621596
  44.7622776 107.0935917  79.6761894  45.6248569 107.4732780  79.8436069
  44.1825819 107.8491879  79.5799398  53.1491459  48.3040624  14.4113177
  53.2842529  48.8388162  13.6289996  52.7881992  48.9113813  15.0571650
  30.8853805  36.0238271  38.4386462  31.2519110  35.9634309  37.5564593
  30.1357019  35.4287725  38.4277839  61.6370821  80.0667572  74.3496704
  61.8049240  80.5749130  75.1432943  60.7995367  80.3981590  74.0257359
  64.8650646  81.4849949  68.2492733  64.2399454  81.9378185  68.8153172
  65.5627441  82.1239376  68.1036043  51.0574806   9.1227298  41.0475558
  51.6966903   8.5002332  41.3941688  51.5869224   9.8028713  40.6312388
  49.1880501  38.8807684   3.8827914  48.8949955  39.7755247   4.0553206
  48.5620487  38.3290678   4.3517989  42.4581039  30.8341413  27.1988410
  41.9232834  31.5254980  27.5890082  42.0958698  30.7180219  26.3204688
  30.3637064   8.6315494   1.3444442  30.3643501   8.8574653   0.4142875
  31.0215605   9.2090707   1.7316455  53.6983669  68.4956461  20.2506751
  54.3119896  69.2302900  20.2540988  54.1404426  67.8119760  20.7540530
  39.4847667  34.4083982  12.2916526  40.0244653  33.7467771  12.7243251
  39.6576917  35.2142721  12.7783793 115.9268978  42.2664266  25.1055545
 115.8897021  43.0510908  25.6524962 115.1942088  42.3635011  24.4972915
  46.4168251  79.9148660   4.4078368  46.8752373  80.7447534   4.5397109
  47.0880115  79.2461878   4.5442504  85.2739811 104.1523552  81.9696045
  84.5460796 104.7319031  82.1943474  84.8684311 103.4378910  81.4783859
  11.4415049  95.4910235   2.8022975  10.5211710  95.4438214   3.0611247
  11.4969515  96.2755780   2.2567481  60.6020355  88.2160473  74.9343204
  60.7479906  87.2708702  74.9738598  61.3198233  88.5908031  75.4447889
  35.4762447  14.0855652  12.5612849  34.8580301  14.6673637  12.1190757
  35.3538502  14.2693668  13.4926623  64.7783458  11.6863590  20.9097499
  65.0755871  10.8377414  20.5815238  63.8930786  11.5209919  21.2340850
  67.4240864   4.1768842  15.5757064  67.1267689   4.9410396  16.0695571
  68.2885921   4.4249635  15.2480906  66.7872047  99.8792267  34.0930820
  66.0322666 100.2687359  33.6519623  67.2031975  99.3374634  33.4225011
  38.6812723  29.0171438   9.6846312  38.9260233  29.1413313   8.7676257
  38.8192117  29.8743826  10.0875491  51.7173279  25.7873922  18.3904094
  51.5590084  24.9344497  17.9858512  51.5364635  25.6487947  19.3200892
  66.0471916  78.1407022  81.9857693  66.4941502  78.0401754  82.8262138
  65.3009558  77.5435543  82.0384121  84.1361237  70.5919695  73.3467197
  84.4673634  71.4814758  73.2231140  84.4974995  70.3167391  74.1892719
  50.1324642  58.9946657   5.3683299  50.1538646  58.2906156   4.7201938
  50.9935653  58.9627557   5.7851428  20.6127142 101.8878179   4.7771758
  20.4585909 100.9777217   5.0305575  20.2811121 101.9464259   3.8811606
 113.4817674  16.2193256   0.8290404 114.2080929  15.6083589   0.7049293
 113.5809877  16.5296989   1.7290706  37.2938192  22.2075897   1.4269847
  36.6747415  22.9301744   1.5311069  37.3449838  21.8089586   2.2957248
  87.0437431  96.1600399  62.3280191  87.3172283  96.1586189  61.4107227
  86.1878490  95.7314873  62.3234415  46.0540819  69.3375683  93.3397865
  45.2333641  69.2692184  92.8519630  46.1927748  68.4613085  93.6991882
  46.7451084  21.8416410  12.1385974  47.1370590  21.8267732  11.2654513
  46.2344539  22.6510149  12.1581477  32.2032202  47.5789171   0.0581092
  32.6660908  47.9633814   0.8025378  31.3367784  47.9852110   0.0790519
  66.2414634  56.5440565   5.2506846  65.4895103  56.2997919   4.7111148
  66.3892162  55.7841497   5.8136672  25.2126241  90.2678394  85.4633999
  25.6779027  89.9012375  84.7115040  25.8365965  90.8776760  85.8570862
  94.7199726  65.7290745  63.9119577  94.6751213  64.8515034  64.2915535
  94.8529911  65.5786896  62.9760504  99.6470573  23.0095440  13.2442302
  99.4025710  23.6116510  13.9470309  98.8423517  22.5290876  13.0496997
  70.0510204  37.3882013  29.2721862  69.7290886  37.7433210  28.4436435
  70.2960861  38.1590276  29.7840518  70.9754705 107.9086876  72.3224640
  71.7725229 108.3231831  71.9921064  70.4671574 107.7069283  71.5368795
  79.3078041  65.4879045  83.0916977  79.4852448  65.9289408  82.2608948
  78.3532429  65.4303217  83.1332111  97.9270471  94.0467958  34.4851512
  97.8372968  93.4974842  35.2638930  98.6199583  94.6681218  34.7088832
  58.7211311  30.8249765   8.9780539  58.3182323  30.8000951   8.1101436
  59.1107071  29.9573618   9.0862388  36.0708750  30.6446748  45.3757209
  36.0142887  30.7416254  44.4251269  35.9104097  31.5247541  45.7162112
  25.9404362   2.6628595  46.1028880  25.1816309   2.3661571  46.6052932
  25.6118000   3.3967500  45.5836219  36.7963159  36.6483694  12.1393508
  37.2744644  36.1131769  11.5059680  37.1613395  36.3983255  12.9881495
  75.9792662  93.4500790  71.0501146  76.2460613  94.0318012  71.7619133
  76.7840862  93.2898045  70.5573606  56.2902641  70.8874941  71.1822653
  55.6978130  70.1576424  71.3626909  57.0876074  70.4729080  70.8527279
  82.0612621  95.2054310  91.9206715  82.9161358  95.6265068  92.0107365
  82.2262573  94.4453335  91.3627625  10.5333195  60.7969856  60.4213572
  10.9788189  60.4992962  59.6281719  11.0328732  60.4055119  61.1378956
  49.2208719  78.5438251  65.5666876  49.5335817  78.2676411  66.4281750
  49.6632671  79.3775511  65.4072666  35.1789117  67.2022200  66.6389751
  34.9652815  66.5729332  67.3278761  34.9874830  68.0561256  67.0268297
  31.2905681  40.1926332  30.1049155  31.8542373  40.3600317  29.3496055
  31.8310917  40.4185491  30.8619040  59.6389389  94.6793556  83.6296177
  58.9005375  94.9281025  84.1856098  60.0660372  95.5083179  83.4136295
  19.5430458  47.2922617  18.8111133  20.4337299  47.1170526  19.1147918
  19.6596182  47.7645403  17.9867381  39.4122696  71.5004206  88.9702511
  38.5939121  71.0528612  89.1852188  39.7676206  71.7697525  89.8172569
  42.7380753  87.9779625  93.5091782  43.1210423  88.1541061  94.3685532
  42.8817320  87.0418549  93.3702469  21.7227230 104.7253609  81.7717171
  21.8095169 104.4713497  82.6905060  22.3086319 104.1313267  81.3026047
  72.0059776 103.1900883  72.9914045  72.4438095 104.0105820  73.2179737
  72.6994371 102.5311756  73.0256319  89.4113697  97.9401116  11.7684955
  89.5733513  97.3442750  12.4999160  89.4140972  98.8116031  12.1643847
  77.7696670 110.0474410   6.6126651  78.1786455 109.3625741   6.0835856
  77.6805247 109.6572452   7.4821681  94.4122472  37.1508890  38.9288730
  95.0520577  37.6517969  38.4229392  93.5890987  37.6247984  38.8102454
   1.5393865  39.9801164  22.8559512   1.1126054  39.1751486  23.1494063
   2.4754036  39.8021227  22.9477424  13.2853210  25.7682901  10.7062358
  13.7350214  24.9802404  10.4013175  13.6750877  26.4787584  10.1967830
 105.7226944  56.5472507  90.6159210 106.2983513  56.8795824  91.3046932
 105.0716114  57.2382069  90.4938412  41.3918197  32.8024774   9.5795840
  42.0856560  32.1465307   9.6470660  41.4130485  33.0802351   8.6638183
  47.4380589  63.5780287  76.3104916  47.4951363  64.1248083  77.0940781
  48.3427715  63.4969997  76.0085583  28.9708304   4.0126849  91.3464260
  29.9176001   3.9458705  91.2223721  28.6205267   3.2145072  90.9509182
  37.0165622  56.2009531  19.5581931  37.0827377  55.2587038  19.4032115
  37.3380649  56.3198381  20.4519195  39.0184391  29.0293699   3.4105414
  39.7767532  29.5664983   3.6400527  38.9418352  28.4031110   4.1303748
 109.5011676   7.8533221  91.0419273 110.2812828   7.9450942  91.5889454
 109.5112909   8.6271144  90.4785728  71.9026172  14.0575891  44.4084758
  72.2105873  14.1128355  45.3130931  71.2555111  13.3523374  44.4184226
  78.6659111  19.1381312  93.7093830  78.7097181  19.9687339  93.2356644
  79.4226946  18.6431742  93.3954811  45.8493412  65.6927114   3.4806365
  46.0080612  65.4277521   2.5746268  44.9285686  65.9537988   3.4960193
  69.9812807  17.5022174  92.2565460  70.7097353  17.8664923  92.7594185
  70.3970326  17.0765544  91.5067482  41.4556015  45.3420168  43.7085933
  40.7712734  45.2905565  44.3758792  42.2008980  45.7383447  44.1599006
  26.7455280  42.5956922  35.1526565  26.6333044  42.3578172  36.0730094
  26.9238556  41.7655473  34.7107429  40.0962913  15.4627948  20.1275081
  39.5733631  14.7928863  19.6870440  40.7137239  15.7619243  19.4600314
 112.6214040   7.0800353  71.2224627 112.2016920   7.9402781  71.2146521
 112.8953327   6.9554282  72.1311235  84.9646568  95.9638119  77.2561216
  84.3046951  95.2746010  77.3314285  84.5701122  96.6103077  76.6707897
  59.7372150  68.5778666  93.3345509  59.9114084  67.9220390  94.0096664
  59.4983816  69.3660927  93.8222885 108.7991142  76.0914040  82.1728230
 109.4046211  75.4772234  82.5880146 108.4773350  76.6340733  82.8926849
  65.1150692  27.1358782  24.0104407  65.9033096  26.6297060  24.2071361
  64.6567524  27.2006708  24.8482818  33.5651529  32.4815088  18.2412642
  32.6618850  32.2035604  18.3932132  33.5380161  33.4353929  18.3159846
  51.0944832  67.4456697   4.7799033  51.1150062  66.5573602   4.4239444
  51.5993297  67.3902994   5.5912608  17.2576320  17.0999962   7.3467654
  17.6264656  16.7644268   8.1638259  17.2803867  16.3527399   6.7490024
  49.9458874  47.4385172   5.8617801  50.7209003  46.9296461   6.0997886
  50.2663505  48.3362299   5.7743758  65.4959297  94.2389393  82.5489044
  66.1333466  93.6479855  82.1480179  64.8014259  94.3211365  81.8953419
 102.2341026 108.0142884  24.3354720 102.7320207 107.2239881  24.5445937
 101.7506183 107.7894216  23.5405463 114.8178151  50.7777982  22.2169513
 115.1692130  50.4494863  23.0445785 114.0046313  50.2887636  22.0912093
  33.4552169  75.3664351  78.3138943  33.6851764  76.2679815  78.0890226
  32.5066113  75.3239918  78.1931639  26.1610687  19.7940307  22.7059764
  25.8327377  20.6591230  22.9510230  26.5777147  19.9282747  21.8547362
  42.3306036  90.7221317  55.3907204  41.8890762  90.7828617  54.5436096
  42.3762274  91.6260242  55.7023764  68.9203119  71.9737673  79.9368429
  68.7555408  72.4790955  79.1407776  68.2447577  72.2647429  80.5493736
 104.6655655  98.3601189  74.9307108 104.0701008  99.0880680  74.7525358
 105.5064964  98.6456490  74.5735979  18.8917625  29.4986158  12.6802081
  19.1157568  28.9090257  11.9601745  18.8634384  30.3670602  12.2786826
  63.0243206  96.6976261  92.5729752  63.4790182  96.2167072  93.2644939
  63.6966944  96.8579292  91.9108200  54.9431705  81.9199085  69.7555780
  55.7948732  81.5383625  69.9683094  54.7470474  82.4952507  70.4949951
  20.8732116  18.7118297  10.0293941  21.0125911  19.3814426  10.6990355
  20.2282894  18.1185442  10.4145164  39.5649052  85.4429722  76.6710329
  38.7068367  85.8362389  76.8300724  40.1899529  86.0992336  76.9790459
   2.2906244  30.1163488  22.4421138   1.9603908  29.7158437  21.6378993
   1.5919483  30.7092386  22.7188224  75.0341034  89.8894405  93.1972408
  74.0981007  89.7116947  93.2896328  75.4613400  89.1753674  93.6703205
  27.4443233  42.0469194  25.0994414  28.0535496  42.5458627  24.5552558
  27.7189100  41.1361414  24.9930877  62.3115921  80.9555244  80.3294468
  61.9367647  81.1251831  81.1937046  62.6858282  81.7948627  80.0617123
  56.4650715  24.3243509  25.6969565  56.2654388  23.7827163  26.4605063
  57.3748291  24.1146141  25.4857844   7.3642195  49.5131784  16.0963649
   7.0759666  49.1843610  15.2448863   6.5723360  49.8753553  16.4938373
  35.9104574  20.0623184   8.5211867  35.6767786  20.2316051   9.4338531
  35.0719583  20.0354629   8.0602855  64.5343781  95.0754070  86.9997501
  65.0906467  94.5686722  86.4081383  64.5968866  95.9741211  86.6762733
   4.2254328  99.2155080   7.3532599   3.3260988  99.2320924   7.6806182
   4.1341280  99.2414384   6.4007777   7.2301458 103.7389808  16.4977283
   8.0849527 104.0744739  16.2275905   6.6529631 104.5019917  16.4676112
  61.4988470  91.8328571  80.5383492  61.8252087  90.9351540  80.6003284
  61.0825682  91.8774796  79.6775627   2.8900945   3.3107000   8.6800117
   2.8524673   4.1290479   8.1849116   3.6897457   3.3826166   9.2011756
  54.1821754  16.7062956  24.5223063  54.9006546  16.7416816  23.8908309
  53.9713753  15.7752996  24.5933455  50.3582657  43.4698206   1.8441695
  50.5695045  42.6336294   1.4289588  50.3590381  44.1013532   1.1248702
  33.3265913  17.9936844   9.5698470  34.1674602  18.3436018   9.2753619
  33.2459963  18.2940345  10.4751224  66.8332958  92.1681881  81.5517902
  67.5397682  91.5977287  81.2489700  66.2370825  91.5834045  82.0195484
  41.2894714  18.5198312  26.0293120  40.8519256  18.7589555  25.2122420
  40.7819546  18.9607006  26.7107028  37.1108425  32.0040804  32.9946345
  37.0896375  32.9551988  33.1002540  36.1914909  31.7392450  33.0243033
  63.6625671  83.3041286  61.4033222  64.5626545  83.1704807  61.1063194
  63.7293768  83.9875507  62.0701885  37.4839330  89.3627739  80.4172516
  37.7460241  90.0298691  81.0516930  38.2613349  88.8144588  80.3112793
  28.2782734  27.5821214   3.3165950  28.4063804  26.6653925   3.0727977
  28.3051098  28.0568796   2.4858684  72.1258640 102.3723221  60.4354095
  72.4919033 101.6160870  59.9767590  71.6033983 101.9937611  61.1424828
  51.4616096  46.7528158   9.1789454  50.5178249  46.8739134   9.2830295
  51.8268764  46.9690328  10.0368899  38.2871139  10.5246788  38.1495971
  38.6570108  10.5267530  39.0324420  38.7897718  11.1887031  37.6777476
   0.9944237  25.0136524   5.4774016   0.8279407  25.9349924   5.2782649
   1.0285080  24.9775844   6.4333171  16.2425398 107.8494792  14.5320624
  16.1312079 108.2954888  15.3716487  17.1890806 107.7375321  14.4439715
  80.8313740  30.6576639   0.9575957  80.3844440  30.7439237   0.1155490
  81.6504181  30.2083116   0.7491034  12.8836880  85.4431248  44.3820810
  12.5772534  85.9943867  43.6620569  13.7225972  85.8269596  44.6373272
  44.8471725  34.3997675  16.1165828  44.5633400  35.2027803  15.6797236
  45.7808197  34.5332056  16.2800616  52.7638340 104.3144989  73.9426327
  53.4073162 103.6929512  74.2829847  52.9716206 105.1390934  74.3820667
  55.6192684  74.5476389  81.5094852  55.8626318  74.2666817  82.3915672
  55.2026367  75.4000664  81.6360378  51.6517067  95.5067825  92.6264000
  51.3192654  94.6259499  92.4536228  51.3433504  96.0287285  91.8856430
  57.1511459  89.9104595  90.4392052  57.3848867  89.7248077  89.5297432
  56.2466812  90.2207184  90.3955078 111.5183891 108.8454967  21.9607276
 110.6074728 109.1096549  21.8315524 111.9920648 109.6688323  22.0789737
 112.5622513  70.4230976  80.9017658 112.5548189  69.5725393  81.3407707
 113.3231147  70.3868008  80.3221035  45.3253448  28.0322271  40.3250522
  45.1912010  28.5543543  39.5340938  44.6584213  27.3473745  40.2759189
  85.0278378  95.8350277  93.5285950  85.0872707  95.3501987  92.7054119
  85.8489990  95.6410885  93.9806080  69.1588009  23.3591562  31.2203330
  68.4940040  23.7272602  31.8023795  69.4908321  22.5938469  31.6896838
  39.9842632  23.2311111   1.4207286  39.8400533  24.1110330   1.0726279
  39.1416872  22.7898698   1.3130301  28.5373056  21.6317230   8.5383910
  28.4054601  21.8123346   9.4691104  27.9790771  22.2668081   8.0897445
  52.9802311  50.2204519  19.8454493  53.2412994  49.4239813  19.3831653
  52.0287788  50.2540022  19.7462577  36.7530668  46.2578684  40.1448268
  37.3053777  45.5781561  40.5310744  37.2842396  46.6253572  39.4384021
  53.9183140  90.5122662  91.3675404  53.4771109  90.7723522  90.5588818
  54.2948723  89.6547508  91.1697960  11.0900343  18.0544334  20.5312938
  11.7216528  17.8225809  19.8504657  11.6059673  18.5238319  21.1868209
  88.8176060  86.5598774  86.1599541  89.5480156  87.0522881  85.7854366
  89.2202377  86.0053730  86.8282795  54.7238398 108.0389595  83.5486603
  54.9698830 108.5022640  84.3493176  54.1326332 108.6404324  83.0959606
 107.8267956  70.2030039  77.3338747 107.0826530  70.7613945  77.5590324
 108.5103130  70.4525518  77.9557800  79.7313118 106.2294388  93.2793808
  79.4226980 106.5140915  94.1395950  80.1731205 105.3969765  93.4468365
  27.6331461  10.5180746  16.9281215  26.9102848  11.1360555  16.8194694
  28.3588732  10.9106832  16.4429301  68.4354687  75.5504370  58.4191990
  68.9034081  74.9339151  58.9823771  68.6766911  76.4132547  58.7562275
  71.3976717  74.0894222  88.5537338  71.0047245  73.9030170  89.4064236
  71.1097288  74.9784565  88.3465290  13.4603822  23.3277136   2.6561374
  14.1433704  23.9916044   2.7510280  13.7513626  22.7881056   1.9210261
  69.1448212 109.1714573  76.0457039  69.9798298 109.2211151  75.5803823
  69.3887901 109.0992451  76.9684744  80.0750732  93.2369041  88.3155632
  80.7902527  93.6684799  87.8481293  79.3065071  93.3815002  87.7636242
  55.1120460  46.3225656  10.6174487  55.1161850  46.5613275   9.6905154
  54.2111671  46.4784532  10.9009093  62.5056362  84.7457886  82.3512745
  62.7100468  84.1783619  83.0945683  63.1621981  85.4410648  82.3930454
  60.7847881  79.9114084  61.5235329  61.6519785  80.0607014  61.9002676
  60.3804541  79.2647552  62.1019650  16.8949865   6.7118788  64.4382429
  16.2376188   7.0445014  63.8271189  17.3301100   7.4962950  64.7722864
  69.5737123  80.0199318  61.6355467  69.9037075  80.9178925  61.6671705
  68.6369419  80.1149368  61.4633274  72.9924345  98.3202267  93.1551266
  72.2090340  98.4000015  93.6993217  73.6971807  98.6764050  93.6961555
  27.6096857  14.6369606  30.1286906  27.9304493  14.7586065  31.0223025
  26.9275892  13.9700847  30.2077598  31.5218532  44.6624571  12.2247046
  31.2545574  44.5572859  13.1377906  31.7894829  45.5790239  12.1575469
  25.6982219  44.1970926  24.6712226  24.8582685  43.9080053  24.3146533
  26.2084282  43.3925920  24.7645492  39.4100845  52.3383241   0.3537387
  38.5294903  52.4214369   0.7196254  39.9583519  52.8768831   0.9243411
  95.5389179  27.3860694  91.8131351  95.1109804  27.1649314  92.6403046
  94.8784317  27.2023154  91.1451340  33.9248836  38.3721166  37.7328032
  33.3387029  38.3568292  36.9762439  34.6174038  38.9854437  37.4868793
  72.2737682  43.1903368   1.5885753  72.7071941  42.3489290   1.4457435
  72.1674621  43.5570532   0.7108230  46.9425094  61.0840231   3.8945693
  47.7409637  61.4616018   3.5256022  46.6523922  61.7247587   4.5438117
  55.6387222   0.4617840  11.2878055  55.0563896   0.9431511  11.8755168
  55.6940258   1.0089403  10.5043620  44.7939480  46.2066179  14.0234488
  44.3274296  45.5984312  14.5967597  45.1362789  46.8776613  14.6139926
  61.4445961  35.8438879   2.1009463  61.3766086  34.9350935   2.3937053
  61.4279831  36.3575464   2.9084796  86.7841530  71.3041639  90.2970982
  87.2553158  70.9829712  91.0659122  87.3596668  71.0986662  89.5603561
  74.3422747  62.0626354  60.4847956  74.8791409  61.4907551  61.0333967
  74.0805197  61.5107870  59.7477913  21.9830870   0.4280234  56.8864298
  21.4739393   0.6624270  56.1105061  22.1044802   1.2554026  57.3521900
  46.6655540  77.9457188  78.4330273  45.9276390  78.5456467  78.5416508
  46.3882065  77.3481703  77.7385855  97.5876331 104.3277550  91.7443466
  98.4059143 103.8575268  91.9041538  97.0661545 104.1756916  92.5324917
  71.0119915  92.2602844  87.9016972  70.6280947  93.0489731  87.5185204
  71.1759758  92.4933720  88.8154793  16.2411869  11.0605961  16.1568850
  15.5438316  10.5723339  16.5945262  15.8654058  11.3101154  15.3126258
  44.6406925  22.1135956  36.7148322  44.3472755  22.6182848  35.9562606
  45.0692737  22.7569490  37.2793120  15.9279512  85.0154333   5.7237739
  15.0631117  85.3738837   5.9232921  16.4779448  85.7848577   5.5763835
  82.6189232  99.9161148  92.2731972  82.6488018  99.2495251  92.9594898
  81.8860435  99.6537113  91.7161751  34.9299169  71.1663294  72.5800514
  35.1543903  71.4743757  73.4580946  35.7053113  71.3592863  72.0530224
  36.5184569 101.4271450  82.7138233  36.9061589 101.5501118  81.8473339
  36.3844109 100.4819965  82.7842903  30.6807745  36.4394003   0.4539985
  31.6252029  36.2938028   0.3983897  30.5403698  37.2740274   0.0068683
  81.7750454  94.3240738  86.6642380  82.0312119  95.2147007  86.4246368
  81.5783691  93.8986969  85.8296108   2.2649632  85.3426647  78.2992983
   2.1070633  84.6081448  77.7061844   3.1993447  85.2913570  78.5006285
  76.2844133  71.8889952  69.8334932  76.1351442  72.5299644  69.1384315
  76.9624472  72.2837877  70.3817987  86.9513893  90.9637356  58.5892439
  86.0562038  90.7470798  58.8498735  87.1852016  90.2890205  57.9518080
  92.0878315 102.3317719  66.7533970  91.5791225 102.5591660  67.5316906
  92.4533463 101.4691734  66.9497681  23.3722471  13.1546927  79.5937347
  23.0806707  14.0640879  79.5289373  22.9701685  12.8311110  80.3998756
  57.5222635 103.4880829  85.0341892  57.0769501 103.9663982  84.3348026
  58.1215382 104.1281414  85.4181576 104.5394611  63.9030647  55.8445168
 104.6784496  64.7977209  56.1551666 103.8273907  63.5681868  56.3895369
  19.3345917  12.0389896  18.8883895  18.7851894  12.3295217  18.1603927
  20.2121628  12.3489433  18.6647243  39.1545666  74.6489149   4.4447917
  38.4745300  74.1976839   3.9446181  39.3640554  75.4220873   3.9208240
  78.1578684 106.1345196  90.9966755  78.6876249 106.4812469  91.7145729
  78.0772495 106.8653774  90.3838253 116.2130226   6.3387824  72.2040844
 115.7349695   6.3841201  73.0321169 117.0592989   5.9567691  72.4367094
 102.9728794 100.1174831  73.9277697 102.8346920 101.0180092  73.6342001
 102.1157742  99.8355389  74.2473030  94.9815369  98.1437492  87.7601337
  95.4368401  98.4521103  88.5436153  94.1004562  98.5101700  87.8353214
  13.0045771  92.1037345  12.3597068  12.5961947  91.4279776  11.8185920
  13.4634279  92.6657038  11.7352981  83.4688663  75.9703016  85.9242725
  84.4031811  76.1627579  85.8452511  83.4131145  75.3471613  86.6487122
  34.9940527  56.8120962   3.5741919  34.6870077  56.9853311   2.6842803
  34.9762285  57.6669889   4.0043849  66.1154545   9.6889454  13.0663318
  66.8327034   9.9418550  12.4851054  65.5040443   9.2170149  12.5009173
  42.6670254  62.9447179  26.4327926  43.3956135  62.3533159  26.2440318
  43.0856979  63.7686926  26.6818065  37.8711450  25.1735216  14.8731727
  37.6112497  24.8918062  13.9960593  37.6414478  24.4366556  15.4392928
  41.7224682  15.4154449  17.6534289  42.5434578  15.9074169  17.6401443
  41.9920814  14.5021492  17.7505225  48.1733465  90.8909988  84.0089798
  47.3001099  91.2478924  83.8467693  48.5639381  90.8088779  83.1389618
  42.2414005  42.4126058  19.7930068  41.5643680  42.6228815  19.1498488
  42.1585834  41.4686018  19.9280089  82.8632832 109.9118042  77.2577667
  82.8588867 109.2022419  77.9002094  83.7327385 109.8691177  76.8597078
  68.7403059 105.8763218  93.9903641  68.4582424 106.6625595  93.5229206
  69.6526718 105.7555962  93.7272263  29.9820745   8.4610086  10.8226794
  29.5397508   9.0409570  10.2028102  29.2944563   7.8707939  11.1310023
 112.5301506  39.1893488  14.8451251 112.5418475  40.0336843  15.2958888
 112.5073531  39.4146543  13.9150924  52.6387966  46.8365102  11.8570727
  52.3491466  46.0526472  12.3238486  52.3369110  47.5642400  12.4006766
  64.3507374  37.4628263   3.6738223  63.4304321  37.6248842   3.8811892
  64.6252525  36.7983919   4.3058127  29.2055500  43.1819349   1.3430041
  30.1562679  43.0772596   1.3054389  29.0046346  43.2116132   2.2784156
  67.1606529  33.4999757   5.5596370  67.4328697  32.9856306   6.3196296
  66.8692673  32.8486734   4.9215621  48.8477600  25.9073835  14.8660964
  49.7658527  25.8053499  14.6152514  48.4890735  25.0207477  14.8278731
  31.4998589  70.3219938  86.5702248  32.3552857  70.0650740  86.2260532
  31.5591107  71.2716246  86.6747475  93.9306545 109.3759155  89.8373699
  93.6141682 110.1720333  89.4104385  94.7126293 109.6544170  90.3140163
   7.8298353 108.9698939   3.6382979   8.2521891 109.4553714   4.3469256
   8.5399126 108.7704854   3.0281657  78.2676554  82.8723717  57.0184135
  78.4283733  82.2893238  56.2764835  78.5767078  82.3816967  57.7799606
  17.8923548  70.0895601  17.4252719  17.2612560  70.6508737  16.9748515
  18.6055982  70.6792455  17.6697844  26.2498796  32.3005777  22.3613852
  25.7946766  31.4588171  22.3401374  25.8858812  32.7884298  21.6226500
  24.5042312  70.3777128   5.4498881  23.8577879  70.4518800   6.1519164
  24.8110521  69.4724851   5.5014724  75.8719254  71.4180660  49.1114044
  75.1577187  71.2611818  49.7290802  76.2858105  72.2228670  49.4232178
  67.2136200  43.2605367  29.6002692  67.9667843  43.8505464  29.6298331
  66.7838180  43.4622770  28.7691230  50.8188427  31.6640192  10.3028983
  51.1381233  32.3124319  10.9304637  49.9929798  32.0269304   9.9827785
  68.6170530  70.3688622  62.5951099  67.7931213  70.0506592  62.2261715
  68.7620211  69.8202276  63.3659649  38.1384348  30.5153418  80.8511066
  37.7247213  29.8824359  80.2641678  39.0267824  30.1813460  80.9756947
  70.6250274  26.1837583  10.0756282  70.2766311  26.8155866  10.7046241
  70.8426082  25.4154401  10.6034297  38.9035404   2.7073198  11.1645907
  38.2408703   3.1701189  10.6518382  39.0758264   3.2836061  11.9092006
  81.8450260 108.7536812  94.1767883  82.2472095 109.4550991  93.6644554
  81.2433815 108.3264542  93.5670853  89.4320107  57.0922804  37.6157665
  89.8522186  57.9346228  37.4422336  88.5754776  57.1605015  37.1939492
  74.9314678  59.4200521   9.6706695  74.1455162  59.4909006   9.1289157
  75.6536949  59.6047407   9.0702361  39.3027199  15.9729248  16.6619605
  38.9141023  15.2135091  16.2278003  40.1648844  15.6704765  16.9473189
   5.5081820   5.1347304  82.1665859   6.2411951   4.9977828  82.7667332
   5.8978724   5.5688430  81.4076900  52.7100075  35.1098924  36.2964744
  52.7704609  34.1853910  36.0559005  52.5928676  35.5669313  35.4636306
  23.0818212  38.8549810  10.5398864  23.7751377  38.6347776  11.1620254
  22.4803245  39.4087320  11.0376853  47.1909975   6.7815066  66.1680317
  47.3994707   7.6241542  65.7646465  46.3254904   6.5592910  65.8248711
  62.6890648  58.5357767   0.0815410  63.0042923  57.6335722   0.1352900
  62.8403557  58.8948446   0.9558505  89.9348164 106.2667084  93.0226135
  89.9940681 105.6753159  93.7729263  90.1953506 105.7304287  92.2737789
  99.6106625  89.2846584  86.2974358 100.4669094  89.3928337  85.8834648
  99.2075634  90.1511860  86.2439251  81.4564705  69.7658777  83.8515377
  82.4029064  69.8897600  83.9232063  81.3541222  69.0770102  83.1948662
  28.1119812   7.0910459  22.8286666  28.8716257   7.0588451  23.4101600
  27.8771293   6.1734634  22.6903934  21.0750807  30.1576524   6.1453742
  20.4322088  30.2805429   6.8438357  20.9745777  30.9298711   5.5887717
  97.8386892  12.5618888  90.1549721  97.0466341  12.9969836  90.4705334
  97.5242294  11.9349528  89.5035934  67.3612678  71.2132745  29.8407763
  67.6382530  70.7726007  29.0374583  66.7753208  71.9089323  29.5425242
  10.5098032   2.9360820  87.9660130  10.3313803   3.3546401  88.8081551
  11.1428236   3.5143805  87.5404644  84.2655182  70.4257202  76.0505629
  84.0946007  71.1677885  76.6305256  84.0575600  69.6555042  76.5794754
  91.3917721  53.3048540   0.2651233  91.7793167  52.7358156   0.9301299
  90.8787239  53.9408785   0.7635993  88.3549213 100.4106998  95.2173710
  88.4187222 101.2454319  94.7532654  88.0387783  99.7934151  94.5576382
  39.3959797  50.6555372  15.9554404  39.6219528  49.7885996  16.2924880
  39.7804296  50.6795126  15.0791663  22.7877401 104.1561418  15.0498122
  23.1654333 104.2929940  15.9186286  21.8423723 104.1419654  15.1991481
  53.1359279  69.6208959  11.0226363  53.3224285  70.4195314  11.5162391
  53.9591110  69.4155317  10.5794353  61.9645929 107.3668194  84.6450710
  62.8882313 107.4194050  84.8907471  61.5922546 108.2001781  84.9333382
  15.1904381  35.0828844   7.5414485  15.4730213  35.0843626   6.6269130
  15.0819958  36.0084444   7.7601165 114.7958088  85.2430534  80.2390671
 115.5455017  84.7870731  80.6215286 114.0392494  84.7139263  80.4917908
  96.5007591  84.2865181  81.0108566  96.2358570  85.0195217  81.5665340
  97.2071934  84.6392345  80.4697800  31.3189912  79.2277002  59.2600250
  32.2394276  79.4857311  59.2105103  31.2768078  78.6334467  60.0092316
 102.4839497  88.4442234  74.4736052 101.9555950  87.8203678  73.9757252
 102.5729370  89.1998672  73.8928127  91.8355179  79.2886066  94.3292618
  92.3811817  79.4789028  93.5662079  91.0062313  78.9841175  93.9607525
  29.5067585  59.8838716  12.3591727  29.4720304  59.0383249  11.9118899
  30.3795374  60.2236753  12.1616096  41.6211676   8.9091349  91.7598629
  41.7595171   9.6271849  91.1422157  40.6709551   8.8645316  91.8663502
  94.8939419  89.8447800  88.7426376  94.7554016  88.9570236  89.0726757
  95.7877827  89.8362637  88.4002686  39.9078977  12.1267038  17.7702159
  39.3475759  12.6285463  18.3621901  39.6414745  12.4057251  16.8942088
  21.6999805  27.0204645   2.3270530  21.7579544  26.6113859   1.4636153
  20.9624994  26.5815836   2.7509898  61.4141262  46.9474798  20.9814280
  60.5596149  46.6601282  21.3031024  62.0450771  46.5015035  21.5464419
  22.1397424  95.7709122  90.5972004  22.9334879  96.1301231  90.9936428
  21.4725614  96.4405155  90.7480049  56.4620543 106.0364628  72.0063877
  55.9362936 105.2845860  71.7334604  57.1583319 105.6592941  72.5441408
  40.2436422   6.3897944  94.0489292  39.6334337   7.0478106  94.3819332
  40.1681875   5.6601763  94.6639061   0.8875523 103.4811878  83.1954861
   0.5749188 103.6638451  82.3094082   1.0875569 102.5451279  83.1906986
  90.6899584 107.4518188  68.6155176  90.3884293 106.8949362  67.8977442
  91.4484359 107.9135317  68.2580757  52.3516990  41.1204128   3.2462424
  51.8687535  40.4969733   2.7037353  51.6778887  41.5555696   3.7685889
  96.2656713  72.8944039  91.5737915  95.5739416  73.4265231  91.1806107
  96.1971713  72.0480441  91.1319637  76.2268019  20.5000210  32.9152441
  75.5269957  20.1272440  32.3790216  75.8129644  21.2304211  33.3751178
   8.4063798   2.0100152  64.1723537   9.2641628   1.8446824  64.5636415
   7.7991265   1.9969721  64.9121571  33.9613329 104.8130345  88.1216145
  33.4071337 104.0421771  88.2435894  34.7599684 104.6135669  88.6101055
 110.1753641  97.4609911  92.0606232 110.8762051  96.9245636  92.4311638
 110.1838208  97.2539210  91.1261272  82.6312412  44.4687288   3.4735030
  81.7834486  44.6008973   3.0492324  83.1460108  45.2363007   3.2243556
  41.3032055   8.6861247  49.7250175  41.3745308   8.5354424  48.7824488
  40.7442331   9.4593000  49.8023510  52.9480077  78.2519393  10.3290767
  53.2589091  77.3486071  10.2693767  53.6409296  78.7129693  10.8018798
   8.8437258 100.9062468  86.1896515   8.8537728 100.7302921  85.2488136
   8.4619700 101.7807239  86.2657070  37.4525714  11.8234122  67.8325653
  37.0259237  11.0240960  68.1412697  37.2744799  11.8421400  66.8922663
  91.1924375  19.4840388  20.6336040  91.1438097  20.2672343  21.1817569
  90.9124578  19.7801309  19.7674769 110.2131738   1.0925748  60.8456373
 110.5125346   1.3668533  61.7124653 111.0037412   0.7767015  60.4080772
  69.5824875  36.1487226   0.0994128  70.0172628  36.6760378   0.7695884
  69.1171850  36.7861025  -0.4423219   1.2131501  12.3636413  92.0308304
   0.3885439  12.5905252  91.6009712   1.8042085  13.0835354  91.8103027
  76.0738362  17.8424602  -0.0666123  76.0815133  17.3232584   0.7375068
  76.7265381  18.5263114   0.0836009 107.8478695  95.2344643  46.7443800
 107.2869373  95.4061233  47.5007629 108.6405135  94.8481154  47.1167803
  25.8594261  97.1052324  71.9573975  25.8758389  96.5669202  72.7487135
  26.7170798  96.9666206  71.5555906 106.1573530 109.4196373  85.1511383
 105.6006528 109.8516616  85.7989597 106.9556786 109.1985214  85.6307316
   5.1793230  10.1170897  64.3128300   5.4484361   9.1994578  64.2708588
   5.8822370  10.5932879  63.8708115  62.5417675  62.9941361   0.5663318
  61.8685616  63.2205014  -0.0753671  63.2307161  62.5730293   0.0522822
 107.2500182  92.0458483  72.0971203 107.1405602  91.2269604  72.5805187
 107.9715062  92.4914610  72.5410986  14.4556128  94.8053681  84.5330238
  15.1785408  95.4009902  84.3359470  13.6674963  95.3280448  84.3849945
  41.7466116  12.9429626  74.0221405  42.3004389  12.1629357  73.9894533
  40.9123755  12.6602638  73.6474991  38.9681053   3.8891751  80.2582169
  38.6826158   3.0023497  80.4779243  38.2930422   4.4570544  80.6297493
  98.7761856  97.6152741  57.0731068  98.1712223  96.8768536  57.1437263
  99.2149974  97.6475417  57.9231834   3.0529052  15.1032031  60.1590824
   2.3857936  15.7031989  59.8256159   2.5605181  14.4496787  60.6557608
  67.5560344  74.5757751  11.7097205  66.6604222  74.7695689  11.4330405
  67.4598635  73.8863437  12.3667354  23.8535452  12.4028718  70.8374977
  24.4589925  12.2916114  71.5704918  24.3445539  12.1009099  70.0733232
  11.6888988  15.5828857  67.0905495  11.7138696  16.0656476  66.2643862
  10.8114076  15.2015090  67.1186733  38.0795459  21.4069943   4.1524238
  38.5950182  20.8239822   3.5950965  37.9912257  20.9321408   4.9788302
  34.3161631   4.6417561  90.2785683  34.8177195   5.0647682  90.9755135
  34.9671245   4.1455403  89.7823334  77.2523310  72.7942299  84.0088081
  77.6231054  71.9717907  83.6888790  76.5540977  72.5258827  84.6060467
 109.5276513  35.9101772  48.5266352 109.2644568  36.7666936  48.1899738
 109.1589328  35.2842259  47.9033661  98.0734802 106.6487189  85.9538841
  98.5946251 105.8488932  86.0240269  98.3559919 107.0472413  85.1307201
  48.8933433  52.4325767   5.4502028  48.5477818  52.9100932   4.6960181
  48.4999461  52.8649324   6.2081927  29.6952486   9.6057481  79.9165106
  28.8032579   9.3218350  80.1164532  30.0911856   8.8562095  79.4719267
  78.3833064  53.6578257   8.5590953  78.1512893  53.7692166   7.6371402
  79.2239298  54.1064319   8.6504096  98.2709326  11.0248017  68.7935400
  97.6326539  10.3117228  68.7748051  98.3168914  11.3289881  67.8871250
 110.5558778  98.7323963  42.8689241 109.6230818  98.6986601  43.0810213
 110.6558348  99.5337748  42.3550797  24.7953306  86.4364599  84.8930550
  24.9157177  86.3261389  85.8362198  25.6834923  86.4324497  84.5361423
  30.6198072   5.4809588  41.6976500  29.7249913   5.1692951  41.8333197
  30.6923532   5.5958176  40.7501411  33.1415844  17.0719230  91.2456131
  32.6000333  16.7657435  90.5181408  32.7172542  16.7161572  92.0263863
  53.2536507  26.1057043  78.8613558  53.7048483  25.9721947  78.0277920
  53.7669468  25.6039524  79.4946003 102.0472934   6.0709482  75.4720926
 102.2162320   6.9806492  75.2268648 102.8847172   5.7548392  75.8112478
  99.2123128  89.5868849  70.2099562  98.8266326  89.5100164  69.3372726
 100.0350262  89.1010880  70.1518583  95.1939644  18.9126241  67.2374058
  94.7230925  18.1545138  66.8913126  95.3651228  18.6908746  68.1526995
   9.2833268 108.9032812  79.5140648   8.6776577 109.3805841  80.0811386
   8.9528357 108.0049456  79.5129156   9.9652230  93.6049854  65.9071875
  10.0155817  94.1931640  66.6606712   9.0305888  93.5505592  65.7078695
  10.5648708  19.1565394  42.3837185   9.6330392  18.9537930  42.4662781
  10.7628059  19.0014982  41.4601278  20.6571947  98.9643084  86.2556171
  20.5760800  99.4951069  85.4632092  20.9040581  98.0957841  85.9378815
  93.4028436 103.2011622  79.3178797  93.2623328 102.3110407  78.9951229
  92.6583184 103.6988156  78.9798641 112.9901804  43.1566577   4.0487975
 112.3482813  42.4894361   4.2917270 113.7573637  42.6591330   3.7657279
  23.1685019   5.2362472  93.2155037  22.3926282   4.8264056  92.8330326
  23.4235144   4.6488973  93.9269924  64.6668233  50.8634772   9.2259521
  64.6221126  50.4061781   8.3862418  63.9915289  51.5392889   9.1668910
  40.5795609  99.6329319  45.2600098  40.5449854  98.9093577  44.6343279
  39.8008858  99.5162963  45.8043385  27.4414968   2.1001938  79.1847515
  28.1797051   2.7088881  79.2124987  27.8439331   1.2413800  79.0554619
  78.6302842  59.2381327  21.4788646  77.9145945  58.6165707  21.6118354
  78.1939830  60.0695358  21.2927455 111.1171306  27.5137262  33.1310004
 111.7709936  26.9783645  32.6814670 110.8186926  26.9671087  33.8579005
  38.9132630  77.1989583  88.2099533  39.1707646  76.2869763  88.3449173
  38.9919030  77.6006030  89.0752411  55.7086515  15.4398990  63.7720394
  55.9555864  15.9366500  64.5520973  55.2614403  16.0764575  63.2143402
  68.9385557  12.0693707  69.4213343  69.5813847  12.1778870  70.1222134
  69.3885565  12.3758149  68.6340475  20.5951333  15.0055647  68.7355947
  21.2862158  15.6391406  68.9285231  21.0551047  14.2586601  68.3524609
  36.8331636  57.4457316   6.3824862  37.3647953  57.0491489   5.6923217
  37.4688019  57.8586610   6.9670218  41.5365982   2.0440866  80.5326462
  42.4209833   2.3440781  80.3226280  40.9900141   2.8239954  80.4366302
  36.6028976   4.1174453  85.6566620  36.1619949   4.8751080  86.0410881
  37.5010610   4.4130430  85.5078125  39.4958817 107.6606204  76.1237431
  38.7667261 107.1618813  76.4922857  40.0778710 106.9964819  75.7543659
  52.1879007  57.9046487   6.7044753  51.8465651  57.0923215   7.0784396
  53.0949200  57.7007862   6.4764708   5.3637904   6.0182238  55.1691723
   5.7033074   5.7086861  56.0089016   5.8850038   6.7965686  54.9723291
  36.4205337  30.7635140  59.8614407  36.2649298  31.7069793  59.8179483
  35.6617332  30.4170084  60.3308916  20.7110678 105.3903603  85.6510544
  20.4817377 104.5196544  85.3262234  20.6555258 105.3129708  86.6034985
  17.8609300   8.7063164  69.5001173  18.4522498   9.4587988  69.5186281
  18.3636391   7.9967606  69.9001741  97.3058046  52.0179643  32.5956744
  97.9292787  52.4813181  32.0363730  97.7086414  52.0291572  33.4639091
  49.7000408  19.8603320  71.1862230  49.1217375  20.5106997  70.7876968
  49.3851948  19.7795522  72.0865440  19.3354451  73.3410286  76.7692661
  19.2220627  72.4100327  76.9606304  20.2621065  73.5095143  76.9399595
  87.7252639  63.7012135   5.7499331  88.0270446  63.6456381   4.8432559
  87.7783788  64.6328025   5.9633655   4.5568973  10.1328564  87.5831032
   4.0955713  10.4353905  88.3653355   4.0398422  10.4737282  86.8532467
  34.5293999   8.9990878  86.7126560  34.0819526   9.8414958  86.6328430
  35.2497602   9.0500337  86.0843945  48.7647724  18.2782817  66.0589743
  49.5481396  18.1076872  66.5819168  48.1344986  17.6191401  66.3496971
  72.5686611  50.0556584   1.8975276  72.8612341  50.9668134   1.9182414
  72.8353323  49.6991508   2.7448863  19.8465287  78.0737829  90.3376579
  19.9111830  78.4322070  91.2228584  20.3158699  78.7028121  89.7896862
  44.2681599   0.1543823  86.9736862  44.8865223  -0.3622443  87.4903584
  44.8013401   0.5424459  86.2798786   2.6140295 106.9072189  66.5988731
   3.2210051 107.3470069  66.0035563   2.7330910 107.3552253  67.4363375
 115.7753087  97.4335145  64.3222761 116.2574101  97.7812385  63.5720110
 115.7469369  98.1591200  64.9459124  68.8916625  56.0477759   3.2698459
  68.8459648  56.1651005   2.3209685  67.9775013  56.0263117   3.5528296
 114.6094594  44.4621849  91.8687153 114.6159334  44.3379927  92.8178024
 115.4733658  44.1656160  91.5824604 108.1942607 105.1236820  69.5831013
 108.9972664 105.6416308  69.6391773 107.5184346 105.7554262  69.3373585
  40.7838011  49.4334364  95.4398346  40.3191900  50.0842714  94.9137306
  41.3318062  48.9639950  94.8109055  95.6971550   8.6777437  57.8875637
  94.8594570   9.0182841  57.5736809  96.1138344   9.4250476  58.3166885
 107.0581878  44.2313509  16.0620135 106.9529976  43.2867389  16.1754817
 106.4832605  44.4499760  15.3285998  77.7238358  82.9282074   5.3909987
  78.3961285  83.0578880   6.0599059  78.2033123  82.6014643   4.6296996
  90.0522388  88.0514531  17.2135371  90.9478439  88.3258944  17.0165462
  89.7196115  87.7067380  16.3848227  28.2543278   0.5875510  65.8083725
  27.6032877   1.2017144  66.1477566  27.7381206  -0.1301161  65.4413319
  77.7707518  54.0754645  33.7628573  77.6754082  55.0163000  33.6146373
  76.9733180  53.6932522  33.3964652  49.5403910   3.2531017  63.2976055
  49.7761774   3.6253583  64.1473436  49.3114471   4.0108219  62.7593899
  53.2055092  35.9434772  66.6297102  53.7006426  35.1681304  66.3652945
  53.1952000  36.4985085  65.8499241  59.1013050  32.7306747  86.6588974
  59.8884392  33.2709956  86.7274952  59.0975666  32.4270654  85.7511234
 107.2915913  87.0941138  62.5954485 108.1172682  86.9489383  62.1334791
 106.7731429  86.3108444  62.4112368   2.3442684 104.0324467  66.5364742
   2.4807249 104.9783357  66.5903759   2.3747956 103.7338715  67.4454021
  44.8657608   3.2300732  93.4370232  45.4923487   3.0111566  92.7473164
  44.1115808   2.6669034  93.2630157  22.6917744  17.9316461  84.1741943
  22.0363903  17.2513783  84.3289089  22.5750446  18.1720793  83.2550621
  12.9941546 102.9734325  87.4557972  13.5432564 103.7210434  87.2195911
  13.5383593 102.4540799  88.0476952  71.6028775  46.2862490  27.1829242
  72.5405563  46.2876062  27.3752517  71.2505211  45.5719446  27.7138156
 107.6424421  73.1959503  13.9563483 106.7636455  73.5363381  13.7887687
 107.5062860  72.4715667  14.5670527  29.5737123  14.6974790  61.8930864
  28.9315605  14.0145266  62.0866108  30.3180170  14.2269790  61.5177584
 106.0410644  90.6312215  77.8623962 105.4580642  90.0811934  77.3391247
 105.7898618  91.5273189  77.6384830  51.0853850 107.7483296  54.0545845
  51.4848028 107.7826162  54.9237919  50.2715193 107.2614085  54.1840219
  31.8450427  35.3021431  94.2073345  31.3487005  35.7762599  93.5401821
  32.7336049  35.2527928  93.8548374  53.1449413  18.0769575  91.0928535
  52.9636002  19.0165079  91.0685444  54.0992689  18.0160475  91.0505867
  53.7405300  31.8956828  79.2031670  54.3761778  31.9190907  79.9184561
  54.2734814  31.9169426  78.4083462  71.9014872  46.7755895  20.3803271
  71.9402302  45.8511608  20.1350516  71.6169394  46.7691784  21.2942332
  11.1360203 108.9908924  94.2651272  11.5215002 108.2026900  93.8825417
  10.6378685 108.6726896  95.0180054  63.6648226   9.6556836  72.4481440
  63.9979792  10.3646755  72.9982090  62.7426910   9.8724020  72.3105335
  42.3458004  23.7121964  81.2997723  41.6553307  23.4881639  81.9237137
  42.2065878  23.1158042  80.5641270  16.4910328   6.2782103  48.8945866
  17.0334017   6.3092202  49.6826887  16.3283312   5.3457260  48.7523460
  64.9027432  78.2269459   4.2048377  64.9922861  78.1175332   5.1515407
  64.4311656  79.0536480   4.1028136   8.7543570  92.3462796  71.9006824
   8.1806885  93.0576002  72.1855688   8.7268292  91.7141246  72.6189137
 101.9842972  83.4238296  13.8342113 101.8741907  83.6634784  14.7543639
 102.7319635  83.9436059  13.5391540  15.7277476  99.3628227  86.1935234
  15.9416472  99.2539119  85.2669144  16.5726887  99.3188297  86.6411591
  39.4433928  36.1843300  73.8530827  39.2516112  35.9620547  74.7641516
  39.0832782  35.4554582  73.3478165  25.6794333  32.2238684  62.8098917
  25.3173351  31.6238809  62.1578693  25.7882667  33.0507565  62.3401642
   9.7223936 101.2580537  70.5711174   9.1889178 100.5747818  70.1651955
  10.0700604 101.7600560  69.8339891  98.9491011 100.4826116  52.5508738
  99.8768331 100.3330957  52.7330542  98.5058714 100.2649092  53.3708620
  14.9140823  21.6023040  66.7354250  14.2189598  21.9427204  67.2985888
  15.3666842  20.9561753  67.2775555  64.6277226  53.6512412  12.0930690
  64.7244753  54.4336085  12.6359958  64.7503103  53.9648476  11.1970443
   6.3493382 109.2153331  65.6867456   7.2252785 109.5876608  65.7883978
   6.4294993 108.6128927  64.9472380  97.2351755  67.0754735   9.0645427
  97.2645725  67.6230328   9.8491115  96.4115490  66.5935497   9.1395301
 103.5721410  58.9241796   2.9376334 103.6654390  58.7506672   2.0009250
 104.0628971  58.2201989   3.3616656 115.9404946  91.5610980  81.4957428
 116.0749794  92.1340489  82.2506428 116.8159629  91.2398505  81.2798977
  41.1174809  93.9613079  70.4929829  41.7034136  94.4904970  71.0341597
  40.7137238  93.3475839  71.1066246  28.5269690   4.0054440  77.1121454
  29.3840313   4.4063270  77.2569513  28.5644960   3.6779261  76.2135029
  82.3306717  83.7126093   9.7255820  82.9434885  83.4180288   9.0518493
  82.4522031  84.6613817   9.7615642 104.4978597  36.8697500  89.9460983
 104.7693076  36.0815001  89.4757748 103.5480525  36.7843127  90.0285625
  59.1170801  66.5337281  52.3760241  59.0108932  66.8587058  53.2700843
  58.5334934  67.0815961  51.8511409 107.1050311  77.9428124  58.8506413
 107.5285269  77.0855712  58.8955975 106.2743450  77.8240275  59.3111658
  35.1943469  49.1645336  90.2402592  34.8478484  50.0411320  90.4068375
  35.6127214  49.2314816  89.3819332  18.2753491  11.0684299  94.8481560
  18.9149594  10.4247665  94.5434856  18.3303046  11.0272992  95.8028984
  67.9243292  50.8476486   4.6849650  67.3298181  51.5727212   4.8774642
  67.7410926  50.6234400   3.7726134  42.8798962   0.6237716  66.2405348
  42.5255108   0.8952137  65.3938007  43.7844992   0.3736429  66.0524988
  83.2310534 105.2710559  83.2304573  82.9095233 104.5270800  83.7397194
  82.4476225 105.6363957  82.8193665  49.1728783   9.8613912  88.6147976
  48.5088587   9.7861779  89.3001080  49.1452742  10.7821250  88.3545685
  10.0751448   4.1455555  78.2997274  11.0249293   4.2594928  78.2656956
   9.8206520   4.5082772  79.1481972  57.2460699  34.4696522  93.4913063
  57.4781895  33.5913372  93.7928295  56.5562439  34.7541809  94.0908241
  77.1756042  69.0132468  43.2353419  76.7039694  69.4597440  42.5321788
  77.8577245  69.6318393  43.4966582  77.4029936  99.6263270  26.9241733
  77.0523227 100.4870038  26.6950435  78.3493580  99.7155862  26.8116683
   0.1759826  58.7171459  64.6934175  -0.4984225  59.3588304  64.9162436
   0.9946595  59.1196536  64.9832249  44.0748930  14.2372692  68.1555271
  44.0151167  14.8993719  67.4668503  43.1701183  13.9609361  68.3012962
  84.4257034  67.0755105   1.6909713  85.2783455  66.6630452   1.8292064
  84.1415991  66.7569141   0.8342284  24.5891380   2.9555580  72.5783157
  25.2696276   3.6181617  72.4594784  24.0070367   3.0727196  71.8275452
  45.2127314  12.6122117  62.0669508  44.6243048  11.8984985  62.3131180
  44.6323347  13.3556986  61.9038630 113.1887270 100.6844389  82.5085449
 112.9715658 100.3504264  81.6381931 113.0877949 101.6333001  82.4329948
  81.6627393  87.8324913  64.8431110  82.0312438  87.7311992  65.7207060
  81.8590532  87.0049595  64.4039249  22.0426989  18.8589370  70.1223612
  21.4068794  19.5649362  70.0060368  21.7099690  18.3571553  70.8664942
  42.1634007  24.8005605  36.2248349  41.5036249  25.3678107  35.8258939
  42.0161629  23.9436316  35.8245540 103.1936742  90.7922732  72.7653408
 103.0712963  91.6912209  72.4601412 103.5500599  90.3285050  72.0076180
  70.2842797  72.7129846   1.9282741  69.8149623  71.9074826   1.7111606
  70.7091774  72.9705625   1.1101359  92.8748859  31.5111356   3.1107158
  93.5863651  31.7167454   2.5042838  93.2322324  30.8260994   3.6757392
  46.4339447  15.2133393  81.4123249  46.4318609  15.7346869  80.6095600
  47.1675873  14.6083093  81.3030815 114.5957590  94.1150319  80.6223011
 115.0815512  93.3110034  80.4385185 115.1512099  94.5954441  81.2362289
  32.4873948  26.8564725  77.2762489  31.7954850  26.5240312  76.7044306
  32.2767997  27.7828360  77.3934412 104.7355522  37.5830584   5.6540507
 104.1250480  37.6997082   6.3819903 105.2682890  38.3782976   5.6584567
  55.2418566  26.6812801  77.0938158  56.1169863  26.3768339  77.3340034
  55.1321888  27.5002718  77.5769901 102.7826990  84.5023231  23.1668681
 103.5726417  84.4499927  22.6288337 102.7704443  85.4042249  23.4872645
  49.2884684  24.6539021  59.4172812  49.7223854  23.8396311  59.6720600
  49.9074125  25.3418469  59.6619701  83.1308664  32.0161872  25.5942649
  83.6666835  32.5399094  24.9985713  82.2789968  32.4527006  25.5966586
  70.7435656  16.4514852  89.6586037  71.2634659  15.8782637  89.0952682
  69.8512316  16.1126411  89.5868397  19.6549249  18.9398384  78.2418585
  19.3380642  18.0630469  78.4588099  18.8634038  19.4353330  78.0315924
  26.9575678  99.5622384  62.7781010  27.3011671 100.3033035  62.2791100
  26.0170399  99.7295820  62.8384399  83.3775057  47.2433083   3.1530971
  83.0170311  47.5809329   2.3331565  82.6938738  47.4101864   3.8019675
  84.7299589  74.8038857  15.1491946  84.6866144  74.3216305  14.3234939
  83.8205208  75.0328331  15.3408736  82.5404358  19.0324819  62.8699541
  83.4794521  19.0260220  62.6843882  82.3395157  19.9495196  63.0567789
  31.8341589  31.2398362  84.4064617  31.3169527  31.8454909  84.9374199
  32.5635242  30.9877038  84.9727535  51.2973166  34.4482756  60.1908302
  52.0515871  34.2955971  60.7600451  50.6635904  33.7786698  60.4482174
  21.6725241 108.9587618  63.0518198  21.4577233 108.3037826  62.3876667
  22.4508559 109.3993577  62.7107716   9.4153333   1.2887473  85.0758457
   8.8905048   1.9239807  84.5887470   9.9570328   1.8216944  85.6578732
  88.4301342  70.6692700  14.6578330  87.5184454  70.9374206  14.5431823
  88.9406170  71.4138012  14.3395251  74.5566667  49.0655773  14.5094317
  73.8208426  49.0116506  15.1192588  75.1173199  49.7521542  14.8706931
   1.0249745  97.0647132  78.3264589   0.6007205  97.4275338  79.1040182
   1.9567238  97.2399592  78.4582233  94.1078438  72.9229360   6.2365836
  93.4241356  73.1303625   5.5995959  94.6793092  72.3043041   5.7816619
   3.4663080  78.4719830   8.6687011   2.6817392  77.9252319   8.6269969
   3.1338095  79.3694739   8.6549491  80.3757156 100.0044351  26.4436168
  80.5180706 100.8368878  25.9930724  81.2196411  99.5558934  26.3903636
  78.2134737  67.3055451  -0.0786572  77.4376596  67.8649108  -0.1167756
  77.9070295  66.4988987   0.3356475  38.4909105  11.3647389  90.3100777
  37.7924848  11.7122591  90.8647537  38.5744619  12.0032752  89.6018887
  54.8147583   6.2428713  48.7379360  55.4648066   6.5766555  48.1196642
  55.3066778   6.0936332  49.5453835  43.2456684  20.4745364  88.9244080
  42.5772333  21.1314487  88.7297535  43.8865328  20.9375381  89.4639969
  92.6525654  85.3150063  31.0343284  92.6486267  85.7205634  30.1672954
  91.8847336  85.6809144  31.4733905  66.8710817  67.1686451   8.8262195
  66.9363297  66.9911687   9.7645492  67.4696196  67.9009335   8.6787719
 114.9548086  42.9526758  53.9021540 114.0993228  43.0569267  53.4856129
 115.3547059  42.2122860  53.4459352   8.1995522  84.5275854  89.1009617
   8.2899891  84.7465205  90.0283909   8.3019244  85.3637218  88.6463928
  37.2029281  39.5125175  81.9824982  38.1090140  39.7594476  82.1675968
  37.0919514  38.6663461  82.4159813   3.2185656  24.0269613  59.3006897
   2.5833303  23.3294487  59.4625044   4.0330225  23.7031674  59.6854591
 102.3031320  41.4080954  64.2362213 102.7753594  42.1781921  64.5527363
 101.5076508  41.3796806  64.7678518  12.9092991  17.3900557  92.3129749
  12.3994219  17.7452826  91.5849113  13.6139894  18.0244851  92.4439049
  42.7786350  17.7514863  92.8531837  42.2400379  18.0683994  92.1281242
  42.7545357  18.4595990  93.4967899  88.3763422  54.6412946  11.8527717
  87.5348104  54.2292458  11.6571254  89.0095581  54.1552890  11.3245028
  78.4356941  71.4702635  27.7134913  78.5435117  71.0920553  28.5861701
  77.5054349  71.6894989  27.6607245  95.3413452  89.6019673  84.0771198
  95.4657257  90.4096174  84.5755768  96.0338927  89.6191167  83.4165764
  13.8264990   1.0835517  75.7151794  13.3847010   1.6878153  75.1185942
  14.4901574   0.6554186  75.1743555  50.9837295  86.9335704   7.7238959
  50.3822948  86.2081842   7.5556010  51.1526717  87.3099451   6.8601626
 103.2083083  94.0410172  91.9728756 103.7186957  94.8498034  91.9328594
 102.2994257  94.3265020  91.8798161  13.1530356  31.8279028  81.8600368
  13.2970285  31.7042780  82.7982330  12.8794003  32.7414846  81.7780495
 116.0474027  31.8485212  62.3192310 116.0093017  31.6561127  63.2561207
 116.7852470  31.3301778  61.9980812 100.3172708 103.6246287  70.8703279
  99.7047497 104.2553227  70.4918098 100.5895282 103.0815779  70.1305914
  38.8999724  19.3329525  71.0863686  39.2744803  19.8805070  71.7764139
  37.9978776  19.6409726  70.9993076  92.0464195  65.5081444  21.8893832
  92.6266779  64.7470914  21.8713397  91.6560997  65.4910700  22.7632255
  22.9160309  11.4692914  77.1044636  22.6017737  10.5797434  77.2662592
  22.8976488  11.8898737  77.9641151  55.7896961  46.9901519   4.5159739
  56.5798808  47.0969485   5.0455302  55.7137431  47.8117161   4.0306968
  91.7497982  78.5180454   8.0250091  92.3127044  79.1213899   8.5101241
  92.1598114  78.4487419   7.1628493  40.2200651  16.0424089  68.5830688
  40.1848984  15.8950031  69.5281935  40.5572367  16.9336212  68.4920406
  80.7838930  32.6342397  10.5163974  80.0843347  32.0197754  10.7383937
  80.4232134  33.1600432   9.8024768  81.0165657  70.2266960   0.9250468
  80.6549228  69.5631032   0.3376025  80.4180444  70.2371471   1.6719741
  39.5650220   2.4164934  87.2037506  39.8029780   2.1280575  86.3226128
  38.9920974   3.1701767  87.0625019  55.2558088  20.9838438  77.4265146
  55.6079578  20.7696319  76.5626049  54.3059397  20.9564900  77.3114872
  29.6361637  13.9098179  75.4832745  30.5354095  13.6500561  75.6835556
  29.1739202  13.8359475  76.3182068   6.7311358  26.6717410  80.6440353
   7.2872061  27.3604870  81.0082436   7.1035427  25.8582616  80.9843254
  84.7341765 108.4279034  92.7889061  84.8844261 108.3005526  93.7256241
  85.5737729 108.2164577  92.3807335  93.1819500  86.4012294  28.3480948
  94.0138258  86.7870741  28.6225718  92.5319494  87.0804696  28.5279864
  70.9722055  40.3420942  14.5176143  70.0874509  40.4895012  14.1833800
  71.3429154  41.2198143  14.6093387  15.9662663 104.3701416  54.9584675
  16.1988341 104.4644111  54.0347481  16.2052141 105.2091407  55.3524399
  70.7459725  70.2603691  18.8834971  70.5219377  71.0980933  19.2887801
  71.0816182  69.7276585  19.6044559  16.4517415  21.0670447  72.1131897
  15.9979868  20.6735635  72.8585148  16.7939162  20.3213096  71.6202116
  71.0262585   4.8943356  78.3052683  71.7829752   5.0484127  78.8708401
  70.9055376   3.9448941  78.3200836  96.3121284  66.9382637   6.1365622
  97.2489704  67.1251540   6.1967582  96.2025894  66.1101155   6.6039008
 102.9707063  22.5250893   9.1882915 102.4090255  23.1456714   9.6526546
 103.3730138  23.0420356   8.4903354  64.5858431  39.5222020  83.0596066
  65.1671553  40.2565861  82.8621674  64.3517971  39.1649699  82.2029686
  53.2138872  14.0118706  93.5463047  53.9308500  14.6217608  93.3724308
  52.8063631  13.8713908  92.6916504  20.8661628  19.5301139  87.6822090
  21.4539027  19.0712118  87.0820427  20.4469681  20.1997089  87.1416950
  85.8038248  53.5946639   0.3458899  85.5897011  54.4514587  -0.0232774
  86.0031570  53.7729105   1.2649840  45.9255457  25.9718370  90.4561138
  45.2529860  25.3979659  90.0892735  45.6346893  26.8557119  90.2316189
  36.5332198  28.0014777  70.7431698  36.9686532  28.4969211  70.0495100
  35.6380010  27.8817320  70.4261971  92.4799646  82.6121526  13.7903136
  92.6391329  83.5378413  13.6059302  93.3433975  82.2586207  14.0041751
 100.1303459 104.8351943  52.8390121 100.3086210 105.2705520  53.6726284
  99.6573378 105.4887202  52.3238468  77.6264299  58.7523501   8.4450358
  78.4132756  58.4499483   8.8985366  77.2375597  57.9560469   8.0832213
  21.6505753  97.9449200  71.4703083  22.4497114  98.4548854  71.3378286
  21.5772330  97.4057185  70.6828356  81.4173330 101.5652328  11.4615649
  81.6444553 102.4440389  11.1576861  80.5566324 101.3945346  11.0790938
  72.8555812  68.5317616   9.3063373  73.5114731  69.2054646   9.4856853
  73.0702199  68.2161777   8.4285182  31.0503316  30.3130198  74.4364882
  30.2921700  29.7396946  74.5492792  30.7500577  31.1697030  74.7400713
  84.2850984  84.2996006   3.9876861  84.4993175  84.6434598   3.1204432
  84.8193325  83.5097198   4.0708178 112.4104976  34.6663713  76.4176130
 112.3123153  34.5246148  75.4760742 111.8181600  34.0303302  76.8186378
  63.7172617  71.7666178  26.4813155  63.6335601  72.0336132  27.3966998
  64.6563615  71.6295092  26.3567180  45.5882837  61.3935177   1.3148898
  45.0644643  60.6836193   1.6862315  46.2625344  61.5630971   1.9728106
  32.2007132  20.9163857  87.2953320  31.9379711  20.6831288  88.1857204
  31.3951015  20.8498573  86.7826939 115.5617461   8.2585883  76.2082958
 114.8448267   7.7047920  76.5174341 115.4262123   8.3201998  75.2627468
  33.1354308  13.3961976  81.6801357  32.8566980  14.1522205  81.1634445
  33.8305736  13.7348366  82.2443390  21.3312936   7.4983114  62.8772593
  20.9150863   7.0782107  63.6299372  22.2271228   7.1610987  62.8798199
 104.9378122  82.3361187  11.5565986 104.0269865  82.4584465  11.8242949
 105.0380958  81.3877087  11.4747733  56.3751936   1.6162682  90.3020859
  56.1086416   0.8351801  90.7869434  55.6596088   2.2375846  90.4367733
  20.1867557  36.3189268  78.2504845  19.5596552  35.6956291  77.8837729
  19.6441174  37.0173955  78.6164284  17.8401266  96.4912128  77.2220945
  18.5208069  97.1163642  76.9729233  17.2871100  96.4166414  76.4443779
 111.9275440  76.0406618   3.7654418 112.7892078  75.9799056   4.1778392
 111.6635956  76.9515543   3.8951987  49.8802185  29.8497438  46.5211439
  49.9573183  29.1021776  45.9283304  50.0184488  29.4793820  47.3928976
  80.8286823   2.5373416  28.4123725  81.4656032   1.8924098  28.1047648
  81.1980690   2.8668599  29.2316359  59.4124020  69.3296282  23.1087512
  58.5640515  68.8907783  23.1715507  60.0281728  68.6303191  22.8896064
  72.2101593  23.3020902  69.2304564  72.0263624  22.9018331  70.0803089
  71.7641306  24.1484022  69.2628193  28.3253741  22.5719833  94.5122814
  27.8362203  23.2424045  94.0353203  27.6516509  22.0372868  94.9323177
  15.7182083  61.4435863  93.7661743  16.4427529  60.8458805  93.9506149
  15.1364003  61.3548279  94.5210552  65.6179465  72.7990704  38.1115645
  65.9527243  73.4958641  37.5470847  66.3750042  72.2354262  38.2709331
  28.0642509  10.0643444  77.3780584  27.9257250   9.4546610  78.1028509
  27.8659511   9.5528978  76.5936279   5.6616211  29.9505472  44.4301891
   5.5557877  29.8839307  45.3791857   5.4918301  29.0655041  44.1075420
  49.4108057   1.8485568  70.7228184  49.5142889   2.7598855  70.9966803
  50.2754784   1.5961002  70.3990364  53.5462189  11.8968570  87.3319721
  53.6987638  12.8414536  87.3584366  53.3142138  11.6664124  88.2315826
  15.3543829  38.5464864  20.3229922  14.7298693  39.2634695  20.2127475
  15.6864428  38.3803050  19.4407481  37.8117466   0.4886276  58.1033468
  37.7133274  -0.3440109  57.6415443  38.6966896   0.7806586  57.8846550
  60.1786375  15.6153131  91.8491459  59.7257233  14.8095620  92.0978642
  60.3028488  16.0846686  92.6740742   3.5579239 100.1912218  75.9388494
   4.1625248 100.0473636  76.6668510   2.9586254  99.4456887  75.9743214
  65.0673402  59.8623379  12.8884238  64.9002255  60.8046548  12.9069442
  64.5502223  59.5418646  12.1494216   3.9417397  97.2381448  57.0041990
   3.8078247  97.0277654  56.0800552   3.0996929  97.0477449  57.4176407
  23.6813450  23.5095334  78.9754009  23.1419683  23.4058356  78.1914711
  23.3490038  22.8495264  79.5838213  30.6443048  16.5456426  89.3320847
  29.8090124  16.3572025  89.7598743  30.4010844  16.9523656  88.5004234
  13.5505092   2.1691105  42.4041843  13.6135137   1.7549284  43.2648325
  13.9309788   3.0386198  42.5283957  78.1998014  12.8107083  79.5936012
  79.0358210  13.2170594  79.3651772  77.5586319  13.2528436  79.0371370
  73.8455642  68.0490665   6.8547267  74.7943391  67.9724603   6.7537993
  73.5267032  67.1474974   6.8131083  47.3983015  84.5291929   2.7100104
  46.4834250  84.4743257   2.4339217  47.8739680  84.0006618   2.0692080
  96.6585732  72.5704955  67.1510220  96.5027893  73.4539484  67.4849033
  96.3107277  71.9928860  67.8304338 101.2496771  72.5425260  21.9170684
 100.6570448  73.2918851  21.8580455 102.1229948  72.9311793  21.9669742
  22.3214078   9.1457897  91.3808155  22.0039320   9.6544856  92.1269131
  22.8543925   8.4537053  91.7721939  32.5280882  56.1146013   0.4163569
  32.6579131  56.0285266  -0.5280858  33.2164342  56.7167738   0.6988448
  57.5619532  51.7124246   8.7238997  56.6067458  51.6820778   8.7776584
  57.7450658  52.4307756   8.1183642  35.1083374  42.0131969  68.2138872
  36.0137701  41.7914200  68.4312344  34.5821953  41.3902855  68.7152719
 114.7073663  69.4406812  20.2507991 114.2157949  69.3724482  19.4322986
 115.2736438  68.6689668  20.2551383  62.7413810  82.1392779   4.8786754
  63.6398829  81.9346170   5.1375884  62.2536195  82.1597295   5.7020205
  58.5778666  15.8295286  87.9086113  58.2772684  14.9525893  87.6701832
  59.3855000  15.9499216  87.4091339  19.9145508  38.6122036  91.3545895
  20.4535723  38.6419845  90.5641460  19.5553303  39.4959736  91.4329624
  73.3491148  82.4366646   2.2579497  72.8089656  81.8160872   2.7471942
  74.0055574  81.8921571   1.8234176  30.9793841 106.2163460  69.9296188
  30.0862490 106.4766508  69.7042656  31.5246569 106.9406282  69.6225023
  46.2073351  16.3219624   6.7143172  45.3103287  16.6062217   6.5388030
  46.1139078  15.6146483   7.3524493  47.6910292 102.2741758  79.6340132
  48.0861937 101.8415462  78.8771057  47.8796278 103.2035815  79.5041418
  73.4735812  92.1089797  16.5405864  73.5214246  93.0259113  16.8111056
  73.9915837  91.6391067  17.1941394  11.9531094 101.3652616  85.2284718
  12.3775708 101.8469923  85.9384060  11.6490637 100.5548828  85.6372166
  37.0052433  14.2295599  73.0023623  37.7741051  13.7881482  73.3632517
  37.3258352  15.0922489  72.7392673  64.6927990  43.1562071  10.8666629
  63.7399830  43.0647199  10.8672351  64.8666919  43.8549750  11.4973182
  67.1151829  14.8028040  76.6851377  67.0109081  13.8548923  76.7677355
  66.5952444  15.0348127  75.9156799  35.5356574  17.0464575  61.6748285
  36.0058117  17.7263272  62.1574926  34.9281645  17.5279915  61.1133099
  43.1875181  27.7302766  62.0244217  42.5896931  28.4526396  61.8319941
  43.8909817  28.1311035  62.5350189 115.0234390 107.7206744  86.1969662
 115.0327707 107.3615750  85.3097248 115.1503921 106.9603475  86.7644310
   1.4045512 104.7376805  88.3588505   2.0912968 104.2116427  88.7686062
   1.6891466 104.8374101  87.4503994  50.5744982  26.3014412  79.6050835
  51.4569998  26.1594081  79.2626572  50.0171804  26.3278890  78.8273096
  87.9278244  81.6972570  10.5320186  87.5810922  80.8079796  10.4599303
  88.7000431  81.6086893  11.0906428  67.7576579  62.2409569   9.7189349
  67.7897252  63.0584435   9.2220229  68.6125625  61.8367873   9.5705623
  35.8033776  32.9725957  94.0218925  36.5333843  32.3937297  93.8022709
  35.6270981  33.4532118  93.2130909  39.1773081  50.7064199  88.3928299
  39.8244190  51.3204527  88.0457783  39.4545102  50.5512619  89.2957783
  53.7932110  28.1901860  80.6041527  53.2228279  28.9504719  80.7175541
  53.2898712  27.5936770  80.0500298  13.6797403  85.5038314  15.5562037
  13.8135408  85.0960307  14.7006244  14.2010187  84.9731688  16.1586207
  78.7365116  82.2640185   2.8892440  79.1653932  83.1197410   2.8949946
  79.3063320  81.7069488   3.4195346  53.5569681  55.6124434   0.1157493
  52.7331794  55.6499321   0.6017512  53.3434786  55.1256547  -0.6803018
  30.3199768   7.5178987  71.1230373  30.1451421   6.6431260  71.4700794
  30.7591128   7.3606116  70.2871847  31.4251041  21.5195179  94.1181564
  31.7518592  20.6795740  93.7957287  31.3700747  21.4067936  95.0671005
  30.4199862  48.3986807  64.1944647  29.8013186  49.0840244  64.4470215
  31.1839175  48.5485315  64.7514057  58.7738323  32.1250558  76.4521980
  59.7125769  32.1161294  76.6390324  58.4437370  31.3170195  76.8450689
 111.3158621  40.7120423  28.8077563 112.2262491  40.6449060  29.0956992
 110.9401573  39.8526912  28.9990443  55.8983517  20.9572220  57.6560926
  56.7708588  21.3034487  57.8434086  56.0277224  20.3734207  56.9086456
  28.6240864  31.2722850  83.3772659  29.5174909  30.9375930  83.2995415
  28.0682421  30.5044889  83.2440090  49.6838951  32.7090955  67.7228069
  50.0435638  33.4236670  68.2484102  49.6110153  33.0737138  66.8407822
  65.7562351  30.7041001  81.3772583  66.6770172  30.4425979  81.3762283
  65.7759142  31.6495228  81.5256500  21.7949377 107.2893249  74.1526747
  21.5194737 107.2930839  73.2359743  21.2210261 106.6486069  74.5726013
  52.5165653  10.4440856  56.3230228  52.2604227   9.6537900  55.8475685
  51.7687941  11.0339665  56.2275696 108.7563003 109.0737491  22.3308391
 108.8378490 108.8061767  23.2462520 108.2334531 108.3823352  21.9248694
  73.9100695  22.9384327  79.3994474  73.4969950  22.1734571  79.7999716
  74.8208666  22.8990817  79.6912193  87.1039261  71.6072779   5.2939242
  87.4079336  70.7711558   4.9407786  87.6369871  72.2643392   4.8463172
   7.7226042  79.1996794  28.1816215   8.6253046  79.4283800  27.9601211
   7.3911261  79.9632626  28.6541575  34.2275190  26.2834263  43.9542675
  33.3501863  26.6205120  44.1356325  34.6504259  26.2425113  44.8120022
  38.8362789  45.8570004  70.2365685  38.4578371  46.1371326  69.4031811
  39.7460723  45.6454277  70.0274086  61.4061451   5.0247878  69.1690540
  62.1621895   4.9567360  69.7521448  61.7810965   5.0137746  68.2884169
  82.6884270  19.6140993  80.6105804  83.2264996  20.3096652  80.9885979
  82.9958534  19.5375609  79.7073317  27.9746615 109.2973657  66.4813185
  27.8784357 110.1017166  66.9912100  28.2883440 108.6497369  67.1125126
  33.2896124  96.6705262  69.2137146  33.7329565  95.9425473  69.6492863
  33.3039414  97.3791241  69.8570776  39.0078389 107.6684850  60.9181595
  39.7237908 107.1286338  60.5831814  38.2383763 107.3756758  60.4298830
  35.1570010  41.3863802  84.9640751  34.8342466  41.5938520  84.0871429
  35.1660466  40.4297495  84.9958515  21.7315674  32.7652287  87.3121166
  21.7477703  31.8085814  87.2839546  22.6539588  33.0208039  87.3018551
  93.8188709 102.0546775   1.7076987  93.6599840 101.1227374   1.5577716
  93.8699115 102.4331813   0.8299941  71.3555098  18.3013642  70.9342241
  71.0278606  17.5681674  70.4133606  70.5939198  18.8684428  71.0552025
  89.1220392  71.1163681  22.3785800  88.2180084  70.8065443  22.4330539
  89.1964925  71.7625825  23.0807799  50.0656509  18.8339019  58.0636787
  50.0466919  18.1000543  57.4493980  50.6434965  18.5414016  58.7684965
  73.3964432  51.6661801  20.2314586  72.4644030  51.8838854  20.2432937
  73.8376225  52.4907868  20.4354590 109.8043659  18.2712370   0.7397288
 109.9985697  17.3655277   0.9809989 108.8779809  18.2616001   0.4990024
  80.8834900  71.9011478  24.3138236  80.5225338  72.7364366  24.6108645
  80.9709371  72.0015519  23.3659286  90.6550087  64.4925176  15.0300426
  90.0830139  64.9878113  15.6163329  90.5990518  63.5907720  15.3462047
  24.8448372  45.7556963  51.9160509  24.7515893  45.0830078  51.2414885
  24.1946316  45.5222511  52.5785923  52.2068787  62.1556711  87.8411007
  51.5785742  61.7129421  88.4115887  52.4455404  61.4958477  87.1900177
 104.1753639  85.0809936  12.6698607 104.9830450  85.4886107  12.3572463
 104.3540014  84.8668342  13.5855311  62.7549601   2.8818306  90.6530285
  62.7935982   3.7720886  90.3034878  62.1407557   2.4252427  90.0781250
  42.3306751  26.8398595  76.6477728  42.1459436  26.0114479  77.0903111
  42.2026968  27.5059509  77.3231792 103.7539304  62.1865408   1.4059085
 103.5694803  62.5631415   0.5454558 104.0165485  61.2847607   1.2213630
  14.8114240   4.3226057  22.4888629  15.3951919   5.0633007  22.3251170
  15.3347051   3.7166553  23.0134887 113.0075802  93.9624028  10.9893531
 113.3640732  93.5963182  10.1799506 112.8594507  94.8866730  10.7893199
  74.6724189  85.2604299  16.2652892  75.0610627  84.8748474  15.4801005
  75.3458489  85.1628904  16.9384974 106.5682220  28.8993931  67.9133224
 106.2342834  28.1029701  68.3261538 107.5064087  28.8922000  68.1029987
  85.5193723  39.4276135  14.6563834  85.1572002  40.2129428  15.0666541
  84.9578108  39.2735903  13.8966769  80.3625454  55.7048612   7.0477981
  80.4154981  56.4125234   7.6901740  80.0729812  56.1335972   6.2424582
  73.9305986  66.3681357   1.9219703  74.4097055  67.1072857   1.5473479
  74.3653859  66.1998491   2.7579516  67.1506548  44.2433119  78.5296679
  67.2592306  43.8453960  79.3934441  67.6552391  43.6811066  77.9418325
 107.3425974  59.2220669   2.4152392 107.4724926  59.9543964   1.8126983
 108.2282699  58.9441531   2.6488799  61.5732479  14.3586087  75.9823990
  61.3110399  14.6060050  75.0956821  60.8309221  14.6118176  76.5311050
  64.2536306   8.9309299  61.7676353  63.5697079   9.4744951  62.1588135
  64.4000721   9.3153942  60.9033585  33.3188378  86.1962199  79.8431349
  34.0732275  86.5995716  80.2725887  32.6339327  86.8635535  79.8856401
  53.3822632  14.0649188  89.6253777  53.1445646  14.5413220  88.8299084
  52.5568342  13.9630330  90.0992107  54.5090199  12.1370101  84.6212292
  53.9325047  12.7982068  84.2382431  54.1991234  12.0417297  85.5218506
  50.2818918  26.6384459  71.7675114  50.5975389  26.9118237  70.9061909
  49.9690485  27.4459386  72.1753311  85.5924129  27.8973675  89.4841671
  85.9437466  27.0259809  89.6671581  84.8540306  27.7392364  88.8959408
  58.7900055   0.6615930   1.4181346  58.7414444   0.1676374   0.5996722
  58.6366642   0.0088697   2.1012706  77.0072269   3.3162174  86.3499355
  77.0430708   2.4126926  86.6639233  77.3309946   3.8379788  87.0842171
  60.0033522  16.3685751  83.3263588  60.4325914  15.8061373  82.6816463
  60.3481436  17.2435641  83.1481838  38.5190797  28.4826946  90.5605698
  39.0973425  28.4198594  91.3207626  37.9233217  29.2015648  90.7715893
  36.9222355  14.0395367  94.7344589  36.7064905  14.1408086  95.6615067
  36.0881615  13.8255012  94.3164349 104.7970880  73.3109097  13.9527148
 103.8912214  73.0564003  14.1283912 105.0077451  72.8874676  13.1205195
   2.8694187  93.0402099  40.8077002   2.7340733  92.2479498  40.2878571
   2.6474224  92.7807628  41.7019272  54.2435551  17.8005731  40.5179119
  54.5165300  17.2109699  39.8150039  53.4503508  17.3991394  40.8727551
  61.1504698  17.4654830  47.4012375  61.7142916  18.2374465  47.4502945
  61.4882565  16.9691646  46.6557169  25.0478888  50.1346350  86.4971542
  25.9120941  49.7282124  86.5619755  24.8135066  50.3445244  87.4011707
  67.0943308  36.8467951  80.9910583  66.4778519  36.3530612  80.4503155
  66.7997932  37.7549028  80.9216690  46.2841797  37.3927546  71.9580603
  45.5508614  37.9989886  71.8534088  45.9466982  36.5526915  71.6472006
  39.3867230  14.7979820  64.2281628  39.0949678  15.4339516  64.8813486
  38.5794854  14.4913816  63.8151312  26.7051983  32.6033664  75.4531097
  26.3389874  32.9323196  76.2740326  26.2098837  31.8043160  75.2730703
  99.1088928  86.2001996   4.2820281  98.4697021  85.8409934   3.6666888
  98.6452450  86.2298517   5.1189155  65.6407738  38.5957384  85.4914188
  65.3886509  39.0179610  84.6702003  66.4365387  39.0538549  85.7618237
 114.1878999  80.0935798  39.9370593 114.4110025  79.2828779  40.3944701
 113.9912094  80.7168298  40.6364173  52.3427343 108.2673935   0.8371467
  53.2602596 108.2847647   1.1093158  52.3473644 107.7858118   0.0099296
  90.5608238  98.8663201   4.2230243  90.0696720  98.4813981   3.4971827
  90.0632728  98.6240535   5.0040359 102.0593895  95.3385167  16.2351722
 102.7354301  96.0160499  16.2231273 101.9082893  95.1345019  15.3122443
  62.6440716  35.4981971  81.7831421  62.3515224  34.5959973  81.6539764
  62.0313978  35.8592486  82.4238491  27.5828158  94.6523487  71.3320732
  26.9126784  93.9795577  71.2116575  28.1159245  94.3318879  72.0596266
  78.2719721  97.0460992   9.7737330  77.5000299  97.4608092  10.1588935
  78.1310118  97.1083121   8.8290137  53.0730629  28.9375949  88.5848331
  52.3497057  28.3622622  88.8337898  53.3721781  28.5954642  87.7423954
  37.7578640  39.6692467  61.4894485  37.5972438  39.7143388  62.4319983
  37.1138453  39.0389705  61.1666203  76.0360969  74.6903925   6.4369410
  75.8080853  75.5226426   6.8511886  76.2549604  74.9239020   5.5348319
  92.9620899  89.0529828  12.3984164  92.9627622  89.3571191  11.4908236
  93.6152614  88.3535199  12.4171180  86.3178505  67.1172254  17.0065421
  87.1975578  67.4705427  16.8742198  85.7365335  67.8659956  16.8737048
  42.2705698  47.6871443  86.0336113  41.8712521  47.2035503  86.7567348
  42.9625177  48.2050228  86.4449978  70.3183222  10.0719476  58.9846802
  70.4108191   9.3416464  59.5965099  69.3765211  10.2399886  58.9529324
  72.3520756  45.1088095  85.0934124  72.5889635  46.0221529  84.9324226
  73.1840134  44.6364594  85.0618744 108.2689489  95.5751042   3.1216735
 108.1710590  95.4293351   2.1807212 108.9904417  95.0011878   3.3791656
  57.3911810  27.9779387  83.7511826  57.1830177  28.8090801  84.1779232
  58.1970692  28.1533670  83.2653809  47.3418140  17.8457105  81.9864750
  47.6610374  18.0716205  82.8601456  46.5998268  17.2624147  82.1460056
  15.7287108 102.5582098  70.1409245  16.4034640 102.7182036  69.4811201
  15.1677023 101.8872290  69.7519636  41.3424206  39.0669918  94.8234367
  41.7471266  39.9125862  95.0168705  41.7636156  38.7795877  94.0133572
  15.0001084 108.4212720  88.8355637  14.6888863 108.9012250  88.0680847
  15.8980023 108.7279300  88.9619541  44.3984270  32.6782513  78.5699272
  43.8581181  31.9521284  78.2584047  43.7856865  33.2532501  79.0283537
  44.2679262  45.5229855  93.2618427  43.5333443  45.5296278  92.6481819
  43.8960314  45.1861095  94.0769768  36.5009570  67.0831728  83.0981255
  36.9146466  67.4951506  83.8566589  35.6074142  67.4264097  83.0967808
  71.7979050  16.0056484  55.6839991  72.6203966  15.5636573  55.4733133
  71.5148926  16.3926136  54.8555088  40.4898787  57.2678089  91.2765121
  40.4193068  57.9876471  90.6495476  39.5876718  57.0954704  91.5458584
  35.7575488  18.2382429  93.9849949  35.8211088  17.3396504  93.6613846
  36.1586285  18.2089269  94.8536205  51.6293764  31.4609456  88.0337524
  51.7815208  31.4152288  87.0898247  52.1037960  30.7095408  88.3894920
  78.6001968  30.8802652  91.7105198  78.4257221  30.4084873  90.8961391
  78.4069729  31.7946649  91.5037155   8.9139807   7.2438192  78.0070782
   8.1774533   6.7582607  77.6356030   9.0904045   7.9359090  77.3698044
  64.4469203  97.6177363   2.7435988  64.6609892  97.3194556   1.8596095
  64.3695987  98.5684352   2.6634330  45.4497337  28.5516691  63.1678915
  46.4017248  28.6480832  63.1932640  45.2741528  27.7697396  63.6913347
  94.3683351  57.0453666  27.8871650  93.6350025  57.3967454  28.3921260
  94.8343242  56.4800902  28.5032386  53.0590725  15.7746875  53.7356806
  53.4306955  16.1049330  52.9177189  52.3731136  16.4040375  53.9584112
  70.0037479  18.3444893  60.5768394  70.8830166  18.2029653  60.2260017
  69.9725103  19.2805541  60.7744217  47.2215319  31.2863445  93.0506611
  46.5793133  30.7242990  93.4841347  46.8752861  31.4080787  92.1666241
 115.3399826 107.7974149  56.5540886 114.6161438 107.3993731  57.0376730
 116.1273671 107.4362546  56.9613028  48.2532454   3.0403098  92.8025150
  47.9119062   2.4768111  93.4969139  48.0575180   3.9295530  93.0977631
  44.0543985   1.1067905  83.0558681  43.3859491   0.4671552  82.8103638
  44.8418093   0.5841029  83.2075882  51.2782001  26.8071532  88.4374142
  51.4345074  26.1331797  87.7759266  50.4211140  26.5891266  88.8036156
  63.1041516  52.8053054   8.3830279  63.1194414  53.1504213   7.4903316
  63.9155735  53.1251507   8.7773913  39.3491197  43.9840078  52.1006584
  40.1668978  44.4765377  52.1705437  39.3763709  43.3692503  52.8338480
  77.7186884  76.8484335  16.9908256  76.8897475  76.4308481  17.2247237
  77.5067629  77.3938041  16.2332648  79.9976648  61.7047833  17.5839061
  80.1595558  61.7424242  18.5265655  80.2896560  60.8306097  17.3254603
  51.4914656  41.3644695  52.9708529  51.9895172  41.1236715  52.1897078
  52.1161032  41.2740088  53.6904907  41.4060116  21.9961786  87.8555679
  40.7366276  21.3476682  87.6374054  40.9758997  22.5850606  88.4756184
  51.4731884  51.6233158  88.8945866  52.2167206  51.7413902  88.3034420
  51.7950106  51.0232735  89.5673466  70.3798450  59.2623739  13.3230132
  71.0460986  59.4548686  12.6632518  70.5581201  58.3597891  13.5871905
  93.1749977  74.8599248  15.0443953  93.2006849  74.8553996  14.0875453
  93.6103834  74.0465527  15.2995318  32.1231794  30.5234241  64.0941238
  31.6591549  29.7965932  63.6786366  32.9699278  30.1545644  64.3455029
  82.2552586  25.7917714  83.7563229  81.7056465  26.4262199  84.2163658
  82.0053959  24.9452996  84.1268539   1.5449118  93.3713298   9.0331382
   2.0695137  93.0269556   8.3103389   1.7848562  94.2965918   9.0836257
  55.7358313  12.0682442  93.4176350  54.8175526  12.0884705  93.1482220
  55.9089231  12.9509580  93.7448788  49.3807840  21.6824961  86.4712334
  48.9860010  20.9255266  86.9040966  48.8621044  21.8008256  85.6754875
  56.0063982  21.7761993  79.9703884  55.9847546  21.5336323  79.0446854
  55.4200697  21.1504650  80.3957176  95.3067316  52.9859428  16.9420547
  95.6966079  53.0101401  17.8159255  94.4246877  53.3373399  17.0634955
  82.8460897  95.6030946  21.3554782  83.3631815  95.7225137  22.1520823
  82.0555271  95.1500707  21.6487617  54.0181255  31.9069099  90.3818607
  53.3412266  31.5119886  90.9314728  54.2719698  31.2101007  89.7766685
  24.7486162  24.8406219  89.9184418  24.2319632  24.0417814  89.8128414
  24.2635083  25.3561878  90.5627155  25.3467083  14.7361624  88.3816242
  26.1020970  14.3630004  88.8359070  25.6642413  14.9160624  87.4967289
  58.1501293  23.9614725  70.1955080  57.4222422  23.5591221  69.7216702
  57.7574730  24.2883897  71.0049391  52.0703888  28.1041098  83.0974483
  52.8858757  28.3761406  83.5184097  51.8964148  28.7863541  82.4489784
  90.4186548  78.4231715   0.1463241  91.2653984  78.7528233  -0.1546556
  90.6383957  77.7680283   0.8086890  16.0053765  85.2740526  88.1151390
  15.9506880  85.8801865  88.8539505  16.8102824  84.7797035  88.2699871
  49.5587873  22.8229594  93.5225105  50.2917719  23.2955861  93.9169502
  49.3580437  22.1269798  94.1482449  59.0718126  44.2556620  29.0573597
  58.3178377  44.4217014  29.6232057  59.7444010  44.8602104  29.3710089
   3.2564425  89.2867951  36.1440391   2.5365233  88.7531571  36.4804477
   3.0290865  90.1818662  36.3958091  91.9067287  20.5989623  65.6132889
  92.6197433  20.1295710  65.1802540  91.3542080  19.9090946  65.9807539
  72.3617411  44.2706490  88.3053493  71.7466068  44.6991491  87.7101707
  73.0194473  44.9403334  88.4929276  60.1523161  27.6745939  79.3037176
  61.0853004  27.8788328  79.2399740  59.8653650  27.5794673  78.3955097
  74.3545532  40.7790995  92.4365997  73.8141775  40.3357649  91.7826176
  75.1850557  40.9430265  91.9897938  95.0870193  52.4769664  10.8890075
  95.9802068  52.2644003  11.1596698  94.5437540  51.8126755  11.3130588
  42.7215767  27.8463578  91.0707855  42.7746010  26.8945193  90.9846306
  42.0957565  27.9880714  91.7810631  93.5383714  95.7845263   0.0140685
  94.1444553  95.7946925   0.7548827  94.1010774  95.8579354  -0.7567769
  21.6112887 104.0827864  88.2680035  22.5222479 104.2595749  88.5028076
  21.0988890 104.5486783  88.9287758  52.4642897  37.1488714  68.9754200
  52.2247028  36.2605238  69.2393732  52.9912519  37.0300364  68.1852198
  47.7548885   5.1144505  71.4397621  47.7369022   5.9951699  71.8142509
  48.6408997   4.7975916  71.6153097  16.9522023  60.3338861  71.5927792
  17.8959119  60.4473925  71.7057323  16.8482471  60.0949669  70.6717205
  93.4169735  87.3470240   5.7366866  93.4135498  87.0762329   4.8185939
  93.8275064  86.6170435   6.2001723  36.3724828   5.9211242  92.0156479
  36.1381769   6.5413505  91.3252544  36.1039066   6.3528025  92.8266716
  86.7743934  58.0857606  22.1457118  87.0049776  59.0077026  22.0313186
  87.3627723  57.6165398  21.5542144  49.7149229  29.5806479  93.3345699
  49.0388727  29.8887897  92.7310467  49.5857620  28.6330795  93.3753204
  92.7968372  88.7157016  17.3646277  93.7431062  88.5911779  17.2918338
  92.6688923  89.0701942  18.2445067  95.3662885  72.5814717   8.6935157
  95.1085581  71.7295568   9.0457171  94.9218382  72.6352661   7.8474635
 108.1285824  84.1929727   1.4370460 108.3589758  84.9168377   2.0194262
 107.3492635  83.8045101   1.8345183  76.8987703  15.9744632  51.2752867
  76.7444801  16.5712380  50.5429697  76.0498095  15.5600786  51.4295244
  49.2110777   8.4037209  94.6280575  48.2866955   8.3821988  94.8756218
  49.2550039   9.0486324  93.9220905   0.1124821   0.6602928  87.1100044
   1.0492001   0.8558586  87.1333981  -0.2470340   1.1191467  87.8692341
  38.9510345  60.5412912  67.9641342  39.7157884  60.1824999  67.5139666
  38.4361458  60.9533024  67.2703266  73.6255932  29.8057508  82.0309639
  74.2983818  30.4781508  81.9238663  74.1073513  29.0272689  82.3104382
 105.0792576 108.0747873  92.2097015 104.6512819 107.2259390  92.0977783
 106.0152746 107.8774015  92.1759224  15.9777342 103.6097031  92.0586586
  16.3828837 103.2228123  92.8348064  15.0375973 103.4937482  92.1962357
  47.4715376  26.2660408  78.3754301  47.4849319  25.9584999  79.2817831
  46.5635538  26.1486983  78.0960846   8.4860884  86.9905137  76.0540915
   8.2384096  87.5800514  75.3418207   9.3430220  86.6505336  75.7965803
  41.5138626  40.0019550  81.8004417  40.8857059  39.9970818  82.5226784
  40.9904528  40.2199984  81.0292530  42.0340490  10.0739384  80.7514381
  42.9488754   9.8679537  80.5593491  42.0747375  10.8608723  81.2948704
  36.9991446  33.3015466  75.5465269  36.0905051  33.4069037  75.2645588
  37.4940085  33.2133365  74.7319365  70.7240057  11.5203166  83.4756947
  70.8856201  11.4302921  82.5365448  69.8295259  11.2016296  83.5964298
  70.9999132   3.9629254  86.6814232  71.8277931   3.9982030  86.2022591
  71.1742544   4.4347090  87.4958324  55.1492929  33.0875015  86.3263321
  54.3584585  33.1708479  86.8591213  55.6359243  33.8949442  86.4920330
   9.3883967  48.7836133  18.9293021  10.1769327  48.5543190  19.4210929
   9.6988463  49.3683373  18.2379645  96.4288820  89.2044001   5.4438704
  96.8458666  88.3652215   5.6391639  96.3189472  89.6217923   6.2982291
  67.0290565  46.7182970  82.1752167  66.3413525  47.0405531  81.5926075
  67.0887375  47.3800039  82.8642845  48.1660509  31.1352849  72.1716356
  47.4013090  31.1463308  71.5960693  48.0825710  30.3194165  72.6652193
  95.4553760  61.2298768  14.4098681  95.8359541  60.4117100  14.7292346
  95.6416572  61.8662183  15.1002330  44.9742556  45.5291414  65.5445147
  44.8176622  45.9516191  66.3890409  44.9009228  44.5925522  65.7279825
 105.4445232  92.5122600  11.7474669 105.4806007  91.5612082  11.6453189
 106.2294162  92.8309565  11.3018149  58.2350111  28.2923174  92.1991253
  58.6155701  28.9244151  92.8089237  57.8886127  28.8272142  91.4848900
  70.1073742  22.5275064  84.4307423  70.9499693  22.9495478  84.5984936
  69.4758558  23.2468104  84.4264412  47.4794436  44.2096138  85.6958675
  46.8558741  44.8158598  86.0956860  47.9418516  43.8182926  86.4370060
  36.5414119  33.3458233  60.6870699  37.1451139  34.0670872  60.5094242
  35.6716609  33.7407231  60.6252432  32.1082281  76.7717318  11.3010520
  31.2258410  76.7559891  10.9304160  32.1878122  75.9385781  11.7655391
  62.9612827  33.4042430  78.3316422  62.8533554  32.7879500  79.0560484
  62.5420618  32.9738140  77.5865126  96.8413830  35.2566147  90.1510906
  97.1078777  34.6166825  89.4910145  95.9272671  35.4492998  89.9425602
 112.3610462  83.2858639  29.6155852 113.2885421  83.0580621  29.6795577
 111.9005932  82.4612789  29.7713870   4.6197485 105.8465581   3.0139560
   4.0833258 106.3471131   3.6287135   4.8014998 105.0243382   3.4691066
 108.8689340  88.1728153  12.3328608 108.7949051  87.9829078  13.2681102
 109.6307815  88.7483149  12.2648925 109.4055367  82.7692604  66.1351490
 109.3198299  83.6131477  65.6915951 109.3732834  82.9842663  67.0673275
  75.2649498  92.0498562  86.9585514  75.0026894  91.3773441  87.5871849
  75.3238678  91.5867043  86.1229420  76.8186378  97.1978283  62.6163530
  76.1036491  97.6326084  62.1516132  76.6318941  97.3531055  63.5422325
  46.4738357  14.2210966   0.0172538  46.7294109  13.5558181   0.6562537
  47.2022903  14.8420435   0.0136012  58.1353569  70.5195093  80.8303547
  58.2607698  69.6029949  80.5843830  58.0450630  70.9810495  79.9966574
  18.2955145 109.8267369  26.1553687  18.4784864 108.9039617  25.9786052
  18.0785727 109.8536591  27.0872706  24.4520176  32.1595865  24.4915694
  25.1240576  32.0554453  23.8179606  24.2124832  33.0853849  24.4498176
  82.5270653  80.3755665  74.9261475  83.4534740  80.3413773  74.6877623
  82.1351147  80.9634399  74.2803860  96.7481613  76.9456863  51.5210581
  96.3022232  77.1673441  52.3385143  96.0615826  76.9854355  50.8552790
  50.7350338  41.2121683   0.2437991  51.3586796  40.4931741   0.3455276
  49.9553192  40.8018022  -0.1302129  27.9049099  22.8186470  22.4651832
  27.9479158  22.3003631  21.6615886  27.0489443  22.6098829  22.8393096
  83.0387592  66.9434595  80.7147789  82.8048038  66.9610214  81.6427803
  82.8551579  66.0455990  80.4384327  82.1363449  77.3857975  62.8134012
  82.0300102  78.1290531  63.4071159  81.3111687  76.9054222  62.8808355
  13.3980930  19.3861299  13.6608619  12.8627479  20.1742321  13.7532443
  12.7766931  18.7024742  13.4104461  72.3725498  13.9235264  10.8396644
  72.5038231  13.8258749  11.7827815  71.6509617  13.3286863  10.6354255
  58.6079216  97.4990082  94.0331364  58.9891958  98.0720997  94.6982861
  58.6824274  97.9953575  93.2180882 111.2662983  58.3822680  69.2176342
 110.6973839  58.4212351  68.4488297 110.7590389  58.8019276  69.9124765
  54.2573917  33.6920362  13.8642901  55.1594436  33.8558012  13.5891456
  54.1490257  34.2190462  14.6559638 113.8501896  95.1356082  41.6700191
 113.6590542  94.7755103  40.8039779 114.7667183  94.9084763  41.8268985
  80.4985523  78.5875130  52.8591681  80.0640011  78.8517046  52.0482445
  81.4151955  78.4667540  52.6113319  91.4247036  46.5353823  90.1522064
  91.4734745  45.5968523  90.3339195  90.4915524  46.7416286  90.2062511
  86.5244198  57.4296093  93.5967350  86.4060879  57.8643751  94.4412518
  86.2098312  58.0652809  92.9539299  52.0611179  14.9644714   7.1974296
  52.8404129  14.4086605   7.1996993  52.4008453  15.8536869   7.2979945
  30.0006556   8.8211394  61.8840265  29.3259882   9.3100882  61.4128733
  30.1175856   8.0206252  61.3724327  69.3843555  76.2680483  90.8499718
  68.4937763  76.1599302  90.5161953  69.5102787  77.2159195  90.8938122
  27.4247921  21.2620884   0.8592242  27.7489507  21.5432506   1.7148513
  27.0991600  20.3741031   1.0064429  53.6425579  17.4759679  28.3389300
  53.3660686  18.3894878  28.2663650  53.1984985  17.0331579  27.6157588
  15.3455723  11.4066415  11.3515681  14.8120535  11.3782840  10.5573482
  15.5817497  12.3291546  11.4486426  76.7107630  68.5850859  28.5590267
  76.3136053  67.7618599  28.8432908  76.4801264  69.2116785  29.2448997
  62.6906860  13.1568199  29.2348880  61.8651283  13.4083372  29.6489352
  63.1055630  12.5685125  29.8657531  23.1753671  28.2182604  17.5206202
  23.6032427  28.3248239  16.6710299  23.5498083  27.4131113  17.8780574
 104.9887276  31.4340925  57.8812599 105.4533005  31.5652466  57.0546961
 104.0629864  31.4314485  57.6378870 107.8637505  23.9205718  29.9630189
 106.9267273  24.0463257  30.1127195 108.0796814  24.5381761  29.2643261
 106.9435215  73.0027008  67.2598028 107.5638485  72.6380444  67.8910303
 107.2818279  72.7303600  66.4068079  74.4863367  81.6174889  72.3814392
  75.2302933  81.2788868  71.8833399  73.8259506  81.8188953  71.7184448
  54.7343719  35.4874044  16.0724181  55.6686294  35.5532175  15.8747691
  54.6720302  35.6913286  17.0055694 107.6376152 105.6783199  87.9341984
 108.0298615 106.5309334  87.7459908 106.8256569 105.6710911  87.4273396
 102.3062134  77.0219231  56.1461067 101.9135475  76.1662817  55.9731293
 102.4633598  77.0268631  57.0903063 100.8519077  39.1588974  53.3498812
 101.4996529  38.9341378  52.6819420 101.1018562  38.6357927  54.1115379
  42.6820076  16.1939865  12.4062556  41.9670093  16.1502796  13.0411548
  42.3749340  16.8107896  11.7418021  80.0002289  77.4056673  91.4511013
  80.2631950  78.2585382  91.7970657  79.8775434  76.8596745  92.2276783
  56.7806709   3.0386787  32.1185988  57.5432766   3.5730129  31.8968982
  57.1328438   2.1567255  32.2384566   2.8023491  58.8060379  46.5054131
   3.7484322  58.7347698  46.3785601   2.6870594  58.8010740  47.4556303
  40.2343452   5.3764015  38.3085078  39.7051275   6.1571508  38.4715766
  41.0880840   5.7171922  38.0416316   2.3100256  86.4746671  14.8137969
   2.0324730  85.6290417  14.4615001   1.7224907  87.1094351  14.4037932
  63.1877792  31.1390310  22.7021045  63.7511719  30.6278234  23.2830447
  62.3197830  31.0853582  23.1020183  26.7039144  26.5398412  13.8550586
  26.6620434  25.7303816  13.3458919  26.9027078  27.2185331  13.2100123
  76.7232704  62.6098871  66.1889315  77.3616648  61.9162178  66.3547802
  76.3241196  62.7771711  67.0427036  35.6141066  95.2045016   2.7053565
  34.6980070  94.9302249   2.7473182  35.7203077  95.5500751   1.8190593
  68.2839668  13.1165510  21.1479873  67.7772415  12.4977785  21.6739005
  67.6488388  13.4855133  20.5342120  75.9419107  79.7272396  76.9044447
  75.2222824  79.1425943  76.6666126  76.5746546  79.6300316  76.1928177
 103.8304329  70.5433989  63.6984539 104.0871906  69.7237253  63.2760286
 104.0859795  71.2240267  63.0758190 103.6125565  59.3143129  73.3532953
 103.2037067  59.6682644  72.5634861 103.0243778  58.6131954  73.6338425
  30.2464447  68.9092064  79.6490669  30.7967625  69.4706583  79.1030264
  30.2877388  68.0506849  79.2277956 104.8461533  89.1528702  92.6392651
 104.8950768  90.0931644  92.8115845 104.3539333  88.7989235  93.3799934
  82.8417206  82.0717621  82.4503231  82.2153664  81.3523960  82.3702621
  83.5613632  81.8286896  81.8678570  95.7184887  49.8455858  89.2437363
  95.1798725  49.1573191  88.8533211  95.2259827  50.6517029  89.0892982
   3.9371479  30.5162531   0.9626502   4.7700632  30.6781679   0.5196303
   4.1821325  30.3049379   1.8635100  46.9644439   1.7803531  29.4940871
  47.5253570   1.2390857  30.0496310  46.2764061   1.1852413  29.1962832
  68.9288282  89.6351147  81.2141991  68.9469004  88.6817646  81.1303234
  69.8458672  89.8825455  81.3327122  35.6055105  17.2222000   2.5000972
  35.9435785  18.0085045   2.0715255  34.7459638  17.0834356   2.1024055
  76.7820883  74.3653488  59.7267866  77.5415707  74.9398994  59.8232651
  77.1143103  73.6081362  59.2446136  36.9467533   5.3310495   4.7927398
  37.2936189   6.1882692   5.0399035  36.1917055   5.5288749   4.2386741
  65.6534863  82.0816898  72.0036840  65.4832029  82.6907635  72.7222061
  66.5062237  81.6993618  72.2107887   8.4859789  17.5647360  24.1556090
   7.7871883  16.9506794  24.3811339   8.5821998  17.4801927  23.2070083
  97.1080303  69.9029970  93.4897709  96.6432476  69.0695000  93.5638905
  96.7069626  70.4609537  94.1561508  74.6246338  67.3513460  85.9652519
  74.6106958  66.6665411  86.6338921  73.9947987  68.0019236  86.2755585
  48.6204100  64.5080423  87.1048164  48.6405325  63.5539436  87.0305538
  47.6893187  64.7297001  87.0919037  61.7660034  32.7210718   6.5523738
  62.6485050  32.6029497   6.9037646  61.4994324  31.8446546   6.2747973
  76.1977339  47.7004480  34.4142389  76.3672495  48.4930706  34.9233961
  76.9308090  47.1210384  34.6218824  71.8153715  76.6309595  77.0820236
  71.1490059  77.3019218  77.2303486  71.3615179  75.9475470  76.5888691
  47.6360882  19.5269828   4.7858256  48.3418548  18.8928800   4.6591491
  46.9782055  19.0544134   5.2958220  31.1349046   1.8624120  18.0932158
  31.8796432   1.2648922  18.0256385  30.4949272   1.3883882  18.6242217
  84.9304390  72.9609203  72.5333834  84.8720646  73.8956785  72.3357582
  84.5337868  72.5307369  71.7758608  30.6958664   1.5458828  29.6343440
  31.5730608   1.2050920  29.4593638  30.1134527   0.9792572  29.1284198
  60.0839889  30.1897054  20.7903785  59.3163574  30.1315885  20.2215117
  60.5168045  31.0016256  20.5263823  15.3845190 104.1862063  16.4482612
  16.0824560 103.9705615  17.0668143  15.8343672 104.3064790  15.6119651
  55.4046822  78.0785275  93.2971859  55.4009295  77.9089165  92.3551464
  55.3890085  79.0329170  93.3687782  10.9205793 104.7965293  19.6289176
  11.0182547 105.7432895  19.7306079  11.6664576 104.5354419  19.0887851
  98.5572147  60.2829123  58.2204485  99.1905212  59.9594545  57.5797224
  97.7530861  60.4129934  57.7177763  17.8639578  86.7121367  19.3480414
  18.4232306  86.5381532  20.1051253  18.3083128  86.2811809  18.6179370
  80.3320980  65.9044743  80.4680824  79.7243261  65.5764580  79.8053169
  81.1251068  65.3827238  80.3450108  42.0944965  50.3897005   5.3391189
  41.8900860  50.7864576   4.4923324  42.5677765  49.5871835   5.1195926
  76.9687927  51.1273103  20.4272002  77.3002136  51.8043810  21.0170859
  77.4747455  50.3461557  20.6509036   8.4873747 103.0070786  42.4719733
   7.7979921 102.4148898  42.7724761   8.7894796 102.6245074  41.6482085
  60.6077528  74.9922037  54.6136045  60.9287405  74.3676233  55.2640629
  59.8778391  74.5416927  54.1887569  23.4691990   5.1837640  14.5106048
  24.3489445   5.1649290  14.8873347  23.4066284   6.0418468  14.0910644
  81.2327766  77.4335575  88.9949799  80.8701897  77.4675035  89.8801899
  80.5817223  76.9485331  88.4879112  77.6982927  93.6169720  87.0938587
  76.7838335  93.3525753  87.1943092  77.6554680  94.5457554  86.8663597
  27.5370491  21.6785055  13.7091083  26.9830168  21.9997030  14.4205207
  28.3359325  21.3800150  14.1437644  72.9564047  85.4317284  83.1316566
  73.1507063  85.2373981  82.2147465  73.6419821  86.0447311  83.3970547
   0.1984558  80.9115219  44.2213106   0.5575524  80.4535389  43.4613562
   0.4882870  81.8174553  44.1139793  57.3493528  71.1864948  78.4468412
  57.1525478  71.8120432  77.7495718  57.0979214  70.3369665  78.0844593
 113.4224129  98.8363743  89.2047501 112.8880692  99.5836735  89.4735527
 112.9371071  98.0714035  89.5138359  93.7358952  74.0289974  61.2834787
  92.9871750  73.6432266  61.7382574  94.1994953  74.5217657  61.9605970
  58.0864227  26.8099123  13.7031192  58.4290779  26.6419893  14.5809669
  58.3905590  26.0674005  13.1811923  71.4765882  87.4306488  70.5419493
  72.3126650  87.3696041  71.0039854  70.8371782  87.6220131  71.2280798
  91.3333702  84.2643261  65.1985216  91.7186165  83.4769154  64.8140717
  92.0851612  84.7878551  65.4759455   1.8335305  53.3878231  89.6852875
   2.3970185  53.2127666  90.4389858   1.9940815  52.6549482  89.0908527
  50.9043110  23.3140283  21.2715167  51.4121139  24.0731769  21.5579909
  50.1637829  23.6876589  20.7937640 101.1416531  73.5772753  56.9641018
 101.4456081  73.6745262  57.8665352 100.4643345  74.2464972  56.8660688
  92.2143555  91.5960312  94.2411423  92.7792740  91.8646526  94.9656677
  92.2123718  92.3471355  93.6477852  89.3996525  58.6665869  72.8179693
  89.9772549  59.1587639  72.2345638  89.9683285  58.3809423  73.5329819
  36.0040272  16.4354520   5.6134337  36.8120373  16.8808513   5.3585547
  35.4525984  16.4738756   4.8319739  48.1736076   5.5426889   3.0420894
  48.7436950   4.8493915   3.3745975  48.4566772   6.3295417   3.5078830
  38.7778270  26.5494447   4.9179954  39.0491426  25.9263712   5.5920905
  38.0333460  27.0108896   5.3040713  65.5963659  92.2475529  87.0895290
  65.9058523  91.3736820  87.3278522  65.1139545  92.1164417  86.2732410
  91.2921715  63.8387012  71.3323259  91.4003181  63.7767649  70.3832722
  90.3742981  63.6134624  71.4839935  47.4445904  61.7927938  11.6137904
  47.0511329  62.2380930  10.8633727  48.3170688  61.5400892  11.3118857
 107.0059885 102.5525193  27.3593730 107.9106916 102.5837331  27.6704616
 106.9396509 101.7157655  26.8992824  72.3869133  78.9414024  62.3851061
  71.5797806  79.2951202  62.7588034  72.1361208  78.0838823  62.0416069
  84.5498276  98.2336235  87.1555805  85.2536106  98.0130100  86.5454483
  84.9904156  98.6820602  87.8773975  42.0295382 101.5849590  85.4083157
  41.9914246 101.4404678  86.3537788  41.3553715 102.2430992  85.2392292
  71.3845051  17.2267633   0.6314200  70.9644878  17.0394712  -0.2080613
  72.1412170  16.6411119   0.6565780  29.2108763  46.1152082   0.7231349
  29.7702635  45.7277399   1.3963336  29.4823826  47.0322900   0.6848163
  88.1244850  52.6737928  54.9508619  87.4060917  52.2630310  55.4319239
  87.7828598  52.7912855  54.0644503  36.1869276  20.3297096  11.7264766
  36.3776911  20.1834636  12.6529998  35.2577818  20.5588823  11.7065066
  78.4318531  23.0527645  13.3651465  78.3447731  22.1001964  13.4006995
  78.8576591  23.2853180  14.1902751  68.7605762  80.7732296  80.1903629
  68.6947250  79.8232889  80.2878284  69.6765947  80.9710693  80.3852940
  76.1093569  80.1852322  66.1296368  76.0715055  81.1250401  65.9519911
  76.8173313  80.0902367  66.7668056 113.8346863  61.0949326  83.5941601
 113.2914543  60.5050755  83.0714893 114.7211742  60.7445955  83.5067940
  91.4185143  79.5335484  67.2475672  90.4870129  79.6303701  67.4454880
  91.4781857  79.6719837  66.3023138  82.3661804  94.8590183  74.2132187
  82.2205448  95.5676651  74.8399925  82.7719593  94.1624355  74.7293043
  92.9814148  67.8628635  58.9771843  93.0733109  67.0471811  58.4847832
  93.4615517  67.7070761  59.7904634  76.6984034  95.7917118  90.4641438
  77.3376560  95.1078796  90.6640816  76.5665340  95.7271576  89.5182800
  66.8628586  24.2604595  32.7398604  67.2866047  24.4977050  33.5647220
  66.5725982  23.3577543  32.8706664  43.6193073  11.7784553  28.1651324
  43.1621731  11.3940387  28.9131183  43.6669147  11.0697513  27.5234908
  74.8288918  75.3221416  61.4388561  74.1968489  75.4909086  60.7400942
  75.6156111  75.0228691  60.9830666  83.1012058 107.3657990  68.5461617
  83.4007168 106.6758347  67.9541636  83.8924503 107.8623009  68.7550831
  32.0390642  36.7163568  12.5763434  31.7731226  35.9551721  13.0921859
  31.9303978  36.4390283  11.6666621 112.3387432  92.6115990  94.2993546
 111.6123676  92.9582214  93.7812233 113.0598927  92.5287437  93.6754036
  49.0564335   9.1414028   5.1462668  49.8306167   8.7316662   5.5322474
  48.4868801   9.3278747   5.8926410  97.7995205  39.6016264  57.1779156
  97.6559067  40.4289770  57.6373672  96.9436455  39.3795347  56.8113279
 104.5262432  56.3112736  85.6296158 104.8799229  55.5788708  85.1249123
 103.8093758  55.9292126  86.1359406  76.5954685  64.7229528  82.5227261
  76.4721775  65.0405550  81.6282082  75.7421350  64.3668509  82.7701950
   7.2794317   1.5301944  88.4393215   8.1145643   1.2139655  88.7839794
   7.1662592   1.0575247  87.6146889  97.8426933  51.9171333  64.7875547
  97.6688480  51.4056683  65.5777550  98.6647797  52.3713207  64.9722672
  88.0267811  71.2253332  83.1115627  87.1964455  71.2879562  82.6395035
  88.6873436  71.1403799  82.4240494  94.5630550  95.5932426  86.5847301
  94.4512653  96.4493752  86.9979668  95.3433514  95.6907749  86.0389709
  75.7215548  77.5356054  83.7845993  75.4856682  77.9236460  82.9419708
  76.4735460  76.9766855  83.5887718 101.4896393  49.4552422  64.0561390
 101.2190247  48.5469103  63.9222240 101.1087608  49.9300289  63.3173943
  79.1781425  70.1516533  88.3700657  79.5442200  70.8757210  87.8621864
  79.0449905  69.4529963  87.7294540  69.1112328  82.4894238  73.7964201
  68.2137108  82.5253773  74.1271639  69.5185804  81.7750645  74.2862988
  61.1186695  89.4894123  90.8164024  61.2160063  89.9420643  89.9786282
  60.8946133  90.1818371  91.4381504  87.8612900  77.3852634  32.3012996
  88.4026051  77.2339249  33.0760956  87.6350784  76.5080738  31.9921041
  65.4417372 108.8581848  45.3873634  64.5177650 109.0550709  45.2332830
  65.8996344 109.2684650  44.6537209  86.1925507  82.9709625  40.8906364
  86.6818333  83.6132717  41.4047146  86.4365101  83.1543255  39.9833870
  56.4568520  82.1916389  65.6468296  56.1370468  81.2917614  65.7115364
  56.0050774  82.5520897  64.8838091  67.1283520  23.8683325  20.7646388
  66.6211117  24.6167951  21.0788745  66.4794338  23.2913309  20.3618926
 105.3720379  64.5161390  90.6879330 104.8880100  65.1977539  91.1541367
 104.8415279  63.7271690  90.7988834  82.9828548  66.4129019  71.3758659
  82.8367996  67.0798683  72.0467234  83.3048916  65.6526184  71.8601084
  69.0793026   0.4665332  24.7821731  69.6847236   0.9910112  24.2581290
  68.2862938   0.4119497  24.2488879  62.0358360  21.4593082   9.2609328
  61.3893402  20.9420019   8.7806529  61.6367901  22.3255401   9.3424243
  61.0139418  92.9758263  75.9359407  60.9025812  93.2612610  75.0291014
  60.8944130  93.7718010  76.4539719  48.2423294  32.0050722  17.8391189
  47.7315700  32.8042322  17.7099246  48.2212627  31.5671735  16.9882125
 111.6149426  79.8943138  87.7145672 110.6821156  80.0645447  87.5838566
 112.0561123  80.5785847  87.2112083  79.7913647  76.3550901  61.2562275
  79.7344732  77.3086882  61.1958122  79.6879292  76.0513687  60.3544044
  69.2229128  72.2498417  74.2459488  69.5381165  71.4162779  73.8965940
  69.0250397  72.0652485  75.1641035 109.3387413  40.5728626  67.5164986
 109.3120861  40.6209183  66.5608788 110.0948811  41.1059189  67.7621222
  25.7467497  21.9910389   5.9290236  26.2754190  21.3341909   5.4759330
  26.3867080  22.5610881   6.3553161 113.0050182  67.5980997  86.3420010
 112.5619316  68.0398226  85.6175804 112.7478600  68.0949163  87.1187115
   9.7587179  90.3113418  13.8662738   9.3441080  89.5438199  13.4722823
  10.4604124  89.9522262  14.4093245  94.0902328 100.1766968  74.6503830
  93.3448982 100.7291794  74.8859072  94.8152637 100.5161762  75.1750851
  73.6956501  69.3585205  71.6084337  74.0527058  69.8497581  72.3483181
  72.8094673  69.1226768  71.8828154  68.0070579  35.7099920  10.3906173
  68.4051025  34.9411970   9.9822730  68.7496174  36.2251478  10.7059974
  80.9788132  90.8061409  83.5530663  80.4320812  91.5392685  83.8356400
  81.6939068  91.2147331  83.0652905  29.5199383  29.9975687  22.5789184
  29.1082847  30.6174284  23.1810397  28.8148678  29.3989759  22.3323459
  41.3594902  27.9951864  27.5557155  41.6521919  28.9054208  27.5105399
  40.8813751  27.8564935  26.7381495  88.7597084  87.8844738  92.7598095
  89.6518707  87.6288795  92.9942417  88.6327362  87.5308037  91.8794632
  84.6955872  91.9116974  78.4537601  83.9058590  91.6394615  78.9211369
  84.8166943  91.2438297  77.7788448  53.6978960  79.7954082  73.0614519
  54.5023918  79.2912388  73.1832123  53.5667896  80.2428341  73.8974285
  91.1801147  47.3604441  53.7515020  91.8038654  47.4297523  53.0287552
  91.0493183  48.2629490  54.0423775 100.8644962  79.2743397  67.8995371
 100.9255314  79.5757103  66.9930696 100.0877571  79.7134113  68.2461262
 106.7447758  55.3263950  82.6111507 106.2167931  55.1691389  83.3939266
 107.3136139  54.5591593  82.5478172  87.5635719  99.9599266  90.9174347
  87.2646904  99.7120762  91.7923450  86.7999649  99.8248672  90.3562832
 111.2584782  71.7987633  78.6550760 111.8646908  71.3661098  79.2563629
 110.3997803  71.4427042  78.8833284  47.0784652  38.1463342  28.2150954
  46.9384277  38.9317613  27.6862067  46.4650142  37.5043588  27.8576201
  92.3626137  43.3294773  40.6821871  92.7901554  42.5091839  40.9282637
  92.0738316  43.7076092  41.5127611  85.6752777  68.3533192  88.0785561
  85.1838875  67.9261971  88.7802219  86.5919399  68.1629610  88.2779026
  40.6201399  45.5129343  14.5829028  41.1088217  45.3402429  13.7781638
  40.3306711  46.4212709  14.4970817  46.0141993  71.8619633  75.5111456
  46.6195917  71.1224699  75.4574776  45.9592628  72.0591497  76.4461994
  87.5016212  77.0106697  81.9280529  87.4807072  76.7824888  80.9986782
  88.1820965  77.6805353  81.9949532   5.0481199  47.9292060  74.8858690
   4.5520281  47.8744269  74.0690994   4.7278761  47.1952773  75.4102945
  54.7638321  88.1935406  90.2060413  53.9980316  87.6192760  90.2053070
  55.4950857  87.6179028  89.9821281  69.4181347  64.3830109  51.4521408
  69.9504805  63.6422348  51.7421150  69.0963507  64.1233301  50.5888605
  88.0057240  61.6731882  93.6287785  88.8681507  61.6359854  94.0423679
  87.4318504  62.0356083  94.3037224   5.9928952  62.4751759  70.0175524
   5.4665051  62.1520376  70.7488012   5.3512345  62.7271318  69.3534660
  32.9883538  62.2085905  89.2252541  32.1283207  62.1782494  88.8061428
  33.2207547  63.1371450  89.2281628 109.9916077  51.1028719  74.6113968
 110.6210804  51.8100739  74.7522926 109.1775513  51.4264107  74.9972248
  84.6604252  87.9013634  68.7591267  85.2355766  88.5604954  69.1476774
  84.8877621  87.9032707  67.8293180  34.9979437  43.9025884   3.6785525
  35.4513586  43.1039720   3.9484805  34.1076362  43.7975794   4.0140456
  93.2956123  79.0206146  84.2110252  93.4088612  79.4662952  85.0505257
  93.8967037  78.2767963  84.2517281  36.8589008  19.4617372  17.0709151
  36.3909138  18.8728719  17.6629085  36.3637197  20.2801376  17.1062583
  43.9913452  28.0585581  19.1545123  44.4672859  28.6357217  18.5573596
  43.5100162  27.4634844  18.5796565  33.8458014  63.4188080  77.0988655
  34.7739840  63.2575178  77.2682667  33.6358786  62.8523493  76.3563776
  95.4372215  42.9007530  92.1119785  96.3675594  42.6768017  92.1355343
  95.4205608  43.8320160  91.8912888  75.6554794  74.3860340  52.2866058
  74.9416256  74.8749352  51.8771935  75.3047371  74.1155815  53.1351709
  67.2325659  94.8137951  73.7054968  66.3612270  94.7066021  73.3240414
  67.2470474  95.7179546  74.0193701  41.1330641  23.3682066   7.7452201
  40.4881847  24.0370470   7.5149650  41.8423927  23.8541609   8.1658477
  91.0665035  73.2033587  73.9006948  91.9771099  72.9414654  74.0364647
  90.5540848  72.4526405  74.2008162  62.2628307  75.4343319  68.2415676
  63.0077267  75.2118731  68.8000202  62.4883747  76.2871075  67.8698969
 108.5891247  69.7072315  84.2492771 107.6449871  69.5504713  84.2658806
 108.6825085  70.5629349  83.8306141  88.7480640  59.4216967  85.3822041
  89.5812321  59.7972155  85.0974941  88.7890625  59.4450665  86.3382435
  19.7622179  78.7287979  23.8434237  19.0783667  78.4377985  24.4466704
  20.5817865  78.5174947  24.2905253  91.4387608  61.3924551  87.5481224
  91.3412380  61.0096502  86.6762352  92.3179150  61.1350584  87.8257370
  21.6832865  48.3923345  24.8325175  22.5711811  48.5955625  25.1267451
  21.7566288  47.5271993  24.4295520  89.7079563  97.1883011  75.7375813
  88.7676048  97.0677376  75.6055403  89.8719025  96.8479347  76.6170740
  89.2783451  72.7278614  94.6088028  89.5618916  71.9700193  95.1201820
  90.0526619  73.2886505  94.5621967  42.9252613  21.2860017  20.3483409
  42.9737461  20.7846122  19.5343989  42.6391304  20.6504780  21.0044402
  87.2542000  71.5556097  93.0909920  86.7587662  72.1641016  92.5428009
  87.7754307  72.1187353  93.6632156   8.0059300  77.2661304  48.6016417
   8.4890995  76.4419174  48.6603403   7.0855198  77.0083904  48.6531210
 107.6880360  89.2855549  64.0535688 107.8482628  89.9774075  63.4117794
 107.8273106  88.4721088  63.5686541  78.0298948  57.5459099  55.8844852
  77.1478462  57.9166603  55.8567286  78.2532549  57.5286055  56.8150997
  70.5387163  68.7462807  83.5683823  70.7325602  69.3261337  84.3048763
  69.7141647  69.0779734  83.2129669  81.0863686  63.2837486  82.4864674
  80.7271194  62.6403761  81.8755341  80.3184795  63.7307215  82.8425694
  85.9769249  73.8967323  84.1562080  85.5373764  73.4044123  83.4629250
  85.3650665  73.8726473  84.8919201  87.1736992  15.8512264   7.8500575
  86.5916813  16.4635378   7.3999900  86.5846908  15.2145105   8.2549018
  93.1785965 105.0761223  68.2062531  92.2694016 105.1864910  67.9280186
  93.1167316 104.7711945  69.1114712  22.8800285  73.8093095   4.3962878
  21.9768083  73.8338667   4.0803546  22.8045643  73.9081579   5.3453750
  42.9289425   7.9837137  12.5682277  43.6176574   8.5952335  12.3075694
  42.2365177   8.1123310  11.9199676  97.8327751  95.5804729  75.6272459
  97.7344322  95.6153011  76.5787411  98.7150192  95.9145737  75.4652500
   7.9656468 100.4814720  75.0623798   8.6763726 100.8185673  74.5169687
   7.6989422 101.2291241  75.5972719  79.3557549  64.5689058  75.5394506
  79.1737604  63.8865185  74.8933411  79.1398096  65.3867245  75.0913715
  73.9063835  83.8181400  90.0172710  73.5463095  83.0900383  89.5108604
  74.8479939  83.6483002  90.0446701  61.3599443  71.2786293  62.0989513
  60.8196688  71.5657425  61.3628149  61.1253452  70.3590775  62.2239256
  65.2526462  17.4626356  11.1993903  65.5640495  18.3451801  10.9984511
  64.8016632  17.1807819  10.4035205 106.5794086  90.4407883  88.7370872
 107.0332050  89.6123791  88.8920975 106.8187618  90.9885406  89.4846916
  16.4927922  96.1717415  82.4462891  17.2093163  96.3313770  83.0605698
  16.3741074  97.0071697  81.9944000  88.0979061  75.1850462  94.9003983
  88.4368896  74.4748735  94.3554401  88.5405827  75.0735569  95.7417297
  86.6989708 100.3871059  46.6618729  87.2666264 100.9214592  47.2172642
  86.4221859  99.6653461  47.2263956  84.7734070  62.2943163  77.7552032
  85.0537491  61.7669964  77.0071554  85.0054169  63.1916571  77.5160742
  75.0282371  15.8696228  29.3157786  75.3430355  16.7733198  29.3372554
  74.0767849  15.9456497  29.3877620  58.8875580  90.7635117  92.5963497
  58.5920954  90.4616547  91.7373943  58.9469004  91.7148209  92.5085354
  68.4570492  22.6872450  26.4524669  68.7822235  22.1397215  25.7378215
  67.6792133  23.1135803  26.0927028  10.6147169  18.9821673  55.6354761
   9.8059439  19.4752551  55.4977179  10.5808424  18.7185527  56.5550327
  57.0514095   9.3435579   3.1129760  57.2480953  10.2566915   3.3221072
  56.0992420   9.3193536   3.0179137  34.5632017   7.5338894   0.5839747
  34.9880445   7.4698835  -0.2713853  34.6698845   8.4510332   0.8363551
  95.6330872  81.7343235  91.9185257  96.3763809  81.8948936  91.3371754
  95.7341576  82.3778725  92.6198578 104.2184925  80.1193523  77.6121426
 104.7379208  80.2062035  76.8128395 104.2333603  80.9927464  78.0035400
   9.2588270  43.8961225  11.0887450  10.0363243  44.2420297  10.6504745
   8.8292825  43.3571821  10.4244727   1.7134356   2.9586268  79.6279955
   1.9154524   3.8789321  79.4593334   2.3586248   2.6875640  80.2810574
   6.1193441  14.4892836  87.8411770   6.3084864  13.5772277  88.0616570
   5.4644369  14.7603560  88.4844971  95.2629757  70.7176924  76.6460180
  96.1166668  70.8712292  77.0508432  95.4224491  70.0233221  76.0067558
  79.6494198  91.7361069  53.9391994  80.3122425  91.0510063  54.0260124
  79.2462969  91.5726852  53.0865479  41.5641105  45.0851732   0.6176394
  41.4182079  44.9222665  -0.3142434  40.6929338  45.2722173   0.9673518
 102.4851227  91.9695568  78.0155087 101.8469334  92.6619720  78.1872749
 102.6296234  92.0061874  77.0699883  81.5045059  44.9433714   6.0345096
  80.6502903  44.8392111   5.6153602  82.0918262  44.3871027   5.5227965
 102.2062492  96.2855625  71.0774183 102.7144337  97.0123482  71.4376545
 102.6765156  96.0355091  70.2820873 114.0547466  92.0385742  84.1125965
 113.6529064  92.6254845  83.4720516 113.6644650  92.2932434  84.9486923
  91.1020744  23.3150392  18.3906383  90.4386127  22.7348762  18.7640876
  90.6212795  24.1085678  18.1553287 112.1452332  79.1826344  84.3575954
 112.6646996  79.9864388  84.3406487 111.6977787  79.1687489  83.5115337
  79.3708754  77.3221874  77.2075224  78.5976982  77.2629213  76.6463518
  80.1089573  77.1853828  76.6135836  67.5054634  24.7850042   3.1440944
  67.2245872  25.6817823   3.3260840  67.6723659  24.7728973   2.2016353
  47.6568973  60.7424265  25.7303542  47.3802459  60.9553343  26.6216296
  47.5031841  59.8010450  25.6502837  69.4257915  27.5257497   3.2420749
  68.5008610  27.4827867   2.9994315  69.4921100  28.3032423   3.7964553
  68.0058622  58.0728054  58.0876493  68.9390898  58.1952572  57.9135132
  67.8334522  58.6120987  58.8594437  88.0193520  75.2990580  67.1100330
  88.8149452  75.8259439  67.1851254  88.3295822  74.3936205  67.1230745
  56.2574100  75.3794622  86.7058945  55.6548023  75.8974981  87.2394943
  55.8110046  74.5412874  86.5858364   3.9231276   2.0084906  66.4524841
   3.5676836   1.5251113  67.1983004   3.2019018   2.0436049  65.8241272
 100.7040596  90.2149105  63.0825710 101.4421463  89.6356201  62.8931236
 101.0326004  90.8084106  63.7578869  98.1556129  73.8295364  54.1251469
  98.4816170  74.0644789  53.2563782  97.2195816  73.6762810  53.9963484
 107.9670429 101.0375214  61.3249779 107.8258038 100.9461784  60.3826666
 107.6710987 100.2050686  61.6933155  28.0751204  18.8425875  57.8377438
  28.2822870  17.9207469  57.6843357  27.9002928  19.1970778  56.9659615
  52.5838650  58.8404566   2.7068538  53.1761921  59.2754274   2.0935172
  51.7077816  59.0491300   2.3825664 106.3867439   0.6620551  79.3750477
 106.0297025  -0.2229833  79.4488430 105.6217254   1.2171031  79.2237186
  32.9969394  58.1261259   9.7501010  33.0286300  57.6946550   8.8962478
  33.9074171  58.3551698   9.9366588 108.8462830  88.3537197  85.8630562
 108.8470078  87.9882145  86.7477322 109.6126175  87.9639816  85.4422665
  79.0545702  89.2651176  73.2543135  79.3599272  89.4962597  74.1315603
  78.2846403  89.8166752  73.1156445  53.0115307  54.4623476  32.3007888
  53.0154979  55.3767591  32.5837535  52.7769077  54.4995790  31.3735408
  85.2849663  30.5465418   7.1049422  84.7831905  30.3229147   6.3210792
  84.6339596  30.8926302   7.7154082  69.7486734  96.0150433  44.2690992
  69.2762184  95.5408001  44.9532938  69.2422295  96.8169880  44.1401625
  66.1137056  84.7739029  94.5901585  66.3853502  85.6843376  94.7065258
  65.2195168  84.7453785  94.9305153  75.9411383  71.0869408  94.3022633
  75.9637403  70.3700829  94.9361706  75.7713747  71.8676138  94.8294926
  37.6778925  32.5834566  13.1069488  37.6089514  32.5745493  14.0616244
  38.3691442  33.2194143  12.9226607  20.6735872  89.9782639  10.4650229
  21.0912584  89.1179781  10.4238910  21.3027166  90.5278544  10.9323329
  42.1994375  11.4481307  77.6961231  42.3928999  10.5214072  77.5547647
  41.3409304  11.4517260  78.1194305  70.1755798  15.8703094  12.3773688
  69.3006599  15.8075529  11.9942016  70.1363838  15.3151231  13.1561297
  94.8479557  84.8062038  89.9135494  94.9722862  85.6501770  89.4793987
  95.6450081  84.3148708  89.7147274  85.7755852  76.6179419  89.3848705
  85.0767612  76.0556936  89.7191715  85.6997490  76.5538979  88.4328270
  69.3737972  46.1961084  12.9005069  68.9432323  46.7270666  12.2304934
  68.8126457  45.4261976  12.9931754  36.4818930   0.6848765  51.8924665
  37.0018457   1.4598036  51.6794634  37.0705198   0.1367140  52.4113798
   0.8176384  53.1670666  80.3219700  -0.1385631  53.1916142  80.3580379
   1.0804997  54.0873575  80.3078651  51.2619674  38.8905912   1.8209952
  50.6129921  38.8966375   2.5245780  51.9059551  38.2374769   2.0947665
 100.4270662   8.7580729  63.3806944  99.7599519   9.1255522  63.9604807
 101.1331428   8.4889365  63.9682770  84.8575401  78.6404753  71.8821621
  85.5244255  77.9623699  71.9901896  85.2178764  79.2269802  71.2170315
 116.2088108  91.7073059  74.5906830 115.9828472  90.8579350  74.9698067
 116.9223881  92.0324135  75.1396322  54.6502292  19.2986112   9.1113204
  54.4526184  19.9938684   9.7388572  54.8115242  18.5259538   9.6528167
  16.6591238   8.9617968  81.2344265  15.9568094   9.4326735  81.6830444
  17.0735525   8.4390498  81.9208717  42.5568950  14.5617157   6.7374915
  43.1906975  14.6487051   7.4494952  42.3010052  15.4612117   6.5333861
  70.1931620 101.9089413  62.2744322  69.3752193 102.3046398  62.5754690
  70.7715416 101.9455528  63.0362511  59.5728195  29.5775800   3.9806670
  58.9505565  28.8693815   4.1464156  59.4739902  30.1637369   4.7309226
  95.5635357 101.4436913  76.7091942  95.0730133 101.7875004  77.4557972
  96.3049030 102.0416355  76.6138554  53.7676418  15.2513939   3.9365882
  54.7070968  15.0679498   3.9367885  53.6691463  15.9973722   4.5282382
  91.8003082  31.3949800  73.5074139  91.3911915  30.5359364  73.4030151
  92.7360439  31.2072825  73.5809374 106.4558887  74.5040178  85.3608704
 107.1148205  74.4847965  86.0548973 106.6621685  73.7461948  84.8137093
  20.9732759  14.4464784   1.1514300  21.2426889  15.3261381   0.8871478
  20.1661289  14.5821720   1.6477508  63.5300112  78.5378551  90.5325222
  63.1761122  79.2792797  91.0237312  64.1116858  78.9355183  89.8846436
  68.6791504  36.1198431   6.0829562  67.8580082  36.5541464   6.3139075
  68.4321678  35.2084833   5.9259337 100.0517178  92.7879620  90.3627014
 100.4177380  92.0749474  90.8860302  99.2151642  92.9882431  90.7825756
 107.9315090 103.7424755  81.7397594 107.7411556 104.1629887  82.5783062
 107.3785782 104.2040825  81.1093521  87.7658558  93.8416958  87.5631332
  87.3853493  92.9777622  87.7214813  87.3958302  94.3959713  88.2502270
 115.9175873  83.4112644  37.4944091 115.0415230  83.6092091  37.1634150
 115.8962822  82.4729347  37.6823187  81.8772984 100.4780769  77.5899458
  81.2030315 100.1638317  76.9875860  81.3892555 100.9039593  78.2946873
  77.8812122  63.9933062  93.7471104  77.4900818  64.4192266  92.9843235
  78.8216591  63.9995289  93.5689163 112.7064419  96.6567612  81.9428349
 112.0546055  97.1564960  82.4343777 113.5423565  97.0628834  82.1720600
   6.1823330  91.7389202  59.0793276   6.1817131  92.6947784  59.1300488
   6.8985424  91.5313911  58.4791470 116.6488171  57.3653555  56.7232847
 116.4278889  58.1484461  57.2274542 116.0291100  56.7021275  57.0271301
  93.3691311  78.5734701  76.3822031  92.4633312  78.8804674  76.4211607
  93.8300610  79.1042328  77.0318699   6.1525606  10.6552268  42.5014496
   6.5674280  11.4668513  42.7936792   5.5629324  10.9273482  41.7982292
 115.8364296  88.3218002  72.5729322 116.7248440  88.6342812  72.7441359
 115.8848286  87.9277039  71.7019701  78.1181002  72.8813934  71.5139532
  77.9401922  73.8194132  71.4453888  77.7944374  72.6390171  72.3815536
  38.9992273  23.2250791  19.2915458  38.6993540  23.7736564  20.0163764
  38.2040346  22.8041940  18.9648074   5.0163041  75.9348249  83.4275341
   4.7414742  76.8438482  83.3076286   4.3317185  75.4193878  83.0010319
  85.6815815  62.9138422  91.8959904  85.2352715  62.4205875  91.2076950
  86.5579987  63.0739832  91.5460300  94.7354317  60.6365633  64.7021818
  94.8044682  61.0259914  65.5738592  95.5221844  60.0979710  64.6174860
  19.4295954  39.3369437  83.7183380  19.5540690  38.7476683  82.9743671
  20.2905916  39.3830443  84.1340256  12.3813986   5.9114028  73.7862587
  12.5838923   6.0173369  72.8567410  12.0934080   6.7793322  74.0690851
  97.4856186  54.6201181  90.4726315  97.8467369  54.8809481  89.6254063
  96.8161488  53.9705563  90.2579021  60.1223266  63.5278707  15.7377070
  60.1213539  62.5755888  15.8346766  60.0140465  63.6730104  14.7977847
  95.3652763  75.7147932  63.0036879  95.3907490  75.4406309  63.9204311
  96.1771393  76.2060213  62.8779602 111.6254616  78.4890079  70.5028820
 111.7845535  78.6655617  69.5756531 110.7873058  78.9130259  70.6870604
   0.5020771  94.7304821  71.1241674  -0.2348365  94.2317390  70.7713985
   0.9948502  95.0082397  70.3519917 100.7366085  93.3123589  58.5931635
 101.6179943  93.6475086  58.4286213 100.4330540  93.8019276  59.3576288
  54.4946659  30.9138971  22.4934405  53.6956871  30.4243665  22.2979182
  55.1075828  30.6570059  21.8045444  63.8188041 105.2380137  10.9341544
  64.3859996 105.6136279  10.2607745  64.4232572 104.8606067  11.5732402
 109.8912621  99.2062473  80.3928089 109.3536758  99.9979019  80.3702641
 109.2602634  98.4872246  80.3598309  84.2161083  73.6860418  80.0182724
  83.5185432  73.9646816  79.4249868  83.8674831  73.8544226  80.8936882
 112.1289444 103.0322647  72.9797888 111.5055466 102.6378822  72.3698139
 112.3696327 102.3188972  73.5708904  57.5018549  94.8874664  80.3747940
  57.8195286  95.6489372  79.8895216  57.6749086  94.1451836  79.7957516
  48.4089172  31.1323553  20.6843108  48.1108368  30.2228647  20.6986732
  48.2457531  31.4237409  19.7872657  77.2755003  96.3112450  78.2910872
  77.0604658  97.2430229  78.3333158  76.5088415  95.9066677  77.8851604
  22.6434028  37.6732164   5.6500072  23.0799282  38.5162359   5.5275077
  23.1179846  37.0720869   5.0758571  20.9102428  14.0176063  10.7708568
  20.0398100  13.6677986  10.9611625  20.9263361  14.1149908   9.8187655
  24.1558683  37.7148443   7.9852694  23.7155235  38.2261472   8.6641711
  23.5145557  37.6542288   7.2772616 101.7362118 108.0630398  73.4288263
 101.1579990 108.5791779  72.8671265 101.9706249 107.3025608  72.8968906
  55.3872383   6.4487558  16.7029113  55.0940693   7.2778326  17.0809478
  55.4531181   5.8546358  17.4505156  46.7232597  13.1991678  46.3740748
  45.8145321  13.3371263  46.1068458  46.6706455  12.5506502  47.0761317
  38.9280451  50.0925260  39.9297446  39.3074882  50.7451730  40.5182189
  38.4755647  49.4807249  40.5104274  59.1764402  98.6081219  33.6123776
  59.9304295  99.1974258  33.5910678  58.4832478  99.0896702  33.1609106
  60.7726276  52.6817327   9.3530482  60.5373466  53.5138136   9.7635669
  61.6995609  52.7764612   9.1338366  68.8227224  88.2286644  70.5944681
  69.0062475  88.2837772  71.5322924  69.0113258  87.3183155  70.3665972
   5.0352644 107.8317695   6.9857711   5.2435183 106.9854217   7.3814410
   5.7503199 108.4063964   7.2591323  62.3876333 102.6005459  42.6279497
  61.4855862 102.9078674  42.5379848  62.3724365 101.7084599  42.2812700
   0.6923447  69.1509342  45.5242443   1.6080819  69.4099474  45.4214478
   0.7302246  68.3195496  45.9970999  62.4115455  40.4100233   0.1904124
  61.8833435  39.8535734  -0.3819543  63.1700313  39.8710447   0.4149837
 112.5238228  95.0287819  78.9154720 111.7541599  95.4738903  79.2700386
 113.0543804  94.8188972  79.6840382   2.7566300  99.0154552  72.6718140
   3.2724152  99.4093323  73.3754158   2.6473484  99.7191143  72.0321655
  88.6036491  87.7652740  70.4946470  88.1387615  87.7958584  71.3308144
  88.6190891  86.8366528  70.2630186  90.0894165  99.4432735  89.9637604
  89.2052555  99.3342590  90.3139019  90.6218815  99.6733475  90.7251930
 105.8579922  90.7544231  69.0141916 105.9906864  89.9384308  68.5317135
 106.0752487  90.5350018  69.9202204  89.2264557 106.8425560  78.3351374
  89.6222496 106.7241573  79.1985941  88.7819004 106.0132027  78.1596804
 107.5000000  94.3858337  87.7500629 107.0400620  94.5028400  88.5813236
 106.8780041  93.9135838  87.1965885   2.6333580  72.8263569  93.4772873
   2.5060521  72.3693991  94.3086720   2.9394303  72.1478510  92.8754711
  67.9588306  34.2468839   0.9396857  67.2120941  34.7671228   1.2362594
  68.6225403  34.8943620   0.7020015 114.7617912  34.4838810  73.6834860
 115.3697109  34.2377424  74.3806887 115.3147793  34.5875478  72.9090881
  39.9914621  36.6319991  80.8922100  39.6597265  37.2176505  80.2116299
  39.8183607  35.7524443  80.5565739  86.6334343  96.4816380  79.5224380
  86.5409088  96.0823441  78.6574316  85.8585453  97.0359802  79.6144867
 108.0772877  68.0793238  81.4084339 107.1519661  68.1201506  81.6499710
 108.2118511  67.1741438  81.1277676  67.5497329  49.1658693   2.6110953
  67.3996151  48.2642370   2.8952903  66.6871345  49.4773679   2.3369998
  50.4178226  19.6285444   2.2670001  51.0655868  20.1960760   2.6847762
  50.5656421  18.7676674   2.6585025 107.5069345   2.9348422  73.6288738
 108.3389867   3.2493830  73.2753420 107.2895683   2.1746112  73.0893946
  94.9392605  97.0632648  91.5298843  95.1282310  96.3229656  92.1064949
  95.0617981  96.7160416  90.6463432  61.5705860  47.5658136   7.5208777
  62.1298969  46.9222742   7.0858497  61.7820251  47.4775892   8.4502620
  58.9203882 108.8749504  90.2078819  58.0832100 108.5100746  89.9211311
  59.0811777 108.4660530  91.0582733  33.1794333   8.1372786  46.5716600
  32.3072599   8.3206320  46.2224817  33.1592249   8.4871245  47.4624109
  89.8961639  97.1182537  78.6383152  89.4463253  96.6352940  79.3315840
  89.3021297  97.8373051  78.4230852  94.4553280 108.6528873  44.7100353
  94.3089104 109.3647289  44.0870714  93.9571857 108.9079571  45.4865837
   6.2573313 104.2976956  10.8250445   5.6792234 103.5530572  10.9909743
   6.5362429 104.5829301  11.6951484  62.3876286  82.7500153  87.1118927
  63.0891228  83.3251190  87.4174976  62.1070910  82.2772026  87.8954601
  24.5240772  81.3773256  10.4726809  23.7471473  80.8616930  10.2565116
  24.3157852  81.7829519  11.3142985  55.2153957  25.6388574   3.8775462
  54.3719375  26.0278230   3.6462134  55.4665745  25.1340681   3.1040305
  25.8121084  11.5951205  93.9592552  25.6358885  11.0425711  94.7207451
  25.5009817  11.0817576  93.2136726  53.6282337  13.6851125  38.1180495
  54.2140281  14.4257074  38.2748622  53.1204975  13.6061626  38.9256495
  80.4567719  71.2257385  86.0421467  80.7852268  70.6575203  85.3453827
  80.3894424  72.0894480  85.6350708  86.8498993  94.7472095  48.4917593
  86.9705772  95.6451797  48.8004827  87.5272465  94.6298695  47.8256798
  95.6667805  94.3775177  62.9946327  95.8097744  94.1819763  63.9206696
  95.0322628  93.7213326  62.7064753  79.7033882  84.3865681  85.4247379
  78.8373566  84.7809887  85.3214931  79.7444773  84.1371822  86.3479614
  68.8972139  89.6645355  92.7989292  69.7629929  89.4812870  92.4341297
  69.0700054  89.9395084  93.6993504  96.4125347  91.3232899  79.5596981
  96.7968178  92.1840954  79.3936396  96.5840340  90.8261108  78.7599325
  36.1111712  39.5688678  63.7421560  35.4446959  39.2277289  63.1457663
  35.8797812  39.2015601  64.5952511  84.0799522  78.5276413  91.7819691
  84.8310089  77.9936552  91.5231133  83.6766052  78.7906837  90.9547138
  48.1960666  16.0740667   4.6963901  48.7354553  15.3802019   5.0756663
  47.3988807  16.0743862   5.2262229  99.2331123  69.6769810  71.7916298
  98.5998821  68.9631796  71.8673515  98.7186432  70.4214668  71.4797068
  13.9607106 107.3847866  84.8770523  14.8336754 107.5217247  84.5090675
  13.4264527 107.1119976  84.1311359  87.8087139  86.4289093  73.2257938
  87.7163506  86.4349937  74.1785097  86.9432259  86.6754913  72.8996754
  46.9961345  29.4677263   1.8422431  46.9052589  29.9932104   2.6371211
  46.6190136  28.6185079   2.0721072 104.2335987 102.7468967  82.5825500
 103.9659405 102.9152012  81.6790771 104.9659348 102.1353722  82.5054264
 116.7221893  40.2053595  79.1934299 116.1718048  40.9526492  79.4276524
 116.1194624  39.5814944  78.7887716  19.7481226   9.2031432  79.8666286
  19.0996431   9.3213416  79.1725540  19.6492838   8.2892752  80.1336575
  78.5490036  96.1562824  71.2119007  78.0762672  96.8699265  70.7835674
  79.4479179  96.2395000  70.8936834  45.4129744  91.6385365  94.2294693
  45.5135965  91.9907379  93.3451271  46.2337303  91.8589973  94.6699047
  50.3097963  86.3986969  83.6288548  49.9199057  87.1236515  84.1173744
  50.8848572  85.9663010  84.2601871  46.1847389  44.9553400  19.7224635
  46.7734611  44.3843179  20.2159900  45.7831180  45.5162626  20.3860110
  76.4766586  51.5569883  27.0031756  76.3291347  50.7781320  27.5396937
  77.4181259  51.5540033  26.8303985   4.7784494  15.9445143  74.0359211
   4.2599463  16.2865115  74.7642279   4.3387674  15.1305056  73.7903547
  41.3336824  13.6997367  67.6981449  41.8337320  14.0591479  66.9653320
  40.8884596  14.4569064  68.0785418   1.2534199  50.2981997  69.0124273
   1.9670926  49.7779512  69.3815374   1.3359032  51.1525869  69.4360495
  97.7030849 104.5379925  82.8898621  97.1410942 103.8261223  82.5838757
  98.4516144 104.5254993  82.2933865 102.0144272  63.6691284  84.5575905
 101.7682743  62.8385448  84.9647331 102.9037762  63.5234404  84.2349815
  10.9686909  75.9095621  60.1330709  11.3129101  75.0426245  59.9182272
  11.6090737  76.5191698  59.7662878  32.4442076  98.0763822   4.6095294
  33.2509302  98.1152444   4.0957946  32.7388357  98.0969529   5.5200213
  73.2103205  90.6414795  76.9949722  73.5337591  90.4194546  76.1218596
  72.5658894  91.3327503  76.8430376  91.3895321  70.7378626  59.5930290
  92.2621822  70.3626013  59.7109032  91.5518761  71.6445494  59.3326473
  12.5430082   2.5664473  92.1546745  12.9769014   3.3241988  91.7625237
  12.6555132   2.6874209  93.0975151 102.6671410  43.7299633  57.7550554
 101.8538666  43.2263327  57.7893353 103.2119083  43.2623816  57.1219492
  92.1582794 100.9870338  81.3945675  91.8896103 100.0704002  81.4563751
  91.3524723 101.4830685  81.5390015 109.7430325 108.2313442  83.1590843
 110.2835655 107.7719784  83.8017559 108.8507271 107.9376984  83.3429623
  74.8991060 103.0190277  65.9779787  75.1594925 102.2366619  65.4918385
  74.8074675 103.6973381  65.3088522 103.3676815  91.8188953  84.2992878
 102.8665352  91.3797569  84.9864769 103.9291096  91.1334515  83.9370728
  68.7780428  71.0196638  22.2937870  69.6600342  70.6575871  22.2088027
  68.5935402  71.4045143  21.4370012 110.0269127  99.6037006  87.2844028
 110.0423527 100.0795650  88.1147957 109.5845985 100.1965141  86.6768169
  70.5870235  18.6772924  10.5697268  70.6732357  18.9481931   9.6557158
  71.4192665  18.9250475  10.9724921 104.1061974  78.7882853  38.8589025
 103.3498096  78.5756874  38.3121705 104.8385239  78.8405943  38.2447410
 106.6742802  51.2793636  73.1669426 106.1474228  50.5590010  72.8209162
 107.5616932  51.0970020  72.8579617 103.7709224  52.5208574  21.3937301
 103.8576973  52.8866201  20.5134315 103.6272609  53.2819181  21.9562167
  93.6960983  89.6116829  81.0475826  93.9062405  89.2526531  81.9096565
  92.7574539  89.7950649  81.0868263  70.5744934  66.0191917  71.2316322
  69.9505568  65.8692837  70.5213737  70.6247139  66.9719172  71.3092232
  67.4147558 107.5192451  84.5334053  67.8263903 107.6572609  85.3864861
  68.1015253 107.7266502  83.8997173  91.3849545  85.0221252  85.0509834
  90.4783249  85.1017570  84.7544956  91.5654945  84.0826130  85.0198078
  53.6468876  15.6726890  13.1258315  52.9927242  15.1917892  12.6188487
  53.4427345  15.4656845  14.0378112  43.4898460  17.5290447   7.0305366
  42.7608288  17.5158792   6.4103812  43.2500446  18.2017761   7.6678390
 102.0551109  71.1511850  59.0272093 101.4459515  71.0865641  58.2916975
 101.5925121  70.7412195  59.7580671  32.7457594   1.2147284  87.9013824
  32.6262735   2.0961047  87.5476360  33.2125925   1.3489390  88.7261772
  18.7367020  92.2754669  83.1323051  18.1945095  92.7501678  82.5022888
  18.1711827  92.1600342  83.8959122  41.9642341  33.1240278  13.2230586
  41.7485225  32.9672056  12.3037547  42.6965893  33.7397581  13.1955642
  99.2833138  96.7634869  86.5502930  99.0854645  95.8776665  86.2463093
 100.1465988  96.6898537  86.9571590  11.6060518   7.8151370  57.0799351
  11.5242075   6.9247199  56.7383432  12.1705984   8.2625437  56.4495754
  71.1852539  41.1619287   3.5179442  71.6219986  42.0101934   3.4409446
  71.8923366  40.5446249   3.7055701  29.0224623 100.5321126  22.5734824
  29.6138357 100.0622086  23.1614512  28.1775927 100.5194621  23.0232257
  67.8605223  92.8141785  89.0582943  67.1072245  92.8044128  88.4678078
  68.4994221  93.3779430  88.6221695  87.5498199  62.2839069  87.7526855
  86.7200375  62.7584791  87.8023148  87.5214386  61.8398094  86.9052219
  93.0064678  74.8851347  81.3083363  92.9546547  74.2730474  80.5742359
  93.6399460  74.4886923  81.9064808  48.1237591   4.6715027  15.1185912
  47.2609222   5.0770813  15.0335044  48.0087650   4.0033251  15.7942695
 112.1338749  71.8668842  76.1692238 112.8197098  71.1991835  76.1632061
 111.8087769  71.8682003  77.0695210 116.3294983 100.4204845  94.2800045
 116.3112545  99.7782707  93.5704517 116.6083813 101.2339687  93.8596535
  40.6622255  36.1269479   2.4425811  39.7144544  36.1166292   2.5762099
  40.9840572  36.7835909   3.0602187  77.5421417   8.4112888  18.3881873
  77.6790130   7.5866895  18.8546008  76.6023529   8.4311300  18.2075042
  82.9259872  48.4874439  65.2548885  83.7036133  49.0362883  65.3564024
  82.2205639  49.1049290  65.0617123  26.3984369   5.8795405  45.8885860
  26.0245203   6.2785865  46.6742039  26.7639231   5.0487757  46.1926937
 103.9527225  78.4057140  66.6738796 104.7240639  78.9715147  66.6400671
 104.1833019  77.6535892  66.1285543  21.0024584   6.4589506  12.4400348
  20.8893812   6.5510755  13.3860606  21.9084919   6.1688667  12.3342437
  29.8451221  22.3379999  29.6693439  30.4885471  22.9425483  30.0391501
  30.0248134  22.3426395  28.7291736   5.4558430  43.8136864  75.1896858
   6.3335095  43.5763311  75.4890013   5.5957756  44.2161417  74.3325472
 113.3651161 100.4573345  60.8927679 114.0679646  99.8248005  60.7439899
 113.7617588 101.3063908  60.6977987  76.1865234  43.5463524  51.5850163
  76.4806652  43.3440638  52.4731541  75.6351757  42.8031731  51.3402081
  57.9033268  54.7681909   2.3340816  56.9683826  54.5683866   2.2871798
  57.9387558  55.7078653   2.5129718  54.1490162  49.0580087   0.8197898
  53.2254398  48.8788229   0.9962291  54.4177330  48.3619791   0.2201480
  98.6540331  19.2261649  64.2038298  99.2403139  19.0705920  64.9443007
  98.9978851  20.0168277  63.7880850  66.4416206  53.3978658   5.0138968
  66.2282551  53.7383753   4.1451282  67.3928631  53.4832864   5.0776500
  22.0816683   5.9147406  70.3029966  22.3172735   6.3617755  69.4900513
  22.4366163   5.0315142  70.2021837  34.0936445   3.4650946  79.0875816
  35.0065779   3.7522555  79.1053343  33.6022448   4.2071391  79.4399023
  16.7154370  87.0421124  85.7721138  16.6555081  86.2635231  86.3256836
  17.2207127  87.6672268  86.2918854 112.0758820  82.5997066  86.2938499
 111.4291191  83.1916904  86.6778755 111.8270397  82.5388527  85.3715611
  27.1134733  16.9462443  89.5851135  26.9279837  17.3349333  88.7302685
  26.3760065  17.2122908  90.1342869  32.1457171  17.5652266  70.5217075
  32.2253584  17.1348429  69.6704388  31.3011526  17.2694827  70.8615303
  96.4385414 104.4901943  69.7710943  96.3156319 104.6456814  68.8346386
  96.7899418 103.6013031  69.8222017  20.5237078   2.5233126  55.4011202
  20.8304476   2.8235865  54.5455647  20.1486086   3.3040095  55.8086014
  65.8024286  36.1448336  86.7247581  65.6570982  36.9229460  86.1865520
  65.5658316  35.4124118  86.1557102 109.7441769 106.6490746  78.4379005
 110.4584503 107.2753525  78.5554695 109.4597244 106.7772961  77.5329828
  67.8539551  64.2584425   0.1644343  68.7811744  64.1256433   0.3615588
  67.7265156  65.2042585   0.2379722 102.7366543 108.2410622  69.7852612
 103.4086037 108.7705326  69.3558741 103.0294228 107.3378849  69.6636391
  85.0518703  80.2558613  74.2436457  85.7773590  80.0258446  74.8241568
  85.0284672  79.5495033  73.5980892 110.5611515 109.0015030  80.5978584
 110.2269173 108.8307762  81.4784050 110.9824753 109.8584747  80.6635761
  25.3343367  15.6890918  67.7400160  25.3590178  15.1460028  68.5278463
  24.6647142  16.3478423  67.9240894  53.5017847  14.9558020  86.8004322
  54.4007849  15.2201129  86.6050339  53.0411314  15.7782126  86.9667625
   1.4930390  27.4500662  17.6996058   2.1550797  26.8152433  17.4258727
   0.7581280  26.9153124  17.9999083   3.9441275  28.1047393  89.7010899
   3.0303740  28.0046797  89.9680519   4.3131041  27.2246409  89.7753716
  20.5159163   4.7964431  75.5544376  20.6153273   3.9595462  76.0082531
  20.8530687   4.6328116  74.6736526  61.6140366  82.4859715  23.4748816
  62.2700834  81.8815899  23.1276822  62.1145535  83.0998516  24.0123487
  61.6991686  13.0775214  58.6678648  61.5423845  13.3962775  59.5567083
  60.8244490  12.9682589  58.2948208 101.4516163  72.0492268  67.1015549
 100.7256889  72.0983553  67.7235317 101.3186073  72.7967501  66.5186787
  38.4614348  16.5100814  59.4130182  38.9691710  16.3430739  60.2070808
  39.0896200  16.3993026  58.6993313  64.5742119  25.0669485   7.2281760
  64.5541847  24.4933611   7.9942245  65.2925289  24.7280651   6.6939372
  41.2118506   4.7143317  40.7479095  40.8639978   4.7619677  39.8574233
  40.4473948   4.5315791  41.2942076  88.8799763  89.4578743  63.4235764
  89.4033051  89.4664574  64.2250013  88.8811016  90.3679752  63.1270218
  10.0238012  34.5393706  43.7642956  10.7015680  33.8709594  43.8646936
  10.3173422  35.2631427  44.3176699  90.6559181 107.3875904  84.4661045
  90.2091026 108.0429268  85.0019360  91.2573242 106.9532204  85.0709820
 112.3011507   2.5874949  90.4991817 111.4432920   2.1883441  90.3543091
 112.1598448   3.2051612  91.2166405  96.4326286 101.6744328  42.9147291
  95.9988499 100.9325886  42.4931431  96.8308830 101.3031960  43.7020111
  73.7204254  36.0218816  21.9696063  72.9862583  36.6014295  21.7662257
  73.4084213  35.4872518  22.6997107 105.1143837  79.9962997  72.2695637
 105.7383633  80.4914570  72.8003120 105.5302429  79.1432714  72.1445227
 107.8728580  90.9642220  44.8999643 107.2058105  90.9672070  45.5864525
 107.5395584  90.3510857  44.2448139  34.2406248  13.3767176  93.3361721
  33.3936857  13.2503939  92.9084206  34.7211622  12.5679541  93.1595230
  24.5696329  -0.0246190  55.7667637  24.7205423   0.8742095  55.4742479
  23.6245703  -0.0742864  55.9103394  85.3615463  34.4744116  10.9157008
  85.5072010  34.4739633   9.9696559  84.5754230  33.9419847  11.0372561
  57.0604967  14.8492385  94.6052361  57.2078871  14.8859072  93.6601639
  57.9361128  14.7572375  94.9808121  35.9733080   8.8727809  79.9490404
  36.7541288   9.0216017  79.4157553  35.2676367   8.7555648  79.3130159
  55.6895041  17.3948527  70.8439350  55.0746702  17.8684188  70.2836275
  55.3261160  17.4816561  71.7252159 105.1386261 103.1055641  22.7045083
 104.3915844 102.6934433  22.2705650 104.7461700 103.7144470  23.3301950
  39.6055006   4.6869517  73.8770294  38.8367056   4.1251612  73.9748764
  39.8791193   4.5623160  72.9682779  78.0895984  58.8793665   0.4505271
  77.6386535  58.3681493   1.1224956  77.6843727  58.6042696  -0.3718740
  71.6260994   6.3493925   5.5876655  72.2518432   6.9220644   6.0312003
  70.9378231   6.1992126   6.2357062  77.1405935  56.2490797  46.1784029
  77.2174788  57.0959187  45.7388735  77.0664120  56.4672852  47.1074438
   7.8581772  92.8426361  56.9974756   7.7736721  92.7790260  56.0461378
   8.6457692  93.3694077  57.1332836  31.8416939  66.1815357  88.7630844
  31.0149346  66.6007805  89.0016842  31.7586575  66.0041666  87.8261375
  95.1779461  71.7044973  95.0741673  94.2559910  71.7148256  94.8170090
  95.5834961  72.3867798  94.5391464  45.7391796  97.1838760  81.8239689
  46.0834751  97.3020077  82.7092648  46.4547215  97.4577427  81.2501812
  80.8941448  81.0605531   4.2696017  81.1317146  81.4910322   5.0908679
  80.7695949  80.1419168   4.5079822  40.1578987  47.9517465  16.1396522
  40.9760702  48.0554205  15.6537742  40.4140699  47.5080019  16.9481677
 115.5372810  99.3457317  77.4010086 115.7290936  99.4515610  76.4692116
 115.9285736  98.5032368  77.6319122   9.5024084  17.6899672  68.0856609
   9.3422388  17.8228522  69.0199661  10.4302858  17.8947688  67.9702187
   0.7211708   5.5360366  52.8198719  -0.0686861   5.7498122  53.3165216
   0.6399845   4.6010543  52.6315928  83.2257080  74.3234491  66.2573242
  82.2690105  74.3118525  66.2287569  83.4936237  74.2462921  65.3416252
  96.1232090 103.0809784  40.6625509  95.5712128 103.7556839  41.0579109
  96.4800739 102.5968075  41.4071751  19.0441571  92.2034550  47.5563622
  18.3834324  92.5012589  46.9310760  18.5508213  91.7019081  48.2054472
  28.7608408   0.1818133  62.1980095  28.7510370   0.5331279  61.3076639
  29.6013235  -0.2709340  62.2676039  20.4842829  35.1364852  93.2601547
  20.8505892  36.0169841  93.3423996  20.9137606  34.6328498  93.9516258
  61.8572306  17.5387908  65.1968527  61.2864470  18.2496310  64.9050808
  61.3818144  17.1318198  65.9211397 103.8909435  87.9198360  81.1874866
 103.0434322  87.6198196  81.5160465 104.1729164  88.5803986  81.8202400
  25.5958056  11.7495013  79.2268515  25.3580164  11.2221957  78.4642076
  24.8244165  12.2912074  79.3934393 110.9955229   3.7892962  68.3651495
 111.3914694   3.3991099  69.1443920 111.6323246   3.6312152  67.6682091
 104.4803810  99.5757008  55.6405115 104.8723507  99.5129967  54.7695065
 104.1375446  98.6987209  55.8125734 111.4304447 109.1403484  72.0361996
 111.7045784 110.0299549  71.8133354 112.0269108 108.8741112  72.7358961
  28.9566410  25.2397257   1.9451350  29.6509779  25.6737714   1.4494151
  28.1889475  25.2890688   1.3755340  48.5224890   5.4353762  47.9747009
  48.7230658   5.6311942  47.0594692  49.3019747   5.7136107  48.4555531
   1.2312756  75.4343462  85.9043026   0.7097206  75.6149054  85.1222515
   1.1401329  74.4912767  86.0405064  35.7518553  14.0438414  66.3995409
  36.4659189  13.9021636  67.0210457  36.0187029  13.5649253  65.6149006
 113.8019085  89.9588490  81.0277843 113.0880070  90.5403137  81.2894630
 114.5857334  90.3561115  81.4072990 111.8633270  91.5680695  70.8733320
 112.5508595  90.9349251  71.0798407 112.2975063  92.4193954  70.9277344
  23.0286825  42.0251756  11.5113181  23.9222181  42.1270662  11.8390960
  23.1347072  41.8580442  10.5748004  31.8022894   3.8686610  59.3306541
  31.5259527   4.1373110  60.2068377  32.5205111   4.4629145  59.1132975
  94.5474720  76.1358881  45.1232338  94.7353363  75.2653980  45.4742146
  93.6079121  76.1229134  44.9407578 116.1039531  83.4557157   2.7086467
 115.6258953  84.0219312   2.1027678 116.0707939  82.5891786   2.3033923
   1.6539454   5.0001479  92.7948380   0.7402634   5.2138568  92.6057625
   1.6122412   4.1717482  93.2725811 115.4957008 108.4022617  60.8279181
 114.7555447 108.6875057  61.3636637 115.6588268 109.1356754  60.2348566
 116.3636494  77.5849438  91.5533066 115.9599304  76.7183256  91.5063572
 115.9955502  78.0612850  90.8091068  32.7693533  15.0223876  64.4059610
  32.8860735  15.1403380  63.4632540  31.9216322  14.5857955  64.4895744
  24.5976792  49.0010643  44.4935131  24.9674855  48.1334019  44.6567249
  24.7840939  49.4949389  45.2919912  19.1572819 105.5464745  72.9853392
  19.7604142 104.8123360  72.8691530  19.0407906 105.6130695  73.9330912
 103.1923103  86.8608570  91.1585045 102.6423454  86.7728901  91.9369793
 103.9339733  87.3922348  91.4480019  96.5814102  47.5975233   7.2459430
  97.4563396  47.2229772   7.1437282  96.6120804  48.0514436   8.0881137
  54.3455290  32.0444728  68.0601740  54.4533705  31.1733008  67.6785326
  55.2390837  32.3676825  68.1756210 104.8725414 102.9526901  59.0725994
 104.9635124 103.8761520  58.8377094 105.2274418 102.4782372  58.3208179
  33.8274169   1.0193328  78.0329704  33.9655256   1.7902783  78.5832453
  32.8859973   0.8540017  78.0842543 104.5601846  80.1690888  81.6066456
 103.6419035  80.0089549  81.3890457 104.9113394  79.3034386  81.8153858
  53.1627131   2.5332594  57.6473236  53.4236574   2.3363681  58.5469770
  53.6893797   1.9413570  57.1101952  31.0733485  17.8831911  63.3660841
  31.4680099  17.0200205  63.2419395  30.1708937  17.6987278  63.6264324
  86.5128149  70.4019098   7.5723571  86.6944088  70.7409422   6.6958255
  85.9854044  69.6175389   7.4212569 115.4418922  84.9956440  49.2818737
 115.9574152  85.3801631  48.5729218 115.4601599  84.0545272  49.1080952
 101.8055321  86.5126967  86.2294865 102.4656607  87.1731543  86.0191059
 101.4401961  86.7975449  87.0671177  52.9252243  25.1943254  67.0308590
  52.8551197  25.9958363  66.5123129  53.7977457  25.2377200  67.4220896
  27.0022332 102.2124755  79.4842243  27.7407442 102.8035110  79.6308756
  26.3685261 102.4482995  80.1617432  45.5677046  22.1311884   6.6121024
  45.1846535  22.4143605   5.7818526  45.6771166  21.1852221   6.5151233
   9.1591966  15.2681088  88.4514141   8.9710718  14.4441187  88.9007282
   8.4138471  15.8308721  88.6611366 101.2725545 102.8224128  66.3885736
 100.4921938 102.8289323  65.8342934 101.9014717 102.2820079  65.9103966
 102.2793580 106.8604609  64.7391367 102.7038599 106.0025763  64.7471285
 101.4294601 106.7033183  64.3277836  52.0111990  11.6410065  73.6879730
  52.7416086  11.6448772  73.0693245  52.3011541  11.0674167  74.3973017
 104.6374489  85.2114152  31.6705370 103.9402796  85.1760434  31.0156035
 105.3435970  85.6957483  31.2427449   0.1836621 104.0976375  80.4918861
   0.5843912 104.8790204  80.8727932  -0.2070130 104.4036018  79.6733570
  50.9798717  19.7970366  68.2443190  51.6961193  19.1800225  68.0942726
  50.4842472  19.4168854  68.9696312  60.7291819  85.6995940  36.1212635
  60.9909249  85.1665854  36.8720102  60.6639172  86.5886688  36.4698601
  57.9447174   3.2117239  73.2360601  58.0856419   2.2653691  73.2640600
  58.6314249   3.5390532  72.6550913 105.0203300  77.9196429  60.4938555
 105.5223299  78.6556267  60.8439302 105.0091625  77.2779583  61.2040281
 103.8740184  30.6249022  94.2717838 104.7188499  30.8608103  93.8885880
 103.4735551  31.4629650  94.5031166   6.1203133  88.5895037  54.9419737
   5.6561886  89.3174195  55.3554487   6.2239300  87.9436588  55.6408119
  70.0812752 100.2122002  94.0537167  69.4618298 100.0494789  94.7650814
  70.6770743 100.8755045  94.4019794  84.2133045  15.3851950  71.5329981
  83.8319874  15.4998696  70.6625509  84.9260139  14.7598445  71.4017820
  30.0372910  18.9594555  75.0683260  30.8336496  19.4903934  75.0560522
  30.3334546  18.0781710  74.8406029 103.9542819  82.9122900  89.3271637
 104.0599609  83.1387734  88.4031677 104.3955613  82.0678281  89.4187641
  31.8837285  19.7122693  92.2850037  32.1306348  19.5047414  91.3837814
  32.6262856  19.4155955  92.8111458  84.6278061  33.9135699   5.7949752
  83.9245619  33.8688664   6.4428061  85.3703560  34.2832451   6.2726611
  83.6153126  34.9692440  41.7349577  83.3794403  35.7098746  42.2935867
  82.8397179  34.8207188  41.1940002  84.2215843  84.3612336  65.2291107
  84.0624035  84.3845867  66.1726904  83.7363673  85.1114845  64.8857164
  96.1123932  91.9230162  39.5038557  95.3762663  91.8479931  40.1110792
  96.6633500  91.1654114  39.7006106   1.7194697   2.5873378  25.9157109
   2.2295693   3.3945793  25.8494449   1.4971539   2.3695086  25.0105286
  55.9151268   5.5147654  51.5148497  56.5466976   5.0265020  50.9866858
  56.3886786   5.7267094  52.3192501  11.2730681 100.6891768  60.3585339
  11.2142502 101.3957553  61.0015869  11.3511168 101.1375725  59.5164633
   4.8481737 101.9576543  57.0169210   5.5509316 102.3761707  56.5197229
   5.2926480 101.5397941  57.7545309  25.7504296   0.5052053  59.3469429
  25.8562136  -0.0571723  58.5796261  26.5522718   1.0272878  59.3736267
  90.6356634  97.4155914  68.1284237  90.4659248  96.8420922  68.8757658
  91.0989214  96.8606388  67.5010061  89.1037286  53.7384007   8.0892676
  89.7384704  53.8300445   8.7998504  88.3978380  53.2123201   8.4650153
  72.8072203  97.1530299   8.7513751  73.5096945  97.2583537   8.1097621
  72.0615281  96.8380074   8.2405681   0.8669125 107.8246664  44.2555714
   1.5915953 107.6892001  44.8660755   1.2868630 107.9034516  43.3990288
  75.1433642  74.7943830  48.1247234  74.3570734  74.3040275  48.3645773
  74.8270715  75.6787156  47.9399347 114.4642068  92.6247167  72.6646996
 115.1324750  92.5898206  73.3491182 114.2783357  91.7073404  72.4644375
 109.8079277  93.0999779  30.3041720 109.9378992  93.7569939  29.6203089
 109.1468097  93.4823870  30.8811641  11.7843853 109.2598459  74.6910763
  11.3578354 109.0571676  73.8584852  12.1597039 110.1309003  74.5621109
  72.8742064  57.0989117   1.3660544  72.8953184  57.6164274   0.5610866
  72.0559300  56.6052173   1.3120002  58.0056524   4.0047157  28.3834076
  58.6517429   3.4097433  28.0028701  57.8860855   3.6876419  29.2786169
  43.0861235  17.6958668  80.2052212  43.1854820  18.5771036  79.8449707
  42.4679470  17.2643054  79.6154404 111.6346146  99.2738222  62.3638582
 112.2065617  99.8738372  61.8852282 112.2072102  98.8622653  63.0111504
  40.3416681   4.6924707  70.8038044  41.2089491   4.9471194  71.1187744
  40.2780342   5.0855422  69.9333572  97.8624916   4.1555631  40.4908514
  97.9309559   3.5937867  41.2628269  96.9596195   4.4731382  40.5050468
 100.7056046  93.8065385  66.3431263  99.8399568  93.6639940  65.9602833
 100.5286885  94.0458988  67.2528744  29.6111345  26.9899035  89.1225910
  28.8071918  27.5024271  89.0375805  29.3289447  26.1657429  89.5192719
 109.8612471   5.7116210  48.8486814 110.0056257   6.6529751  48.9448023
 109.1848673   5.6405914  48.1751108  48.6000443  11.8174231  54.6389961
  48.7055254  12.3804581  53.8721228  47.6703501  11.5896463  54.6428490
  76.2098973  93.0326151  83.5293770  76.7907878  93.7477159  83.7890434
  75.3874136  93.4641504  83.2980061  93.6537374  52.0519860  21.5747947
  92.8533949  51.8369164  21.0958117  94.3617786  51.8289124  20.9705276
  17.8010498  84.7568225  70.1103783  18.3755099  84.7202634  69.3455935
  18.3328615  84.4090390  70.8262396  71.8760885  61.3437049   3.9511508
  72.6065577  60.7261054   3.9860743  71.1035527  60.8120357   4.1428489
   9.7812687  97.6034092  74.4483423   9.5139920  97.7854096  73.5474157
  10.7196223  97.7919006  74.4625092  60.3922844  -0.0173957  84.4814587
  60.0584555   0.1832181  85.3558350  59.8979759   0.5586989  83.8983631
  18.9628350  87.1742319  94.4682693  18.4825789  87.9513644  94.1825199
  19.8714577  87.4668192  94.5392036  38.1381451 107.5425529  93.2043266
  38.7073504 107.4442329  93.9675903  37.6033865 106.7486718  93.2004929
  87.7436222  70.9048109  18.5909766  88.4563984  70.9436171  17.9532641
  87.9493822  70.1439922  19.1341609 104.9292541  83.2930326  86.6847992
 104.5966912  82.6553797  86.0531139 105.1083876  84.0755796  86.1634922
  44.7574949  19.6621549  45.9722424  44.0479422  20.1061702  45.5078983
  44.3960571  19.4740438  46.8383932  59.2390622 108.9830462  76.0611629
  58.4736360 108.8539380  76.6212368  59.0679551 108.4388427  75.2925301
  71.0620059  49.7913640  28.7423724  71.7446293  49.1732024  29.0033931
  70.5039824  49.2936765  28.1447524  29.3768811  41.1755800  85.1782608
  28.7430644  40.6342363  84.7076702  29.0172315  42.0613766  85.1308537
 116.0275520  92.6360278  10.6383819 116.8153871  92.6348715  10.0947398
 115.3040708  92.6327424  10.0116462  16.9090104  20.1298451  67.8640032
  17.6363242  20.7377815  67.9968929  17.0393157  19.7903955  66.9785500
  28.4025465  80.5518889  61.7763853  29.2732464  80.9075212  61.9542742
  28.1097304  81.0163330  60.9923077  67.0547485   6.9756520  39.9003458
  67.5576878   7.7647847  39.6989584  66.3538742   7.2790712  40.4773569
  33.4106480  98.3703481  71.3237619  33.8504349  99.1497707  71.6633511
  32.9977118  97.9747617  72.0913744  26.6130291  88.4749197  70.7928467
  27.1074616  88.1183266  70.0548697  26.8348824  87.9036831  71.5281725
   5.9265982  97.5999474  91.4501095   5.0951134  97.9289793  91.1086464
   6.3578688  97.2060322  90.6917763  36.4973354   3.1918582  71.1713076
  37.1161222   2.5041819  70.9254742  35.6415200   2.8454822  70.9186506
  23.9092350  24.7775865  63.7154961  24.1788387  25.6840515  63.8633680
  22.9585528  24.7893333  63.8263845  -0.2115215  90.8161508  69.9998474
  -0.0451173  89.9515759  69.6242762   0.3339588  90.8448576  70.7858849
  37.5686908   5.0022107  43.0982590  37.9549313   5.5128700  43.8097906
  37.3323059   4.1677457  43.5032558  64.4945444  82.2388696  38.7776256
  63.7888432  81.5972733  38.8586879  64.6176792  82.5730156  39.6661162
  72.4567270  20.9584904  65.9622765  71.9606018  21.7523146  66.1621094
  72.0535851  20.6188536  65.1633072  75.7982016   6.8020439  48.3302879
  75.1546764   6.3859588  47.7567196  76.1240911   7.5464058  47.8243732
  37.4310194  92.3811256  86.9710827  37.4422013  93.1480908  87.5436878
  36.6837345  92.5263237  86.3908100 102.6228572  97.8215026  59.0478611
 103.2270981  98.5605072  59.1185617 103.0560018  97.1117496  59.5220661
  47.4896574  25.1901388  87.5752831  47.1415377  26.0533309  87.3518085
  48.1059313  25.3576756  88.2882881  59.6748781   8.2518148  71.9314194
  60.4589701   8.1551635  71.3909674  58.9586926   7.9559547  71.3694811
  39.4672918  41.8268156  62.8989506  38.6601591  42.3163986  62.7406025
  39.3334079  40.9924221  62.4494076   5.9642874 101.5099388  48.1396627
   6.3065134 102.0379757  48.8609743   6.0232388 100.6078320  48.4542418
  83.7882293  60.7163565   6.2770099  83.5042537  61.6281443   6.3420791
  83.4838022  60.4315911   5.4153460  23.5182762   0.6045451  52.6571846
  22.9757547   0.2805564  53.3761644  23.5992002  -0.1416367  52.0631313
  74.0242386  12.0571947  82.8579044  73.4605217  12.7002084  83.2880116
  73.4205818  11.3902318  82.5308132  21.3838005  34.6269703  58.6923122
  20.9294438  35.0149536  57.9444742  22.2932625  34.5468378  58.4047508
  33.8647342  11.8304789  66.6747475  33.7930965  11.8090880  67.6290226
  34.3855309  12.6123250  66.4911222 113.8522173  87.4617695  54.4498873
 114.7001077  87.8173088  54.7161674 113.9974523  87.1357917  53.5617018
  90.1514471 106.7000663  71.3137341  90.2998115 106.8091136  70.3744125
  89.6718348 107.4866998  71.5733719  64.9906826  24.1269994  40.7138109
  64.1165829  24.4111800  40.4465628  64.8913145  23.8790083  41.6329718
  56.1749220  24.1011000  87.2212601  55.7819843  24.5687795  87.9582214
  55.8247471  23.2126999  87.2872448  14.9159025  37.7364271  17.6283378
  14.7600149  36.9305675  18.1207961  14.0663599  38.1772702  17.6152724
  11.0175120  98.7967121  47.5328159  11.9746147  98.8082897  47.5255156
  10.7730948  98.6266839  46.6231012  93.7798977  10.8460510  71.8508768
  93.5519981  11.4333344  72.5715637  92.9454136  10.4620528  71.5817928
 101.9077922 105.4772344  86.2119293 101.6340257 105.0050058  85.4256248
 102.2157551 106.3236534  85.8879471  57.1316290  12.0674431  57.3750305
  56.3438892  11.5328956  57.2752428  57.0222664  12.4993432  58.2222223
  51.6764164   0.5212400  53.4931040  50.7296371   0.3804249  53.4976006
  51.9083595   0.6193200  54.4165802  39.9175191  18.6799705  65.5851555
  40.0288630  19.0251112  66.4709949  39.2084575  18.0418253  65.6641102
  91.9139827  52.6519782  26.1108989  91.7323602  53.1324913  26.9185847
  92.5599445  53.1894492  25.6525439  13.1153071  35.0000286  73.8708115
  12.6652837  35.5927110  74.4728422  12.4138331  34.4834089  73.4742403
  98.2920552 102.3628109  60.9822083  98.7642170 102.8203630  60.2865505
  98.9469195 102.2271960  61.6670418  37.2585273   3.3227983  73.7128830
  36.9025707   3.4953249  72.8412390  36.9409919   2.4468395  73.9321947
  20.7446896  97.4362742  93.0214024  19.9164139  96.9596540  93.0763626
  20.6414925  98.0089914  92.2614193  73.7742602  81.4352083  58.5477543
  73.5120379  82.3079538  58.8406467  74.4573485  81.5962052  57.8968287
  69.0948057   6.5727478  50.9678507  68.3950281   6.4749289  51.6135836
  68.9813709   7.4588716  50.6241179  92.5348915  71.4632373   2.6403541
  92.3517002  72.3048787   2.2228450  93.4877790  71.4420252   2.7286071
  47.7793217  25.1820374  65.0374317  48.4288931  24.6174383  64.6184826
  46.9899702  24.6429086  65.0873518  38.2661486  21.1731958  77.6961327
  37.3378038  20.9545302  77.6149368  38.6116791  20.5262876  78.3112335
   0.5239092 105.8989020  68.4652853   0.2161156 105.4198252  69.2346907
   1.2630307 106.4162397  68.7851191  93.1943989   6.2327152  33.0561900
  93.1816101   7.1193194  32.6956344  92.5343704   5.7588381  32.5501871
  81.7904282  14.6664917  89.8868656  81.3364887  14.7710955  89.0506744
  82.5147057  15.2909756  89.8459816  91.9696678  89.6413069   6.9155807
  92.5102152  88.9122944   6.6113013  91.3877596  89.8314409   6.1797351
   8.4397303 100.6926685  58.7812090   9.0027891 100.0108504  58.4147072
   7.6475512 100.2288961  59.0524960 110.3187097  71.9042425   1.0896605
 110.8878435  71.2013118   1.4030475 110.4344190  72.6084630   1.7275638
  64.6327639   9.3928862  84.4522953  64.1534138  10.2062774  84.6099281
  65.5323124   9.6736956  84.2843819  30.3621947 102.9630327  76.9855738
  29.9398075 103.8187837  77.0598221  30.7717596 102.9723435  76.1204720
  67.5089492  43.3481054   6.3263625  67.2205390  43.2840149   7.2368258
  68.4024991  43.0049543   6.3334483  11.7356859  98.8060676  86.4274788
  10.8921467  98.4458827  86.7012310  12.2509610  98.8481020  87.2330570
  85.4376316  15.1727939  77.9870176  86.0056114  15.2670562  78.7517023
  85.1995182  14.2457235  77.9783487  81.6861148  91.7740845  75.6363583
  82.2043160  92.5126826  75.9560061  82.1521784  90.9999859  75.9522533
 101.6650404  91.3660674   7.4940413 101.4728750  91.9757442   6.7815799
 100.8862365  90.8126216   7.5522822  82.8623594  61.8725406   3.6589259
  82.7646126  62.7935253   3.9007205  83.7197365  61.8256597   3.2359237
  55.9834372  83.2664298  55.5959892  56.6609274  83.1069016  56.2530994
  55.9934412  84.2148494  55.4670334  53.6482321  97.2816872  78.7266684
  52.9139029  96.6708564  78.6643600  53.2495867  98.1085812  78.9978981
  99.2879558  91.8823242  87.2570610  99.3893577  92.3130631  88.1058407
  99.4405652  92.5768244  86.6162777  16.8770968  99.1117024  72.3677683
  16.8691527  99.1091370  71.4106035  17.7484070  99.4333910  72.5991964
  62.2849083  21.1328411  70.8983564  61.7940474  21.7940068  70.4103565
  63.0544615  21.5987706  71.2253523 114.2697443  36.5487890  13.2642764
 113.8142503  35.8597224  12.7806014 114.0641893  37.3525302  12.7868098
  22.8809201  50.8951091  94.9675274  22.7331911  51.7570543  94.5783520
  23.8147389  50.7302427  94.8370171  55.7000875   2.9375836  67.2155476
  55.6004953   3.8608325  67.4477673  55.8263826   2.4921674  68.0533361
  17.3674570  92.3601949  85.5641079  18.0419432  92.6145148  86.1938953
  16.5529810  92.6992702  85.9354401  89.8093700  25.0299406  74.9804497
  89.2213726  25.2356267  75.7072163  89.3665981  25.3804398  74.2075729
  98.1233562  58.7216677   3.6266536  98.4611906  58.3754610   4.4526404
  97.5140155  58.0513834   3.3173770  61.4757776   1.5416601  74.5612097
  60.7459450   1.2671965  75.1164103  62.1136379   1.9133215  75.1704931
  41.4848791 105.0858869  86.8497849  41.0720812 105.7838302  87.3584175
  40.7951008 104.4319742  86.7365170  55.8786249  38.2250857  41.5004539
  55.5148172  38.7700605  40.8026886  56.6866350  37.8697443  41.1301994
  76.7890882  18.1123757  63.6648989  75.9139729  18.0884326  63.2778215
  77.3817062  17.9749918  62.9258728  23.6901556 103.1502955  91.1180592
  24.3150984 102.5041794  91.4470100  24.0153157 103.3759063  90.2465057
  34.0843712 102.4491500  78.9668036  34.5195519 101.5988749  79.0291119
  34.5584141 103.0066215  79.5838451  52.6469517   7.9132116  79.9450159
  52.5207949   8.3717722  79.1143322  51.9308090   8.2218117  80.5001259
  86.9705105   7.1208560  56.4619303  86.2213707   7.1780837  57.0550108
  86.6520500   6.6021699  55.7231617 106.9349861  31.2620568  69.8952436
 106.8464565  31.9020486  69.1889811 106.9890881  30.4175830  69.4478369
  61.7090607  30.3794622  25.8520842  61.1111546  29.6573997  25.6587791
  61.1350632  31.1232901  26.0350466  39.6697747 100.7669633  88.1317806
  40.5447089 100.4559057  87.8994751  39.6871172 100.8401316  89.0860271
  15.1525068  18.9515960  45.5158615  15.2659309  19.0130603  46.4643288
  14.6425855  18.1518507  45.3869486  16.2992178 100.2784603  83.5646439
  16.0412251  99.6347820  82.9048252  16.8312346 100.9132486  83.0848122
  50.5898905  26.0061860  56.6828632  51.3646507  25.8518934  57.2233868
  50.5907679  25.2863193  56.0519743  56.0145855  24.0369701  59.8769093
  56.2752295  24.9271274  60.1133776  56.5279531  23.4749365  60.4572582
 110.8927632  99.5942938  70.1093721 111.6949130  99.0857136  70.2282619
 110.3962303  99.1080617  69.4511414  35.2657676  19.4565034  57.5737953
  36.1059594  19.0122509  57.6876020  35.4623365  20.3818059  57.7201128
  20.3166424 104.4183844  69.0486002  20.6535994 104.5174348  69.9390364
  19.6701990 103.7154811  69.1139412  51.9617558   3.0723041  87.0373917
  52.0381594   3.1385455  86.0855484  52.3995066   2.2496510  87.2561359
  37.2162890  43.9825058  62.2086000  36.3486195  43.5861540  62.2878885
  37.5056505  44.1082668  63.1123066  64.7177566  39.3229203   1.8408698
  64.4466819  38.5106115   2.2685451  65.0375069  39.8743932   2.5549144
  45.4707003  18.2589126  60.2952576  45.1957798  17.6504374  59.6093988
  44.6518040  18.5916090  60.6626177  30.2950859   4.9878815  71.6913986
  30.2119470   4.5406032  72.5335741  30.8395743   4.4043133  71.1629915
  52.1388531   5.2710289  38.5556602  51.4262629   4.9658421  37.9941392
  52.9358768   5.0073683  38.0957961  27.6260161   7.7704364  82.8880787
  26.7056489   7.9476589  83.0823708  28.0505943   8.6268568  82.9381657
  69.4997454  16.1959684  62.2669315  69.5612860  17.0174384  61.7794561
  69.3801498  16.4661241  63.1773949  75.4649032  55.4762959   8.4444159
  75.8605803  55.3812994   9.3108195  75.0125993  54.6459795   8.2953280
  92.1966171   7.4225378  64.8636818  91.4368248   7.8674728  65.2391577
  92.4567795   7.9741335  64.1259241  69.6221781   8.5073137  88.6231804
  68.7100792   8.5822719  88.3426666  69.5838642   7.9878563  89.4262505
  83.1838812  74.8872797   9.5973414  83.6894382  74.1092412   9.3621844
  82.2991861  74.7023528   9.2821425  36.9051576  38.1172705  59.5067549
  37.0125270  38.5910177  58.6819696  36.0175228  37.7614951  59.4648170
  53.3631849  18.9849710  66.3821363  52.7508736  18.3662724  65.9839916
  54.1416931  18.9423954  65.8268452  49.0510082  23.8505483  51.2820625
  48.8956404  23.7489533  50.3430367  48.4103632  24.5045757  51.5614462
  40.3940569 103.7984883  67.6808071  40.2967106 104.2090517  68.5399914
  40.3326021 104.5245295  67.0600653   3.0555950  78.5165881  54.7751188
   3.5435187  77.7935576  54.3809175   3.1900536  78.4109282  55.7169199
  78.5842466  19.7391605  87.1544075  78.8847828  18.8303721  87.1508598
  79.0976524  20.1585174  87.8449059  30.7360016 105.1592695  38.8503790
  30.9896647 105.4359602  37.9698491  31.5661417 105.0126123  39.3038058
  74.9807419  67.3038845  12.1821231  75.1344241  68.1778805  12.5409430
  74.0462793  67.1491795  12.3202533  77.5564541  55.0974306  23.2208365
  77.1705211  55.8036149  22.7025718  78.4468282  55.3956983  23.4065837
  36.7058754  37.6294827  68.5824347  37.3612642  37.2449112  69.1645002
  36.7335296  37.0835161  67.7966976  18.5357833  45.2740049  68.7928200
  18.0044341  44.4891119  68.9263964  18.9607739  45.1343775  67.9465818
 114.7803069  95.5120169  75.8191729 115.3238083  95.3121006  76.5813255
 113.8843180  95.5067789  76.1559343  14.5512186  68.2491731  72.7810478
  14.1708790  67.7137803  72.0846796  15.4867636  68.2740926  72.5801373
   3.9235627  85.9819173  32.2267890   4.7871434  85.7068204  31.9189239
   4.0452372  86.8910789  32.5003815  14.6740842  13.5928941  75.7475424
  15.4278588  13.9047599  76.2483358  13.9965332  14.2517889  75.8992481
 106.3466419  42.9310327   7.3219413 105.4660429  43.0212812   6.9577521
 106.8913521  42.6865404   6.5737838 112.1252156 103.9619618  50.6312466
 111.9752384 104.9057724  50.5768394 111.2796474 103.5999595  50.8962011
  27.7891480 100.6761777  72.3431492  28.6473690 100.2596771  72.2643089
  27.4783455 100.7568865  71.4414167  48.9050913  33.5402393  41.8911505
  48.9093399  32.5835037  41.8616390  49.3987274  33.7576652  42.6818991
  33.5024548  10.4376483  83.2310390  34.4546795  10.3533375  83.1821156
  33.1921101  10.1499915  82.3724461  62.7603830  78.6844473   2.4531001
  62.7813448  77.8717117   1.9478721  62.3991002  78.4294801   3.3020419
  50.4230022  16.4364123  67.5066423  50.8621883  16.5449822  68.3501816
  49.9038410  15.6386256  67.6078367  45.5293798  22.1878958  78.0623388
  46.3985729  22.0576072  77.6831818  44.9248171  22.0134902  77.3410082
  72.9792261  26.3191509  55.3626347  73.8925648  26.0349154  55.3980684
  72.7715921  26.5707278  56.2625408  39.6517359  76.0442757  57.9870319
  39.3925558  76.6100096  58.7143564  40.0886999  75.3021383  58.4047890
  67.3445977  77.2011070   8.6990375  67.5105323  77.2464423   9.6406478
  67.3497952  76.2649040   8.4997195  51.9108772  24.7028828  86.5760517
  52.7196884  24.3869710  86.1732483  51.3509464  24.9383068  85.8362675
  46.0437250  25.8173180  57.9274654  46.4790440  25.9724045  58.7657261
  46.0680342  24.8668003  57.8171968  51.5588617  35.1714182  38.7456465
  51.7163658  35.1724458  37.8014946  51.3412428  34.2622232  38.9511776
  69.6339989  15.6771255  76.4779329  68.7856817  15.2420628  76.5633869
  69.4242477  16.5456128  76.1344719  36.7957354  35.5909634  66.5958834
  36.0687256  34.9818778  66.7251205  37.5328493  35.1841712  67.0513105
  99.0652347  97.6030230  43.5360956  99.9472714  97.8754162  43.7891674
  98.8769604  96.8502783  44.0965986  36.2244582   9.9242401  82.8262997
  35.8271050   9.5646691  82.0331669  37.1451807  10.0503063  82.5969219
  67.2551918  18.5016167  59.8464108  68.1943655  18.4085655  60.0061655
  66.9097757  17.6122904  59.9239826  38.4097767  41.9870043  71.1819029
  37.9867482  42.0139503  70.3236771  39.2835736  42.3468971  71.0296345
  66.5641975  39.1142774  58.9889336  66.4961767  38.2852101  59.4624853
  67.4913263  39.3459535  59.0435743  53.0901194  21.2482667  83.1850529
  53.9518023  21.6342068  83.3424759  52.7652168  21.0239410  84.0570259
  53.7093353  44.9544239  84.1840458  53.5734415  44.9457121  83.2365799
  53.6566544  44.0341520  84.4420338  57.5069941  91.1192970   4.1688270
  56.8234218  91.7477231   3.9363593  58.3209850  91.6200762   4.1152305
  42.3729992   6.0233343  52.0253849  42.7925205   6.8070263  51.6703320
  41.5267467   5.9820169  51.5799809  61.2587690  32.0103455  41.4353943
  60.8409643  31.6616583  40.6479359  60.9777784  32.9246902  41.4707470
   9.0552985  94.1806268  79.4093800   9.5358263  94.5714390  80.1391697
   9.5694577  94.4083082  78.6347628  54.3203211   6.1065495  83.1185341
  53.4789753   6.5429538  83.2524109  54.4556618   6.1327094  82.1713066
  86.4189911   5.6670845  73.2486057  87.0691299   5.8267331  72.5644541
  85.8220005   5.0239027  72.8663111  44.6713305   5.7353473  82.7800751
  44.1469431   6.0697961  82.0524788  44.0815115   5.1449454  83.2488632
  53.3096075   0.4510440  86.8884087  53.5531330   0.5075993  85.9644413
  54.0465689   0.8453783  87.3549080  39.1400075  23.6348486  90.1945019
  38.5384560  23.0909324  89.6860504  38.7873363  24.5211124  90.1145649
  16.7341267 104.0406197  74.3815517  17.4950920 104.2271506  74.9314308
  17.0762001 103.4882843  73.6785984  22.1802807   5.6385839  79.5412588
  21.3604140   5.8057046  79.0763712  22.0935416   6.1237758  80.3618050
  37.1482754   6.0413259  64.2510128  37.0707059   5.0873137  64.2422915
  38.0029750   6.2085110  64.6482229  56.7908192  32.6651168  52.7145672
  57.7327394  32.5571346  52.5827885  56.3901949  32.1216559  52.0360518
 106.1123873  79.9583935  67.0179796 106.9609714  79.5559525  67.2028494
 106.0295010  80.6532883  67.6710367  53.3618246  97.3925208  57.4889421
  53.0866419  97.9159283  58.2416391  52.8613173  97.7477013  56.7543888
  18.6297499  95.7915842  60.7661343  18.9127337  95.2216327  60.0510788
  19.2735802  95.6442665  61.4589691  92.5381674  51.0783954   9.8398227
  92.9660762  50.2984144   9.4866103  93.2029451  51.7644279   9.7793311
  74.8403835  18.4459901  55.7615423  74.1872358  19.1425669  55.8279324
  74.9988985  18.3550513  54.8219490  77.6678801  18.6300194  70.9468365
  77.9178190  17.7824557  71.3148022  77.2408628  19.0887070  71.6703606
  13.7672173 107.5407080  73.7807417  13.2040011 107.9643083  74.4284964
  13.1671320 107.2549062  73.0919409  37.6833378 105.2424469  83.7480736
  37.3544728 105.8811032  83.1154633  37.0078360 105.2064519  84.4252968
   2.2830759 105.1107060  72.0816469   2.9722678 105.7057875  71.7864656
   2.1403109 105.3455942  72.9985285 112.9816784  45.9240560   9.2451877
 113.2653154  46.2850355  10.0851077 113.6760868  45.3123097   9.0006465
  90.2286625  14.2129314  46.0742521  91.1057949  14.4297051  46.3902950
  90.1533127  14.6763539  45.2401114 101.7216278  88.9702462  38.8561583
 102.2740150  88.3081126  39.2717028 102.0589686  89.0373205  37.9628873
  31.4044070   8.1538570  90.9635258  30.8219886   8.8808763  91.1836624
  32.1968865   8.5744107  90.6298351   3.1060492 108.4008343  87.6956367
   2.7516829 108.5634504  88.5698223   3.7992655 109.0528862  87.5930882
   6.2714993 108.9810234  50.6084681   6.2621104 109.7391124  50.0241375
   5.4713904 109.0680888  51.1266232  70.7971181  38.7861292   5.5817622
  71.1144651  38.2977776   6.3413924  71.5430750  39.3224065   5.3130836
  21.2434088  94.0558230  70.5705118  20.4540716  94.4870817  70.8979225
  21.0221278  93.1245791  70.5634308   9.4001520   6.0969167  12.7936572
   9.5074785   5.1560980  12.9335612   9.6490228   6.4931637  13.6286944
  68.0151428  40.7590668  10.0100631  67.4220384  41.4617698   9.7442264
  68.0945505  40.2058535   9.2329711  69.4160366   7.1571720  90.8373451
  70.1973820   6.6248953  90.9870434  68.7060642   6.5211344  90.7499981
  30.7517028  10.8560085  76.5995455  30.5598521  10.4155016  75.7716703
  30.0720310  10.5468631  77.1984673   7.2366749  96.2598693  75.0086498
   6.6645943  96.9554030  74.6843195   8.1213032  96.6119670  74.9102163
  21.8386828  85.9317636  92.6278305  21.7809092  86.8735742  92.7887344
  22.1776043  85.5692887  93.4463501  99.9197603 103.2956909  55.6130600
 100.0917984 103.7022381  56.4623833 100.1831532 103.9570706  54.9731874
  83.5796560  29.9713020   0.3679103  84.4356264  30.2135687   0.7212657
  83.4705557  30.5313830  -0.4006177  33.7127805   8.2334256  89.4187260
  33.5126638   7.3128414  89.2492867  33.4639812   8.6849880  88.6122417
  75.0136137  19.5460761  81.8459988  74.9729967  18.8905990  82.5423717
  74.1403818  19.5336401  81.4541531  47.4666309   5.7552451  88.3149147
  47.0941782   6.2654155  87.5957203  48.0831480   5.1582694  87.8909302
 111.0080017  66.9557791  22.9726809 111.3214935  67.7504258  23.4045333
 110.1687301  66.7696099  23.3936233 105.3375829  18.3132439   2.1625442
 104.8512615  17.4890666   2.1411723 105.6031526  18.4110026   3.0769462
  60.6923723  31.2445903  79.4965601  61.5424728  31.0041165  79.8649788
  60.8355856  31.2543321  78.5501814  66.7104006  24.1326165  72.6278448
  66.7925596  25.0299501  72.3049307  67.3529434  24.0727019  73.3347988
   6.3439356  89.3319964  84.4804192   6.9185768  89.6039461  83.7648296
   5.8881890  88.5613155  84.1419220  28.6866556  74.0934490  75.2034426
  28.9678131  74.5763730  75.9805965  29.4981610  73.9044737  74.7322893
  36.9960104 109.1212806  68.3137226  36.1823403 109.3689337  68.7528610
  37.5046192 108.6708973  68.9880371  55.6248331   0.8313843  69.6916676
  55.5817890   1.3582030  70.4896879  55.5030727  -0.0691776  69.9923229
   2.9846703  98.1425714  81.0975933   3.1527840  97.2002506  81.0985851
   2.0309721  98.2156836  81.0608292  42.5444603  34.4504523  79.5555639
  42.1378088  34.1312933  80.3611755  42.8936911  35.3107953  79.7881079
  64.2304312 105.9550213  70.6891584  64.6765887 105.9943455  69.8432112
  64.8640143 106.3130152  71.3109684 103.1469406  26.9586687   0.3615111
 102.8237261  26.1003141   0.6353587 103.8954223  26.7639809  -0.2024919
  20.5569826 107.6130354  69.5787811  20.2211748 108.0548241  68.7988520
  21.4400898 107.3354580  69.3352652  29.9435746  63.3781099  79.3669415
  29.4962250  62.7431583  79.9263573  30.4938113  62.8455257  78.7926340
  21.0141360  74.4504427  63.2496595  20.5729281  74.8391723  62.4943733
  20.3022229  74.1715645  63.8255405  46.7278910  13.4551060  68.9017868
  45.8324194  13.6689901  68.6398268  46.7965698  13.7732530  69.8019505
  87.5786842  21.2815170  22.7121943  88.1847395  20.7187514  23.1940955
  86.7432226  20.8153586  22.7427787  49.8859215  37.2639179  62.9615641
  50.0526667  36.4934874  63.5045767  49.2193794  37.7554846  63.4414768
  17.8741074   9.0237314  29.6275568  17.4519122   8.1671655  29.5621395
  18.7412786   8.8932633  29.2438626  64.4265259  67.2614961  31.3932055
  65.3373040  67.4780302  31.5927810  64.1005505  66.8406336  32.1887225
   7.4090515  86.7009758  78.5946655   7.6384198  86.8347477  77.6750326
   7.6654230  87.5158834  79.0264416  59.9523544   2.3493262  41.2303209
  60.0891590   3.1834397  41.6795111  60.3487158   1.6978848  41.8089008
  87.7129234  37.7261608   0.4652995  87.5329412  37.2990589  -0.3722173
  87.6543153  38.6622684   0.2742499  42.4968767  38.6577296  68.6877394
  43.3740091  38.9803791  68.8945436  41.9115353  39.1986561  69.2178392
  56.8814564   8.5736954  49.6674585  56.4525986   8.3515620  48.8410378
  57.8172636   8.5291135  49.4712305  52.8512716  13.1462133  65.8634233
  52.6312113  13.3819759  64.9621916  52.0268393  12.8359389  66.2379503
  30.8390557 101.9857609  82.9085064  30.3469168 102.7838355  82.7158737
  30.9033476 101.5349209  82.0665836  96.4836944  71.6104810  22.9881019
  97.4195684  71.7598801  23.1224650  96.0998405  72.4873095  22.9805202
  68.4745169  10.0276470  63.4892273  68.9136791   9.5330626  62.7973032
  67.5796986  10.1436126  63.1697321  84.8522092  94.8003470  38.3017945
  84.7985221  95.7547795  38.3508801  84.9892850  94.6156370  37.3726416
  32.9795766  26.6835999  84.9366760  32.2682333  27.0493317  85.4624748
  32.8655767  25.7357264  85.0057411  34.6479021  94.0150785  62.3171425
  34.9487864  94.3463730  61.4710093  33.8077961  94.4510125  62.4600363
  94.2029322  80.3656148  86.8052292  94.9516083  80.8955740  86.5316296
  94.3230546  80.2499270  87.7477932  35.3558766 102.4559938  75.1515388
  35.8129298 101.7165058  74.7509241  34.6263014 102.0578676  75.6263494
  27.5187765  83.2880186  81.7808723  26.9992291  82.9740619  82.5209618
  28.3982168  83.4078097  82.1392918  74.4151402  15.5133200  65.9010506
  74.5143747  16.4645219  65.9410334  74.6498919  15.2856207  65.0014544
  30.2566038  95.3919529  78.1924868  30.4289566  96.3119292  78.3929110
  30.6676804  95.2515566  77.3395300  82.1763862  54.4691851  16.9656390
  81.6250480  54.0132431  17.6015395  82.9780210  54.6739726  17.4469775
  44.4043970   1.3816717  48.7845564  45.1435709   1.6065577  48.2195091
  44.2621279   2.1650088  49.3159437  52.4777555  21.2100649  72.0850134
  52.0060444  21.8634224  72.6015854  52.1755695  21.3504601  71.1876822
  46.0807610  29.7742438  59.6028423  46.9316339  29.9813819  59.9892807
  45.4892063  30.4388332  59.9558544 111.9802237  89.4512343  59.7053099
 112.4296022  88.6594891  60.0009918 112.6853801  90.0435066  59.4441652
 116.2169290 103.8252258  75.6415129 115.3814031 103.4090417  75.8534575
 116.7915512 103.5941576  76.3713408  57.2455454  37.1116138  66.1136389
  56.6307163  37.6781535  66.5797424  56.7850304  36.2767410  66.0290956
  57.0842791   1.9437230  83.5347557  57.3125982   1.4168724  84.3006039
  57.8798246   1.9499202  83.0024910  83.6402858  87.9082136  29.0876025
  82.8221477  88.3737545  29.2612571  83.3747638  86.9979339  28.9567489
  11.1632286  93.0402195  83.4032536  11.1691653  93.7840819  82.8008652
  12.0511376  93.0136978  83.7598324  99.8713232  99.3151271  61.0006189
  99.5423771  98.6876439  61.6442776 100.6254602  99.7223615  61.4268446
  85.0354398  64.5233892   4.5426196  85.5701889  63.9452867   3.9985007
  85.4258217  64.4605975   5.4143352 102.4132634 105.8099809  71.4308167
 101.8921185 105.0271099  71.2526226 103.3210159 105.5133458  71.3658142
  74.2194939  22.0321202  76.7156649  73.8102531  21.1873817  76.9032001
  73.9843893  22.5831532  77.4622011  69.1342926  39.6728444  59.8009109
  69.8534918  39.0552211  59.6685410  69.3749666  40.1547194  60.5921793
  38.5743380  27.6564050  64.8511219  39.0742087  28.4476638  64.6504402
  37.8513718  27.6642966  64.2238379  65.6673861  16.6494370  57.6333857
  66.3795328  16.1323309  58.0097914  64.9132347  16.0600054  57.6413727
  79.3607044   3.6798322  53.9886951  79.3216276   3.3640331  53.0859327
  79.8330927   4.5103905  53.9316607  16.2726532 107.8714380  83.4830475
  16.6529785 108.4809617  82.8505325  17.0112263 107.3367780  83.7743759
  12.1578156 106.7581194  71.7976236  12.0829665 107.1435338  70.9246492
  12.7661597 106.0276448  71.6855812  59.5382977  13.1155920  52.5531340
  59.1758966  13.8016486  51.9925737  58.9898634  13.1325674  53.3374596
  62.7718639  21.2248087  59.1110945  62.2525978  21.3586092  59.9039984
  63.6715364  21.1371160  59.4259405  80.4970551  15.3859007  75.1327419
  79.8078251  14.7308207  75.2425575  80.7152843  15.6558144  76.0247946
  44.1287504 101.5789413  46.3032866  45.0308691 101.5244710  45.9879160
  43.8383852 100.6684243  46.3569069 114.7172976  92.3257565  51.5923166
 115.4855061  92.6701879  52.0477867 114.6053792  91.4430606  51.9452381
  55.6763983  30.0901437  76.0991478  54.8134232  30.2198887  75.7058668
  55.8370304  30.8932495  76.5945721   3.7135636 109.0969078  78.2603121
   3.3524929 109.9822315  78.2148933   2.9913269 108.5601360  78.5866308
  54.0607595  26.3031077  74.2129850  54.3221617  26.5220952  75.1073790
  54.0740681  27.1396446  73.7479448  34.9329782  30.9575295  51.6927719
  35.2900839  30.1345062  52.0264530  35.3518295  31.6337204  52.2252798
  64.0868855  29.7506571  73.1795502  63.9272547  30.2265859  73.9945602
  63.6544180  28.9062357  73.3066511  94.2880249  30.5170369  74.2164040
  94.6262646  31.2630105  74.7117329  94.6542168  29.7506332  74.6577215
  58.0782938  12.2203135  54.9187565  57.9000282  11.8637776  55.7890034
  57.2890663  12.7139568  54.6958876  61.3833570  24.0534163  61.4253521
  62.3017931  23.9421058  61.1797571  61.0821009  23.1689310  61.6331100
  49.1343403  13.4166753  77.8697491  48.9350748  12.4827087  77.9347801
  49.9762535  13.5135055  78.3147717  27.5520598  96.3809406  75.3488731
  27.8232609  96.8092262  76.1608124  26.6445099  96.1208736  75.5068302
  85.9908104  12.8614938  93.8304138  86.5253162  13.6495531  93.9278793
  85.4372978  13.0400300  93.0701637 100.8121122  80.2195721   3.0193347
 101.0723461  79.2984276   3.0211562 101.5381302  80.6744127   3.4462470
  36.9966388   9.6379530  85.7229233  36.6748333   9.9307841  84.8703289
  37.9396105   9.7993129  85.6913280   6.2516867  94.2143857  76.5613365
   5.4470145  94.0171158  76.0819435   6.7243563  94.8244821  75.9951258
  52.0969343   9.4421846  82.2090340  52.9399681   9.2681819  81.7904091
  51.9444656   8.6793208  82.7667332  61.3178778  37.7563715  43.9218283
  60.9900379  36.8685293  44.0649557  60.6209421  38.1929874  43.4320593
  71.6774511  12.2197926  66.4463377  71.3148022  12.9097545  67.0019197
  72.2183895  11.6959751  67.0372963  48.4627771   9.6767426  63.3134222
  49.0742588  10.3597677  63.0381012  48.9962816   8.8835716  63.3632898
  39.2167078  99.7774445  94.1706657  40.1243626  99.9472236  93.9185333
  39.0019976  98.9462435  93.7473106  58.6203051  12.4383581  76.1295366
  58.5525942  12.8172183  77.0059538  59.2294264  11.7070079  76.2311554
  55.7477236  15.6704354  77.6598740  55.1439047  15.8964765  78.3673668
  56.3493252  15.0372827  78.0515671  71.2489700  22.6482415  71.5834379
  70.8579683  22.0606184  72.2300053  72.1715546  22.6994658  71.8333292
  26.1936032  75.6543445  91.1534595  25.5794321  75.1119041  90.6587029
  26.0440003  75.4126858  92.0674896  53.9426136  15.2945828  79.7662926
  54.5382881  15.3928554  80.5090904  53.0837250  15.5334783  80.1148129
  34.4026409 100.6859892  72.1910715  35.2765595 100.6021302  72.5724792
  34.0834462 101.5312200  72.5071907  94.7454370  59.2247395  18.2523841
  95.5139316  59.3573307  17.6973456  94.9728931  59.6463399  19.0810889
  53.3138084  28.9738822  43.0942392  53.9975309  29.6316051  42.9671431
  53.5783911  28.5029793  43.8844776  53.2919121   7.4559045  63.9889431
  53.6190844   7.8539652  63.1822586  53.7881136   7.8848869  64.6860743
  32.6440263  15.1234317  51.1814499  31.7246675  14.8569572  51.1826992
  33.0305862  14.6535885  51.9203997  49.1807604  29.7322392  65.0417757
  49.7381210  30.2462220  64.4574785  49.4554710  29.9889779  65.9220362
  73.3670807  19.2495191  37.4073505  74.2886019  19.1668189  37.6526904
  73.3504391  19.9710774  36.7786169  85.1217474  29.9039249  32.6396293
  85.8138002  29.8956852  31.9783992  84.9569286  28.9794974  32.8253669
  55.6528521  11.0276175  49.4580269  56.1911154  10.2384865  49.5194626
  54.9723864  10.9055376  50.1200628  31.3999592  95.3392791  65.0186729
  31.4005648  95.0865661  64.0954351  31.8791901  96.1675858  65.0405788
  33.8828182  53.0477095  36.6548634  34.4244671  52.3697567  36.2508416
  33.4186554  52.5952864  37.3592043  33.8248825  50.6236696  64.3030357
  34.1024065  50.9490776  63.4466934  32.8813243  50.7831049  64.3255520
  50.9085941   7.5243950  46.5401554  50.3032923   8.1553721  46.9296551
  50.5293655   7.3257405  45.6840277 100.4096127  21.0574555  54.1367674
  99.6038628  20.9284329  54.6371126 100.9159565  21.6827965  54.6552277
  75.1813555  24.9856806  94.8941898  75.6482029  24.6559429  94.1263580
  74.2766619  25.0880361  94.5987606 109.5437778  64.5176910   1.0203761
 109.5219339  65.1308315   0.2856559 108.6289800  64.4333087   1.2891883
  58.2944536   6.6309273  61.7054987  58.2152605   5.7164574  61.4340115
  57.4535847   7.0239091  61.4715290  84.4951248   5.0901312  62.4061966
  84.7289562   5.1459014  63.3327198  83.8245392   5.7627767  62.2875071
  17.8818880 102.4464678  72.4996996  18.4769903 101.8073141  72.1078253
  17.2217928 102.6043820  71.8247414   7.7416390  25.1306009  50.4988432
   8.1674194  25.9824657  50.5951071   6.9754219  25.1798534  51.0704374
  61.8668938  23.8028455  64.3371630  62.3167658  24.5436954  64.7433519
  61.9152021  23.9792013  63.3975887  72.0176935  16.3869691  84.0581226
  72.3627567  15.4942763  84.0419006  71.0865927  16.2874842  83.8596630
  39.5410872  26.0287309  57.8193998  40.2389193  26.4969587  58.2776785
  39.8166633  26.0255742  56.9027328  55.4408026  10.8563960  70.2323961
  56.1262560  11.4914393  70.4400206  55.0697994  11.1659837  69.4061136
  70.6124973  26.1666155  85.3291607  69.7643995  26.0212135  84.9098492
  70.9129381  27.0047021  84.9776268  98.9847375 105.2644368  74.0509987
  98.4952951 105.5571284  73.2822275  98.9311553 104.3092512  74.0196657
 109.4074310  48.0436854   7.1895236 110.1293863  48.1180655   7.8136081
 108.8206543  47.3949974   7.5782794  22.8419195  94.0279483  72.9770374
  23.1811796  93.1330251  72.9612732  22.5356137  94.1837441  72.0836544
  64.1684866  25.6553745  73.1588411  64.8740435  26.1781502  72.7778816
  64.5227432  25.3463268  73.9926434 115.7871653  98.9277350  70.1221037
 115.5844046  99.7522687  70.5639935 115.5097891  98.2507085  70.7393026
 102.3784412  92.8122501   1.9071788 103.0479683  93.1446748   1.3093013
 101.6274847  92.6231794   1.3445491   4.5202242  91.3278150  77.9523134
   4.9193941  91.1519658  77.1002722   4.0489518  90.5227386  78.1667566
   0.1130902 106.5675529  76.3160086  -0.1207675 105.6473675  76.1943483
   0.3786885 106.8642803  75.4455805  75.8616877   6.3779783  62.9032087
  74.9255848   6.3154256  62.7133989  75.9600830   5.9659731  63.7615776
 110.3815855  28.2435636  37.6481265 110.0198425  27.3974161  37.9115886
 111.3032497  28.1997733  37.9027862  80.2761555  14.9979413  62.8021383
  81.0495377  15.0377953  63.3647394  79.5369625  15.0056756  63.4102249
  25.8333445   4.5922700  78.5925674  25.3980207   3.7606010  78.7797832
  26.7322135   4.3478468  78.3722878 102.5685907 107.5069080  80.5494785
 102.4391533 107.0945572  81.4035511 103.4430195 107.8929847  80.5999660
  69.0247668  85.0061779   0.3940505  69.7592081  84.8784785   0.9944839
  69.4289483  85.3169327  -0.4160768  63.3362436   4.2082989  67.1018267
  63.5247993   5.1393759  67.2191906  63.4510994   4.0570611  66.1636591
  67.7345037   5.0228578  56.7173481  67.6311731   5.7548743  57.3253822
  68.5775423   5.1814365  56.2926483  58.1059265  11.4032567  92.5260258
  58.4737015  11.9745958  93.2002258  57.1753359  11.3454783  92.7425766
  11.7906367 105.0312673  45.7055664  12.1533428 105.9170317  45.6956291
  11.3142620 104.9582266  44.8785448  68.3532047  24.1772866  74.8702621
  68.9878654  23.6083055  74.4347191  68.5688734  24.1088367  75.8003330
  88.7016500  77.6640205  12.1844882  88.0589880  78.2829123  11.8377990
  89.4631494  77.7643614  11.6132754   0.0639998 101.2212490  80.6462288
  -0.2614988 102.0006358  81.0966110   0.8779894 101.0043763  81.1007881
  96.8541908  38.2594705  70.7140970  96.5751934  37.4191856  70.3503466
  97.0854664  38.0625725  71.6218281  92.5190067  24.9492764  74.9878407
  92.5780773  25.4367995  74.1662216  91.5792465  24.8547196  75.1432037
  60.8958960  15.6478131  67.1998882  61.5228796  14.9959815  66.8864536
  61.0384560  15.6818151  68.1457996 102.2540665   2.6992774  59.0597677
 103.1410789   2.7642974  58.7059164 101.7197227   2.4190032  58.3167028
  78.2220697  25.8892488  91.3296032  79.0049791  26.4258623  91.4534283
  77.7522135  26.3132381  90.6114769  32.0779167  88.0459713  67.0567560
  32.7344977  87.5105786  67.5022745  31.9814383  87.6392984  66.1956310
  70.2345454 109.5194588  78.8725138  70.6598841 109.2880028  79.6981907
  69.3242823 109.6929747  79.1124058   5.4839682  71.7567961   0.7332534
   5.4613184  72.4086051   1.4338702   6.1966108  71.1665552   0.9781856
  78.1673145  34.1086173  93.7844944  77.9507160  33.8124919  92.9003906
  77.4813414  34.7403741  94.0002632  52.2620916   8.5267717  59.0610695
  52.6438856   7.7112913  58.7363291  51.8993950   8.9483434  58.2819939
  14.1973471  40.4188459   8.8305110  14.2161345  41.3431375   9.0786284
  14.8124765  39.9972193   9.4305819  97.2589779  33.1096029  67.5763178
  97.8906155  32.7976513  68.2243538  97.6192570  33.9427137  67.2724152
  57.2600460  23.9540672  53.2505798  58.0439329  24.4987679  53.3216810
  57.3465443  23.3162165  53.9590263  88.3322620  22.8067923  67.4619102
  88.7092781  22.1981549  68.0972433  87.8178692  22.2523713  66.8751764
  41.8670893  21.0694909  60.6012487  42.3904657  21.7986870  60.2687073
  41.5020084  21.3927507  61.4249325  53.1746531  31.5289402  58.9832640
  53.0222082  30.8787370  58.2975340  53.5188961  32.2914052  58.5181046
  75.9901524  13.5768211  81.9294739  76.1904097  13.1314409  81.1062145
  75.5782032  12.9041076  82.4716854  12.3151074  21.1435342  91.2838459
  12.0670662  20.2379584  91.0977268  12.4470673  21.1657596  92.2316456
  38.9359879   9.1452712  55.9315729  39.0540242   8.2429278  55.6347990
  37.9868317   9.2592853  55.9799099  60.3213930  12.8710783  88.3432961
  61.1066818  13.1749916  88.7984753  60.3126383  13.3662117  87.5241470
  77.2392654  17.3298836  79.1756105  77.5343800  16.7817879  79.9027491
  76.8762207  16.7115045  78.5415459  64.3736124  21.0514188  84.0670109
  64.0583658  20.1579809  84.2034626  65.1479769  21.1200809  84.6254730
  90.5209888  58.7343593  16.3797397  91.4162983  58.4323277  16.2266749
  89.9712957  57.9937898  16.1235637  91.0655403  30.2804995  54.4898796
  90.9477711  31.2124705  54.3060637  91.3800621  30.2524710  55.3935003
  14.5571362 108.5888883  38.2276917  15.3303896 108.0558824  38.0427074
  14.6894156 109.3879568  37.7175713  21.3645315  27.5551367  66.8536568
  21.7315292  28.3882594  66.5579367  20.7876086  27.2810364  66.1407328
  74.3317903  69.3563001   4.6902770  74.9650158  70.0139384   4.9779719
  73.9241637  69.0463977   5.4990024  29.1776167  93.7479209  58.6616373
  28.9444434  94.3575048  57.9614449  28.3645188  93.6229097  59.1510010
  92.7026333  67.1962624   9.3755836  92.3194660  68.0026894   9.0304965
  93.4556974  67.0274680   8.8093394  31.3272929  38.1971598  90.0951958
  32.1909189  38.4727097  89.7878647  30.9956121  38.9501810  90.5842590
  65.6996012  28.8804126  85.3802299  65.4656076  27.9676914  85.2116394
  66.0859585  28.8707948  86.2559414  44.9315739  20.3314304  75.2966881
  43.9794493  20.3579736  75.2018642  45.2506542  21.0085893  74.7001362
  99.5181717  55.4387196  29.4818992  99.4161190  54.7562871  28.8185042
  99.6765293  54.9600321  30.2955455  46.0609150  24.0076447  73.6977959
  46.8477392  23.4844422  73.8507557  45.8110046  23.8063622  72.7959871
  67.0178843  20.5371380  66.4080477  67.1984863  21.0676813  65.6320715
  66.6792727  21.1603832  67.0508099  48.7945175   2.9070163  55.6404734
  49.3214560   2.4324973  56.2834358  47.8920364   2.7901703  55.9372950
  34.4806801  93.1115782  80.9556389  35.3180348  93.3294224  80.5462360
  34.4110953  92.1609890  80.8674908  49.0228558  32.8963876  91.5369034
  49.7671080  33.1253338  92.0935917  48.3674765  32.5512743  92.1432114
  73.0685425   2.7003199  50.7945156  73.7010622   2.5737509  50.0873184
  73.5104418   2.3639385  51.5741348  87.3856068  36.1498427  39.0656281
  87.5438404  36.4237261  38.1622005  86.4701557  36.3774276  39.2280507
  74.6504211  13.6857462  60.9615850  74.0972424  14.3799126  60.6033182
  75.3865194  13.6277008  60.3524685  58.1700277  29.2677236  77.6246500
  57.7691650  28.8529205  78.3885098  57.4513912  29.3641591  76.9997549
 105.2995968  48.8729191  70.0546455 106.2196636  48.6453533  69.9208212
 105.1765442  49.6783161  69.5522261  94.5364380  87.9375362  51.0835648
  94.4470596  87.0166492  51.3289499  95.4743862  88.0554104  50.9332561
 106.8303967  64.5888901  67.5624084 107.3220444  63.8944817  68.0009413
 107.1830368  64.6068525  66.6727161  98.4683323  74.1985750  51.2764025
  97.9562092  74.5592785  50.5526209  98.5217857  73.2615519  51.0883522
 116.2722969  38.3751225  47.8549480 115.6551361  37.6702189  48.0510664
 115.7396889  39.0492415  47.4328947  89.1418266  55.3967810  69.9027681
  88.3387280  55.0986671  69.4757128  89.3806076  56.1957645  69.4328308
  84.6306801  73.3717775  49.3721914  84.0727615  72.7862406  48.8602352
  85.5080891  72.9977655  49.2915821 101.8344307  49.9506950  86.7830563
 102.2473907  49.6869230  87.6053143 101.1292934  49.3162012  86.6548347
  98.1672668  67.0750284  58.6289072  99.0660286  66.8807793  58.3629704
  98.0284405  66.5415764  59.4114637  86.6081524  86.3696384  61.4305878
  87.5302601  86.5647411  61.5975761  86.5704823  85.4144287  61.3817167
  86.3797665  34.8152065  27.1163177  86.2400913  33.8687992  27.1484756
  86.3996506  35.0857091  28.0342865  76.8400526  64.1368437  42.2627926
  76.9220209  63.9318228  43.1941795  77.6013279  64.6841812  42.0701313
  84.1618347  77.0355606  64.9280119  84.1557503  77.8729582  65.3916502
  83.6685467  77.2028208  64.1249418  69.2133713  82.4160385  68.2633638
  68.8180256  81.5507221  68.1577158  69.5530272  82.4165440  69.1582775
  94.2742062  64.5022488  51.1460352  94.8259544  64.1504717  50.4474211
  93.3911610  64.5025826  50.7766342  71.3576412  85.2012634  76.0980082
  72.1454144  84.7079468  75.8693457  70.9296083  85.3714085  75.2589226
  76.8232965  82.4759960  46.4513493  75.8705425  82.4875736  46.5427876
  77.1264648  81.9247055  47.1727371 105.1681995  74.7515917  73.2011795
 104.4873142  74.3788338  72.6411104 105.4620457  74.0181208  73.7414646
   4.6452675  88.8688564  47.3203897   4.8302040  88.0353546  47.7531719
   4.5216713  88.6383915  46.3996077  82.8455639  81.7863464  65.6720734
  83.2669353  81.6397572  66.5189457  83.4678173  82.3267937  65.1852989
  95.5982304  25.0863719  53.8503218  96.1751556  24.8750973  54.5843220
  95.7286930  26.0234642  53.7051678 100.6396198  52.4614859  88.9953041
 101.1535931  52.3102236  88.2020855  99.9080563  53.0069304  88.7062931
  74.0973949  53.9441681  71.0528326  73.7347937  54.7465754  70.6774712
  74.8737955  53.7617016  70.5235529  41.4357447  92.4810677   7.6461810
  40.8285975  91.9245486   8.1339282  42.2951864  92.2799759   8.0165309
  71.0962439  93.4532452  70.2085352  70.5264378  92.7853775  69.8270845
  71.9819736  93.1130505  70.0821018 112.4126911  49.1287327  80.7718277
 112.3967552  48.6523676  81.6019154 111.7370510  49.7999334  80.8678436
  95.8032131  60.7825851  82.4078655  95.7413578  61.4272785  81.7030430
  96.2013721  61.2605333  83.1353760  96.8843746  62.0531940  55.5987787
  97.3325825  61.6361856  54.8629570  96.4071369  61.3404417  56.0235882
  91.1316013  76.6177654  89.8101616  91.6280270  76.7907953  89.0102482
  90.2357197  76.4676857  89.5083141  22.4316286  84.2901998   7.4742717
  21.7853617  84.9373083   7.7567882  22.4457907  83.6424403   8.1788558
  87.1443367  37.1730709  90.2526283  87.5379562  37.7632999  89.6100330
  87.0775795  37.6977491  91.0504341  79.4466972  41.4542007  63.5404444
  79.4651747  40.6658840  64.0830803  80.2101231  41.9576073  63.8232851
  76.9386578  37.9981518  41.6363096  76.8822384  37.3896670  40.8995676
  77.2098303  37.4543309  42.3758745  10.5549012  77.3164940  64.8675442
  10.4765282  78.0057240  64.2079592   9.7634468  77.4024534  65.3989983
  95.7946301  63.4689951  69.1321802  94.9130535  63.1762791  69.3631983
  96.3616943  62.7378464  69.3773270  94.1932678  49.8554564  46.5122175
  95.0028419  49.6996737  46.0258484  93.6646461  50.4002953  45.9291744
  77.2232580  69.9374104  75.8358383  77.7229309  70.7456160  75.9514475
  77.7210093  69.4386864  75.1879597  99.7251129  36.5237403  77.6605988
  99.9144554  36.6626859  78.5885429  99.5572472  37.4010086  77.3164272
  87.3109150  59.3614006  82.2897243  88.0947685  59.5695639  82.7981377
  87.6095295  58.7269258  81.6381836   9.0605603  59.0799093  71.9534349
   8.1804619  58.7510109  71.7704535   8.9589939  60.0311804  71.9850349
  73.2219315  65.3706169  72.5286722  72.4116611  65.6253481  72.0872974
  73.4209919  66.1065912  73.1074190 105.1408863  89.9009705  82.8617764
 105.7951260  89.9621964  83.5578060 105.5822468  90.2489185  82.0869446
  92.3558235  78.3571386  70.4816484  92.4230385  77.7152634  69.7747469
  93.2625198  78.5924864  70.6784773  87.5081062  72.6227093  63.6701727
  87.1016026  73.2971191  64.2143774  87.6274014  73.0422306  62.8181171
  79.7619390  74.8324156  56.0618401  79.7904491  73.9040947  56.2934542
  79.2300940  74.8646402  55.2666426  63.0806112  74.3997049  53.0819798
  62.2804976  74.7567701  53.4674120  62.8569365  74.2475319  52.1638060
  79.5500755  62.8906012  78.2074404  79.2423058  62.3991394  77.4458790
  79.0312386  63.6949492  78.1990814 100.0251007  95.1819134  69.0611839
  99.9598217  96.1060238  69.3020153  99.9842739  94.7136307  69.8950195
   6.2690697  53.7215137  81.5821171   6.1828862  54.6462584  81.8137550
   5.8537064  53.6501551  80.7226944  88.6882019  71.1748743  43.4961939
  89.4377422  71.7234039  43.2647991  88.2754135  71.6304731  44.2298603
  83.7624836  73.5174036  63.6182213  84.1192532  72.6503992  63.8112354
  83.9419174  73.6483955  62.6871586 101.7096233  60.4734993  91.9994354
 100.8847713  60.1365995  91.6496563 101.4458275  61.1121893  92.6618004
  24.5622133  96.5830140   2.2263164  25.4017328  97.0299296   2.3345107
  24.6734881  95.7500558   2.6846141  58.5332287  42.6561266   3.4672851
  57.9282749  43.3360964   3.7637729  58.1906784  42.3856645   2.6153773
   2.3266373  57.7901459  58.3756351   1.6423378  57.6352262  57.7245045
   3.0284176  57.1857023  58.1340170  97.0728207  85.8891964  78.3933306
  97.5992489  86.2694645  77.6901150  97.2839642  86.4175129  79.1630936
 115.9318542  86.7500114  83.4130859 115.0308037  86.7531490  83.0901051
 116.3898277  87.3752785  82.8513622  79.6406603  62.1305561  58.1373310
  79.3507385  61.2463617  57.9128885  79.2516041  62.6883888  57.4637651
 103.0395317  49.4124365  89.0134907 102.6418591  50.0302839  89.6269608
 103.9526653  49.6923733  88.9497566  75.2786350  79.1201496  30.2834749
  74.5458031  78.5201931  30.1447725  74.9675274  79.7270012  30.9551692
  87.8694153  56.7605877  85.2834797  87.8818130  57.6505661  84.9313164
  87.5528908  56.8625641  86.1810589  36.8427503  49.5590883  21.2925261
  36.0115326  49.9245554  21.5954226  37.0919121  48.9341551  21.9734210
  95.7098866  36.4274454  68.7104034  95.1599407  35.6904292  68.9761257
  96.5299034  36.0240030  68.4257317  82.7484131  63.1696081  92.8538227
  83.5509109  62.7197886  92.5894260  82.1786213  62.4721670  93.1780720
 114.5030308  44.6773767  73.0331373 114.7903156  44.7094011  73.9456463
 113.9724445  43.8826799  72.9768276  59.7832573  10.4962354  32.1656436
  59.2781055   9.7851902  32.5599307  60.3367985  10.8195787  32.8764647
  77.9599762  62.1748972  73.4409904  77.0537424  62.1226406  73.7446976
  78.0313921  61.4856625  72.7806187  66.9530487  62.6706696  57.9699326
  67.2025633  62.7943373  58.8857317  67.7135801  62.2496319  57.5692415
 107.7762794  82.9059219  63.2003546 107.7746677  83.8431358  63.3949566
 107.0712280  82.5480652  63.7398720  83.3832550  74.4570017  55.6753778
  84.2430973  74.6733665  55.3147173  83.2515812  75.0928926  56.3786077
  70.4061270  84.1869259  41.4823341  70.9778118  84.7108555  40.9211731
  70.9950066  83.5658169  41.9109154  75.2726650  61.9891739  71.1960649
  74.9736738  61.8330240  72.0918608  75.5005121  61.1205196  70.8647680
  80.0829601  61.5194607  85.8264828  79.1465807  61.5195751  85.6279087
  80.2247334  62.3315334  86.3129616  80.0529957  69.2820263  78.1058073
  79.8396111  70.1340342  77.7253103  80.4973221  68.8097763  77.4016905
 104.6026325  64.1996717  59.3480206 104.0072632  63.4546041  59.2665005
 105.4184723  63.8992691  58.9475203  21.5148411  97.1075249  58.7287617
  22.3292218  96.6573238  58.9530897  20.8242283  96.5253735  59.0456200
  76.3322258  60.1624155  33.6006784  76.4121246  60.9582758  33.0748916
  76.4545679  60.4580688  34.5028186  39.8615812 107.3407941  18.4475440
  39.8090242 106.9009500  19.2960757  39.8078035 106.6319232  17.8065700
  69.7285223  99.8611641  79.0932894  70.0465536 100.5813026  79.6377945
  68.9286995  99.5666504  79.5289230  76.9530571  19.6968656   1.8371982
  77.6940716  19.3350130   2.3231906  77.0566452  20.6453615   1.9137305
   5.7313404  41.9284916  64.1736889   5.7463608  41.4085627  63.3701420
   5.9538708  42.8150368  63.8895273 114.7912025  85.7434082  58.5179901
 114.1384411  86.0213661  57.8754330 115.5254745  85.4267502  57.9918766
 113.7001514  71.7145586  66.5071630 113.1902599  70.9325886  66.2955904
 113.6426640  71.7874670  67.4598503  73.8352060  57.3951817  43.8789940
  73.1229496  57.4822426  44.5125151  74.5499706  57.9128885  44.2495632
  99.2444420  86.8009567  60.8923531  98.2974243  86.8407249  61.0257864
  99.3638420  86.9971561  59.9631166 112.6516724  57.1595526  80.8346558
 112.6573277  56.8919373  81.7536640 112.8259182  58.1004667  80.8581066
  23.5995255  70.2699471  87.2754574  22.9640160  70.8169413  87.7371407
  24.3157158  70.8665657  87.0578575  86.1631966  85.1483727  80.9983921
  86.8008804  84.8234272  81.6340065  85.3630161  85.2789021  81.5072250
 103.3535862  55.1224089  71.8300009 103.8193512  55.9393406  71.6513538
 102.4392223  55.3183889  71.6256237  85.2806664  44.0282917  47.9089785
  85.2741146  44.9587584  47.6844311  86.0351562  43.9272499  48.4892845
  53.3554256  20.3797727   5.5202788  53.5697639  19.4608980   5.6814021
  52.4187649  20.4435116   5.7068938  74.1724205  65.4485273  88.1097507
  74.2052889  64.5506859  88.4399509  73.9284372  65.9749317  88.8710690
  79.6774244  99.1881752  89.0983200  79.7127581  98.7929153  88.2272530
  80.1705074  98.5855103  89.6549892  98.7206936  57.7866173  82.3830318
  97.9007053  57.9525185  81.9179058  99.2858315  58.5204077  82.1413517
  15.2261315  46.2365437  44.0424871  16.1282406  46.4977551  44.2273951
  15.2721081  45.8033943  43.1901407  87.1028042  77.1007204  71.9154358
  87.9701328  77.3204803  72.2555637  87.2728443  76.4719248  71.2140560
  93.8883400  72.5793934  75.2564955  94.5003605  72.5895405  74.5205927
  94.2831612  71.9782257  75.8881092  85.8825874  74.6229124  42.9501486
  85.9503460  73.8583279  42.3782730  86.7884159  74.8997402  43.0882645
 111.6868877  70.2069759  84.5645618 111.9892788  71.1118793  84.6416378
 110.7525063  70.2485180  84.7681141  88.6214447  70.8015919  88.5331440
  88.5651588  70.7011938  87.5828934  89.5349312  70.6052542  88.7410355
  53.3662128  75.8027172  63.7915707  53.2680130  76.5613651  63.2162046
  54.2702246  75.5172348  63.6593199  12.4164080  92.1559291  14.9606532
  12.7079557  92.3907380  14.0796870  11.9323229  91.3386087  14.8428458
  17.4926434  77.0789862  46.1883497  16.8769799  76.6596174  45.5872488
  17.6683865  77.9331970  45.7938004  10.5980168 108.6119843  61.5173388
  11.5117417 108.5933018  61.2327433  10.1662884 107.9474926  60.9804201
  80.8079529  58.6591530  71.6264009  81.2903118  59.3783951  72.0341349
  81.1304665  57.8736448  72.0682096  68.0946589  63.7470579  60.4318905
  67.5804281  64.4209290  60.8765268  68.5420132  64.2139196  59.7260952
  90.1308632  87.3706722  75.9076595  89.9143028  88.3026600  75.9348249
  90.2692604  87.1301365  76.8237448  19.1471539  86.7885208  56.3720989
  19.3773232  86.8264103  55.4437542  18.7103329  87.6225376  56.5447903
  73.8870895  18.1128650  10.2556724  74.7360599  18.5539680  10.2857036
  73.6692798  17.9498487  11.1734027  49.1435039  11.7006736   4.1361922
  49.3809593  10.8820682   4.5717734  49.2876518  12.3755174   4.7995490
  86.3414574  40.7254887  53.3805847  85.9591103  41.6008997  53.3198023
  86.9311237  40.6689310  52.6286983  63.9942837  78.6729145  40.8936596
  64.9084949  78.7309837  40.6160307  64.0325499  78.6940098  41.8498611
  74.1946507  65.0770330  34.9018407  73.7814045  64.3218613  34.4832993
  74.8600578  64.6981573  35.4762220  93.6571789  89.6464062  66.7450666
  93.4575462  89.1628361  65.9434795  92.8431129  89.6228218  67.2480392
  72.4666357  73.7884045  48.5519743  72.3636580  73.5578394  49.4752645
  71.9784689  73.1133080  48.0806303 110.1258755  77.5752687  93.7284946
 109.8368931  76.9653749  94.4072819 109.7458363  77.2314596  92.9200363
  92.4640083  49.8732376  66.5204096  93.2969189  49.4912148  66.2437344
  92.5857735  50.8165789  66.4130974  76.2573910  70.0880575  87.7599525
  76.0063553  69.7265720  88.6099720  75.4325581  70.1690102  87.2810745
  80.1925945  66.8229437  69.5394611  79.2827129  66.5292597  69.5853138
  80.6949425  66.1083460  69.9308968  16.9984221   4.6405268  91.9351482
  16.9896578   3.9266635  92.5727558  17.5333475   5.3206683  92.3444176
  96.5735912  94.3346310  60.0506067  96.3357925  94.4544792  60.9700203
  97.5306702  94.3192196  60.0507927   2.0404587  75.9264660  78.6850309
   1.1914978  75.9209347  79.1271448   2.1628247  75.0240755  78.3901596
   5.4266584  16.8552166  16.3723201   5.3994882  17.3893505  15.5784720
   6.1426580  17.2274929  16.8870944  98.1712151  73.1338167  58.6683893
  98.3675575  74.0685415  58.6053801  97.9764080  72.9919147  59.5947552
  83.7913418  57.3942757  59.2083979  82.8360271  57.4518347  59.1910362
  84.0419292  57.2933865  58.2901096  83.5460472  72.0307922  86.4604855
  83.7544250  71.1478281  86.1552238  82.8743839  72.3417711  85.8535385
 110.2551079  93.8480949  88.1359482 109.3339252  94.0349197  87.9549885
 110.3954220  92.9698944  87.7819633  53.2176769  39.7781950   5.4945678
  52.6984585  40.0251966   6.2598342  52.9210079  40.3695493   4.8028201
 108.5492802  79.3810701  20.9838963 108.0913734  80.1457119  20.6347775
 109.3935966  79.3809652  20.5329514   4.0598927  55.7393885  61.9907904
   3.3461342  55.5124807  61.3947248   4.8450337  55.3922033  61.5674067
  46.5750097   4.9257899  58.8595819  47.5117945   5.1206065  58.8331556
  46.1548781   5.7266284  58.5459328  16.0481619  93.2367544   0.6557292
  16.5937494  92.7807765   0.0149077  15.1831602  92.8380351   0.5607528
 101.5024281  86.2129307  78.1883669 102.3256016  86.2041569  77.6999569
 101.1340809  85.3399277  78.0526304  80.3514290  79.6271276  78.8725901
  79.9944925  80.4677105  78.5857964  79.9896717  78.9904547  78.2561398
  74.5545816  69.6730900  63.9303207  74.1861725  70.4965448  63.6102772
  74.7248268  69.1630602  63.1384134  51.6252112  90.2657084   0.3644580
  52.5468325  90.5228262   0.3370685  51.1814379  91.0083513   0.7740611
  93.2767391  60.3269529  93.4914684  93.0325890  60.6053877  94.3741322
  92.5740528  59.7344494  93.2242680  93.6047077 100.4804230  41.9286108
  93.0612659 100.0252056  41.2854290  93.3109665 100.1404953  42.7738333
  85.2246189  50.5806589  60.1126337  86.0071850  50.7679892  59.5942354
  84.6604919  51.3422346  59.9784899  -0.0796642  94.2529392  68.3886623
   0.5374871  93.5775948  68.1071186  -0.0038375  94.9384212  67.7248907
  62.3833752  71.7062998  74.2503834  63.0854321  71.1244535  73.9591694
  62.7325869  72.5877094  74.1184616 101.7894268  79.7568655  81.4501667
 101.4762211  78.9198065  81.1074257 101.1628723  80.4005718  81.1195469
  79.5447445  87.6118565  49.1288519  79.3415833  86.8924522  48.5310125
  79.1018438  88.3708954  48.7494612  81.5118313  56.4180660  55.8842373
  81.1664677  56.3004017  56.7691755  80.7705593  56.2251186  55.3102112
  27.6821671  98.4844303  81.6236401  28.4478245  98.3533478  81.0643387
  27.8810749  99.2785358  82.1197033 114.2675018  56.3364744  49.1476822
 114.1605949  56.6487932  48.2492065 114.9678898  56.8800783  49.5084763
 107.5043106  48.2297087  62.9688168 108.3788872  47.8612804  63.0937862
 106.9385719  47.4674034  62.8461075  42.6832950  20.1853519   4.2096442
  43.5822666  19.8819404   4.0830916  42.5657928  20.8682542   3.5492915
 114.3591881  62.3703480  61.6479301 114.3471622  63.2078123  62.1113300
 113.5142517  61.9704866  61.8538857  94.2422009  26.3977170  39.5754862
  94.5872593  25.7152724  38.9997792  93.8538647  25.9193516  40.3080130
  97.7143288  78.6121035  71.9435930  97.7875233  78.4784842  72.8885889
  98.4296131  78.0954695  71.5725327  96.8165493  87.3930550  42.8818750
  96.7639160  88.2646275  43.2740831  96.7510986  86.7920876  43.6240292
 101.2822533  43.0019045  76.7611361 102.0453072  42.4452353  76.6058731
 101.3562489  43.2588243  77.6802397  31.7736280   3.4012752  11.8190783
  31.0035742   2.9985624  12.2204226  31.6023624   4.3419939  11.8631667
 102.9131413  45.3575802  38.5422397 102.4751282  45.2017069  37.7055311
 102.2209549  45.6824255  39.1180801 108.1626701  53.5246611  75.6100941
 108.1171894  54.2357063  76.2492990 107.8660679  53.9201260  74.7904158
  91.7009926  52.2897005  61.3550854  91.6218090  51.6111374  62.0255423
  91.9903469  51.8205643  60.5725098  89.4694805  62.1869135  63.5287428
  89.8915100  61.8194246  62.7521610  88.6587143  61.6863966  63.6202097
  87.5421619  89.3224716  80.2034664  87.4075794  88.5365486  79.6739006
  87.2916222  89.0602016  81.0892868  61.8827677  61.0227108  58.1696892
  62.7789068  61.2011671  57.8845215  61.8548489  61.3274860  59.0766430
  68.0965042  92.9560089  72.1760559  67.9169083  93.7330532  72.7053785
  67.2358751  92.5655270  72.0241642  98.2508945  56.0944271  59.4961452
  97.6459599  56.8342972  59.4424582  98.7002850  56.2127209  60.3329754
 103.1688023  54.1162014  75.1431656 103.0518627  54.0359449  76.0897970
 102.5169086  53.5228062  74.7701406  87.1818638  61.3357115  76.1661053
  86.5470791  61.1497450  75.4742193  87.0603371  62.2653484  76.3590813
  94.0269184  53.1504488  59.4210720  94.9247360  53.3253479  59.7031450
  93.8902664  52.2237206  59.6178722   8.0075417  51.5088511  80.7185459
   7.1804295  51.7437220  80.2978802   8.6609517  52.0581818  80.2855110
 113.4304714  77.8975153  86.4469910 112.8238964  78.3172846  87.0569801
 113.2395077  78.3038759  85.6016254  93.6065006  81.7860413  65.6779099
  93.5565948  81.3548088  64.8248100  93.2796478  81.1324501  66.2961483
  80.0297260  61.3986444  80.3897858  79.8344517  62.0941734  79.7618246
  80.8412457  61.0061979  80.0678539  83.2650948  61.7551231  79.8201513
  83.8150501  61.9620848  79.0645409  82.6439762  61.1043024  79.4932318
  94.8132610  52.2763586  65.8342266  95.0930786  51.3873911  65.6158829
  94.3465900  52.5787258  65.0551128  85.8198452 102.0822334  64.3406248
  85.3588963 102.1462440  63.5041618  86.7241859 102.3186302  64.1344452
   7.5762806  65.8385849  54.4479942   7.6697121  65.3257275  55.2507925
   6.9028435  65.3785610  53.9469147  93.6428165  62.0661163  84.0806675
  93.7475300  61.1257267  84.2253494  92.7805710  62.1512985  83.6738396
 105.9760380  73.0003452  75.4139519 105.8879280  73.6592674  76.1026382
 105.2829552  72.3665428  75.5987978  77.4303055  66.3019466  69.8569202
  77.1362925  65.7801342  70.6035805  76.6405773  66.4367056  69.3330812
  87.3070145  64.1329098  76.4608479  87.8140354  64.3000126  77.2553587
  86.5010738  64.6351671  76.5809727  73.1853437  66.1508894  53.6479664
  72.8405857  67.0365238  53.5338163  73.2557487  65.8047628  52.7583170
  90.1812744  85.2918911  50.5209112  90.8440781  85.1546192  51.1977243
  90.3263378  86.1896324  50.2221823  66.6673517  96.7704487  69.0285730
  65.9064388  96.7392635  68.4486771  66.7313194  95.8854294  69.3875790
  40.8003986  17.8907543   1.3195819  40.3750360  17.4547344   0.5812186
  41.6314686  18.2065302   0.9648437  84.1168594  79.6730566  84.1477299
  83.7769127  80.3954601  83.6197090  84.6237469  80.0993443  84.8388004
  68.8189840  53.1807375  46.4898777  68.2927990  53.3009100  45.6993580
  68.3770943  52.4785614  46.9672823  80.2542496  60.5304098  49.7028685
  79.5764589  60.9515476  49.1742039  80.6086731  59.8451662  49.1362524
  74.9455929  51.0690594  44.0185690  75.5828428  51.2572861  44.7075653
  74.2246246  50.6322050  44.4719934 109.5693207  75.4963636  53.4308767
 110.3508377  75.1240540  53.8393450 109.1792488  74.7661686  52.9503679
  15.8588480 108.9875941   8.6923045  14.9743628 108.9712005   8.3267325
  16.0117315 109.9074941   8.9082927  62.2609949  95.5005550  49.9238110
  62.4862432  95.6743050  49.0098572  63.0061960  95.0055504  50.2642155
  13.5489071  45.0010305   3.9680881  14.1960848  44.3071085   3.8420981
  14.0535772  45.8123975   3.9113444 110.9644760   5.5891658  60.5670929
 111.4834274   5.4250861  61.3544941 110.2396549   4.9665595  60.6238985
  88.1835651  87.6091957  57.6657248  88.9942837  87.5031567  58.1634474
  88.3274555  88.3947754  57.1380949  85.6258011  87.6310253  65.9817505
  85.7484722  87.7048397  65.0353193  86.3445377  87.0701504  66.2734079
  49.7014797  10.6369739  18.7306804  50.3984344  11.0253769  18.2018775
  49.9798477   9.7311693  18.8657969  89.7067547  61.3245821  45.1509380
  89.4321632  60.5607128  44.6436548  90.3525543  61.7613602  44.5955992
  25.1056157  76.7883205  78.6987638  25.1190338  75.8382225  78.8143873
  24.6602402  76.9215012  77.8620243  41.8511258  47.7325630  81.8986702
  42.5367985  47.3674631  81.3393974  41.3001213  46.9825935  82.1226597
   2.5466023  48.4302282  36.9837546   3.0508385  48.5774851  36.1835670
   2.5491486  47.4797487  37.0969510   1.0652027  45.2208185  41.3243246
   0.2910195  45.6740952  41.6581106   0.8387051  44.9919558  40.4229116
   0.8745442  70.2441311  86.1585999   0.8458958  69.4304419  85.6552887
  -0.0207176  70.3606653  86.4766598  78.9570522  73.2791901  67.5510597
  79.3453360  73.0697966  68.4005404  78.2300997  72.6629448  67.4615479
  82.1353054  60.9441233  72.8768253  81.9858551  61.4930296  72.1070242
  83.0728912  60.7524729  72.8559637  16.0677872  30.5149245  74.7654104
  16.3983784  29.7413373  74.3087864  16.7595349  31.1683011  74.6613884
  79.6845150  93.4171200  74.5695734  80.6369114  93.3404732  74.6269608
  79.3591309  92.5523567  74.8196602  90.4450035  51.4392281  58.2413149
  91.2317657  51.3648891  57.7012205  90.4905701  50.6900120  58.8353109
  97.0375824  49.9783230  44.9587059  97.1926594  49.0408325  45.0740004
  97.9033184  50.3769588  45.0471544  93.5076141  51.0615396  49.1751432
  92.7014160  51.4266968  48.8105392  93.9365578  50.6381941  48.4314919
 101.5058613  34.6178794  72.8712463 101.7641640  35.0523949  73.6840868
 100.5679035  34.4565964  72.9734707  19.2222939  40.0670815  77.0432377
  19.3755303  40.6331491  76.2867212  19.1382275  39.1887856  76.6720676
  91.2426281  63.5551119  47.6372099  91.7172337  63.9631891  46.9130182
  90.4475689  64.0802383  47.7286386  70.8808517  58.7304544  55.6403828
  70.9871721  58.1094503  54.9197674  71.1046171  58.2285166  56.4241028
  99.0660667  69.4904709  80.2554131  98.2234669  69.4055367  80.7015610
  99.6633720  68.9434052  80.7654953 105.5542183  93.1300926  76.7568731
 105.3266048  94.0575409  76.8222094 105.0628567  92.8157806  75.9979248
   4.1432820  82.8631401  64.2636919   4.3633709  82.3927689  63.4596109
   4.7275410  83.6213398  64.2652035  72.4702358  66.9611406  11.4667547
  72.6633263  67.4152994  10.6465816  71.5882969  67.2514629  11.6994095
  58.3724678   3.6350494   1.5358180  58.3271492   2.6794630   1.5036410
  58.5475528   3.8357073   2.4552268 101.4927292  86.2202454  73.3647776
 100.6841278  85.7226658  73.4864473 101.8235111  85.9351826  72.5129795
  25.9682977   6.9294601  26.7302245  26.3246429   6.0775142  26.4783591
  25.1107919   6.7289930  27.1053523  94.2139149  87.5016880  89.7606468
  93.2954979  87.5324631  89.4926834  94.1982555  87.7129269  90.6941223
   6.4261876  66.2225962  77.0979118   6.1902581  66.2564611  76.1708641
   7.2026596  66.7779684  77.1678972 112.8108883  67.2331858  61.3681984
 111.9561291  66.9202328  61.6643190 112.6172256  68.0346107  60.8819485
  73.7917137  83.4988499  76.0924006  74.7403383  83.6266708  76.0911274
  73.6673594  82.6244354  75.7233953 111.5291500  60.4461479  38.9219618
 112.1733284  60.6031275  39.6123433 111.7494392  61.0807276  38.2400441
  81.0501766  89.2261887  39.3418312  81.6042995  88.4767628  39.1237760
  81.5744972  89.9899006  39.1008496 101.0407352  30.3668833  87.1699333
 101.4642715  30.1561642  86.3378048 101.1419678  29.5746851  87.6975822
  71.5663815  68.6253738  26.1572337  71.9127369  67.9304743  25.5974293
  72.0913696  69.3947363  25.9365582  77.5037766  32.7650571  38.0647326
  76.9386005  33.3075714  38.6147213  77.9832220  33.3915305  37.5226116
 110.3079796  91.3115025  67.4194384 110.2812481  91.1227703  68.3574629
 110.9942055  90.7374859  67.0790863  21.2479458  63.0372143  45.6930304
  20.2921639  63.0846739  45.6715345  21.5261231  63.9197302  45.9380054
  26.0461401 107.1819882  23.1872863  26.7439436 107.1136003  22.5356597
  25.7534288 106.2803988  23.3202857  31.4046896  32.5607782   6.8888778
  32.2598350  32.7582269   6.5068168  30.8788765  33.3416277   6.7156142
  83.6503315  56.8748808  63.6717701  84.1178226  56.9263268  64.5054626
  84.0435982  56.1267757  63.2224226  46.9501674  19.8183208   1.3797778
  47.1382797  20.1437431   2.2600860  47.7344406  20.0300413   0.8734912
  21.9015465  30.0775290  87.1239090  22.4079380  29.5596957  87.7497292
  21.1870346  29.4991398  86.8571472   5.1218281  78.7226105  83.4552574
   5.2552472  78.5305309  84.3834496   5.6761227  79.4844627  83.2862377
 109.8621464  69.1586065  66.4755917 109.7604942  68.7744999  67.3464298
 110.4883957  68.5859013  66.0328197  96.7545223  53.7998819  63.0431843
  95.9036350  53.3658314  63.1050253  97.3166466  53.3118582  63.6449146
 104.7429752  66.0133600  86.7097664 105.4135895  65.4144526  87.0381165
 104.4705296  66.5130377  87.4793911 100.3051949  73.3245754  84.6068764
 100.4802895  74.0216589  83.9746952  99.4705009  73.5682678  85.0070477
 106.8661022  42.4194765  92.4520302 106.8569088  42.7232122  93.3597183
 106.0505009  41.9277906  92.3557377  84.7271729  71.8523264  91.7566013
  85.4501057  71.6720057  91.1557007  85.0007057  72.6369429  92.2317696
 103.2573032  46.6167021  64.1992044 102.7476025  45.9049702  63.8120699
 103.4918022  46.2969971  65.0704288  28.5332165  72.1752691  82.8068161
  28.2753334  71.7727184  81.9775486  27.8372918  72.8052998  82.9938602
 109.6043682  63.4417248  54.8154020 108.8580704  62.8934908  55.0577164
 109.2458725  64.3281269  54.7706652  82.6311302  86.1599159  60.0773144
  83.0706882  86.7535686  59.4685507  81.6980076  86.2970066  59.9138451
  51.4115131  23.0018430  18.3995265  50.5657947  22.6916509  18.0758494
  51.3910377  22.8169923  19.3384856  80.4993725  40.6818008  54.9534416
  79.9072504  41.1921406  54.4010162  81.3410282  40.7170820  54.4989061
  69.2416000 107.9537582  61.9205666  69.3998718 108.7260437  61.3776398
  68.2939339 107.8244305  61.8826103  63.8976467  18.3519464  16.6236896
  64.6269691  18.2072836  16.0208720  63.3372677  17.5842577  16.5102595
  91.8197441  72.0257759  77.4072504  92.6174068  72.1454334  76.8918419
  91.5297604  71.1380768  77.1971703   2.0486603  45.9334135  54.2074680
   1.4106331  45.4311180  54.7142649   2.7778111  46.0732460  54.8116398
  20.4698048  67.1629667  59.5422125  20.1012478  67.1221352  58.6597586
  20.3828774  66.2714148  59.8795700   5.7037316 101.0873222  59.5341349
   5.5093632 100.1906872  59.8070860   5.3253613 101.6345406  60.2223396
 103.6470426  30.7621051  81.4254379 104.5464719  31.0416365  81.2547970
 103.1292165  31.5638781  81.3529587  69.3272293   3.1649452   2.4513930
  69.3548191   2.4040323   3.0314654  69.2723835   3.9153438   3.0431098
  12.6930771  58.3113480  52.8753471  13.2908020  58.0613756  53.5799551
  12.1397648  57.5410461  52.7460861  44.6173929  15.4402495  43.7521887
  44.9579500  16.1323977  43.1854630  44.6994089  15.7938624  44.6378899
  85.6054974  74.1488218  68.9918613  85.5876541  73.3859205  68.4140253
  85.9442711  74.8566055  68.4436846  20.6310997  48.2616806  31.1126328
  21.3450299  48.8899755  31.0040975  19.8503266  48.7340689  30.8237076
  29.7687662  34.1001707  15.2650660  30.6426990  33.7099176  15.2518386
  29.6632231  34.4808393  14.3931788  99.9916172  74.4664049  46.1557150
  99.3137550  73.8074064  46.3055325 100.4203224  74.1892433  45.3460073
  11.7991423   5.9866572  67.7478743  11.1641478   5.8736563  68.4551573
  11.3648008   5.6239653  66.9758415  93.1857014  82.6114655  31.3456011
  92.8776646  83.5176754  31.3568401  92.5766754  82.1586895  30.7622385
  22.8090630 102.6422691  75.4612732  22.9585801 103.5856342  75.3985167
  23.6542855 102.2832489  75.7313633  69.2732513  19.1186290  18.8809318
  70.1575458  19.4830089  18.8422984  69.3444431  18.2702928  18.4433383
  94.8591614  78.8610506  47.8816128  95.7367229  79.1924620  47.6911259
  94.4370365  78.7947226  47.0250845  20.1955675  95.8356433  19.7064895
  19.4664072  95.2329593  19.5604438  20.9479975  95.4036956  19.3021411
   1.7345009  91.0818481  39.1011500   2.0455132  90.4491997  39.7486496
   1.2000046  90.5647278  38.4985447  50.1051319  35.8623129   4.9505919
  49.2064274  36.0078817   4.6550197  50.5747783  36.6540151   4.6881694
 106.9408894  57.5007868  53.6320543 107.2287846  56.8856239  54.3065357
 106.2442207  57.0375299  53.1669998  93.5338879  14.6512330  56.8692684
  93.7791538  15.3380156  56.2492657  93.7684250  13.8350058  56.4276791
  90.6364822  88.1287670  49.9414062  90.7866955  88.8703251  50.5277109
  91.4680004  88.0151081  49.4810867 113.8783264  66.2694788  48.4048176
 114.6492100  65.7202435  48.5473776 113.2466793  65.6898355  47.9790783
  42.8575968  23.5850478  62.1080780  43.2763647  24.1474391  61.4564800
  42.7696394  24.1404105  62.8827238   3.9366589  94.7969818  58.3975506
   4.6971569  94.5950985  58.9426470   4.3091545  95.1031494  57.5706625
 107.3643875  92.1249008  90.6738663 106.9493675  92.8379059  91.1592674
 108.0538750  91.8076324  91.2571049  14.9603520  42.2669840  62.3767757
  15.1884995  42.5527477  61.4921713  14.6407662  41.3717461  62.2643232
   5.3563176  56.5238047  45.4558277   4.7313843  56.6754055  44.7468042
   4.9906597  55.7858896  45.9436893  64.8694313  41.7264467  21.3280982
  64.2812622  42.3451620  20.8951205  64.4733799  40.8693319  21.1707896
  95.5935478  74.9473381  73.1430387  95.3621864  75.2734423  74.0127277
  96.5308285  75.1241446  73.0624819  17.1936093  68.7395716  72.2577858
  17.2281418  68.4966993  71.3325548  17.7234230  69.5345974  72.3166513
   7.6540731  20.1872874  85.1296139   8.3859896  19.6369506  84.8509502
   7.4022364  19.8364020  85.9838295 116.3138580  80.6325150  61.2296867
 115.4900074  81.1145782  61.3011360 116.2252522  79.9128866  61.8545961
 109.3581963  48.9847851  82.8948307 109.4415760  49.9382496  82.8811073
 109.7267914  48.7242460  83.7389183  91.6670895  78.5891771  73.0407190
  91.8854618  77.9683399  73.7357759  91.7786312  78.0911112  72.2309494
 103.5470676  79.9569798  63.3897114 104.2958927  79.6491385  63.9003277
 103.9219475  80.5784416  62.7656317  86.6970825  91.5924644  71.7998314
  86.5559483  90.8022499  71.2784147  87.6384926  91.7545605  71.7390633
   3.5430584  80.1811123  52.5337172   3.0011235  80.3950882  51.7742729
   2.9633198  79.6813250  53.1084776  76.6307056  31.2519174   2.4316997
  77.1843612  32.0199495   2.5724811  75.9519947  31.5533739   1.8277949
  32.5859713 108.8165479   0.4424972  32.3033117 109.6298270   0.0242824
  33.4274172 108.6162763   0.0325221   1.4037285  96.9152546  67.0396423
   2.2390042  96.9226360  67.5070667   1.4993058  96.2193775  66.3893652
  23.4346924  82.0234108  38.9034867  23.2662735  82.7965736  38.3648825
  24.3755017  81.8705463  38.8155174 112.2831059  79.3505287  67.8162909
 112.0846844  78.4753036  67.4833584 111.8750191  79.9446011  67.1863937
  25.8910917  79.6464066   8.7350673  25.3604673  80.1244240   9.3723792
  25.8872961  78.7425475   9.0501231  38.6517405   0.5033637  75.9396362
  38.6840319  -0.1054811  75.2017355  37.7403425   0.4783202  76.2311029
  18.4827958  66.0780907  52.6302147  18.0239926  66.2516022  53.4521770
  18.2006512  66.7813444  52.0453548  43.1648789  68.5021400  75.3231668
  43.4746132  67.6137447  75.1469612  42.9616890  68.8607121  74.4592381
 114.2529964  50.5270433  66.0721588 115.0802708  50.4107571  65.6049013
 113.5818481  50.2795029  65.4361486  20.3276215 105.0203037  52.3105478
  21.1848793 104.8871803  51.9060421  20.3003941 104.3871975  53.0279541
 104.2565632  68.0756140  63.0668640 104.6642780  67.3034382  63.4589624
 103.3354568  67.8352880  62.9666662 101.2475204  99.4396496  42.0348263
 101.4068890  98.8181305  42.7451372 102.0347118  99.3905449  41.4924765
   0.1741276  90.0019932   8.3357066   0.0898323  89.1279697   8.7167752
   1.0275517  90.3134441   8.6372048  53.6278141  45.4205423   1.6927737
  52.8935993  45.0335222   2.1696204  54.3725097  44.8561960   1.9005794
  18.4140467   0.6187106  74.8287725  18.0814528  -0.0273752  75.4518127
  19.2782187   0.8542395  75.1663637  67.1920252  86.0968590  27.5623322
  67.5961876  86.2181473  26.7031622  67.7207041  85.4182148  27.9820633
  68.1545162  88.0461311  60.5781889  68.0231762  87.7669430  59.6720791
  68.6717224  88.8485813  60.5089855   5.7104073  50.5178833  40.1227236
   5.6162606  50.1522160  41.0023022   6.2988434  49.9115133  39.6729684
  13.4169350 101.4179039  73.7675953  14.3216954 101.2466240  73.5062599
  12.9222546 101.3931084  72.9485035 107.2007465  51.7084932  80.1202393
 107.9119968  51.2521172  79.6706915 106.9067287  52.3697567  79.4937277
  71.8865669  19.9104410   0.3792209  71.8035496  19.0763527   0.8414287
  72.4319542  19.7095686  -0.3813249  98.5845089 101.4207268  45.0993061
  99.3848705 101.8128872  44.7502232  98.5301018 101.7467880  45.9976149
  56.5421080   9.0410090  52.4345541  56.9252085   8.3557177  52.9821253
  56.8652891   8.8522769  51.5535498  84.0161037 107.0611382  64.2977524
  83.4739876 106.3113976  64.5431519  84.3403244 106.8462276  63.4231520
  95.6483555  75.3657579  78.9095926  95.0392342  75.0265694  78.2537317
  95.2874374  76.2180853  79.1535473  39.0877699   2.9744578  38.2117891
  39.2059778   3.9241744  38.1943917  38.5347342   2.8159095  38.9768076
 111.9544029 103.4829140  79.2029095 112.3853970 102.7075100  79.5623970
 111.5077400 103.8775539  79.9518967  88.4552765  83.1223106  66.4517069
  88.0371571  83.0121326  65.5977345  88.5429668  84.0698719  66.5549850
  34.0432632  27.5299268   1.1525268  34.6687973  28.0055910   0.6059951
  34.3897903  27.6129919   2.0409221   1.0637246  52.1980858  72.3888826
   0.7395707  51.3305807  72.6309443   0.3694878  52.7979183  72.6617861
  81.7520428 105.5488110  59.5069075  82.6950550 105.7021236  59.4481039
  81.4710617 105.4335213  58.5991669 103.4323692  53.8980532  93.8746166
 102.9874420  54.1255856  94.6910191 103.9667988  54.6656513  93.6711216
  86.8074703  58.5378838  45.4707003  86.1269474  58.7858295  44.8448849
  87.6191521  58.5619116  44.9639225  86.5767002  76.7948437  56.8858814
  86.0382652  76.0700750  57.2037315  85.9452343  77.4571848  56.6051769
  35.8527159   2.1962977  58.9441061  36.1101126   3.0814887  58.6863947
  36.5977263   1.6486121  58.6966324  88.2498920  20.8048206   0.9216327
  87.4692524  20.2816969   0.7394713  87.9089344  21.6517978   1.2090415
  16.6607819 102.4081707  59.4613600  16.3922177 102.3227215  58.5465908
  15.8665619 102.2228718  59.9624681   8.4708176  90.5820751  46.8142462
   7.8257904  90.3856277  46.1348534   8.2943497  89.9424744  47.5041723
  84.3663788  47.7475929  45.2657604  83.4316635  47.9084063  45.3949308
  84.7122574  48.5835314  44.9530268  93.0555523  54.2422586   4.4976825
  92.6589954  55.0351244   4.1366691  92.7066219  54.1835600   5.3870887
  96.2258816  69.2908478  64.3302822  97.1769905  69.3939972  64.2988014
  95.8834934  70.1419497  64.0571022  84.5566654  55.9771967  79.1041946
  84.4256306  56.2287855  80.0183964  84.0794182  56.6384792  78.6030245
  35.0386296  31.1448574  69.6215677  34.8364220  30.8127975  68.7468767
  34.3844567  31.8263078  69.7762012 110.0262356  67.5671387  63.6636019
 109.2871189  67.1250010  64.0812778 109.7259998  67.7456856  62.7724171
 116.0173702  68.0155659  71.2222338 115.4016876  68.6211348  71.6350889
 116.3043022  67.4434519  71.9339895 101.0598469  93.7199688  82.0171070
 101.0793972  92.7724648  82.1516228 100.3339958  93.8606453  81.4091682
  16.2170849  77.5182819  72.6401663  15.4249249  77.3466110  73.1493235
  15.9208928  77.5209379  71.7299509  96.7187977  63.5789108  76.7914581
  96.0310459  62.9323864  76.6326189  96.5003872  63.9565372  77.6434708
   8.6906205  61.8098879  72.1360540   8.4104214  62.0528841  73.0184793
   7.9485283  62.0403910  71.5771294  79.7771358  84.3014908  69.0570545
  80.0140381  83.6961937  68.3544016  80.3531456  84.0626621  69.7832823
 101.5758705  76.9190645  65.3443384 101.6865253  77.5171995  66.0834074
 101.7776966  77.4502325  64.5740414 112.4377155  33.5961246  45.9172583
 111.7979908  33.0040407  46.3127661 113.1819153  33.5812545  46.5190554
  25.4577408  96.8391514  78.7709284  25.8764706  97.2991657  78.0434084
  25.5158673  95.9135056  78.5342169  88.5782909  45.7136297  61.3806868
  89.4625664  46.0766554  61.4307213  88.5311604  45.3167868  60.5109024
  51.8856323  22.1257501   2.9948920  51.6216553  23.0455738   2.9732913
  52.3903549  22.0403534   3.8037223 115.4104042 105.7496738  87.9242897
 115.1414776 105.7686901  88.8427448 116.2840748 105.3588581  87.9385853
 100.5684853  56.1964178  78.1603336  99.8280811  56.6199732  78.5946465
 100.1700783  55.6671476  77.4694109  74.3563545  34.7192770   1.5241641
  75.0422275  34.1984945   1.9420165  74.5721233  35.6242662   1.7492408
  33.4348177  32.5619078  49.9400711  33.8642286  32.1062232  50.6640863
  32.5007032  32.5035048  50.1406860 107.4239792  47.6536608  68.8990498
 107.8436197  46.8468047  69.1975975 107.1054186  47.4469996  68.0203915
  28.8834439 103.8899231  51.5657425  28.8214074 103.1608772  50.9485865
  29.5524750 103.6162663  52.1932268  75.7907856  50.5274206  23.4843177
  76.5372551  50.9853273  23.0978793  75.4717529  51.1207300  24.1643447
  31.3961850  99.9640560  56.7710972  30.7450257 100.1372242  57.4509859
  31.8838654 100.7839108  56.6921520  73.4985161  71.4138031  77.1008444
  73.2932520  71.6217136  78.0123663  73.8552761  70.5261230  77.1321392
 110.9171963  95.3737926  94.9748993 111.0936737  94.9425411  94.1387749
 110.0814915  95.8211803  94.8419666 102.6356792  66.1132860  94.4007683
 101.7287159  65.8151531  94.4698524 102.7171326  66.7901659  95.0726509
  97.3122108  35.7422929  19.8471183  96.5498817  36.1637502  19.4503135
  98.0463970  36.3132387  19.6207923  71.5443504  48.2551389  11.6740531
  70.8888805  47.5831609  11.4868945  72.3642624  47.8888326  11.3426894
  64.4160831  76.0297304  18.2295531  64.4414127  76.5204912  19.0509814
  63.8598812  76.5546804  17.6539630 115.4439545  92.2307873  77.8739691
 114.8103237  92.1478462  77.1613264 115.5127716  93.1735229  78.0247736
  97.4952602  77.2088194  62.3372269  98.0155182  77.7491140  62.9319048
  96.8850136  77.8223848  61.9281244 112.2413826  83.2434750  61.4259624
 113.1368160  83.2996273  61.0923958 111.9359207  84.1504097  61.4459372
  24.1611061  84.8718262  44.6696615  24.6043930  84.9915791  45.5095339
  23.3454094  85.3650379  44.7568989 111.9635963 104.2893982  87.4096870
 111.1751366 104.0909958  87.9148674 112.4037838 104.9749660  87.9121399
 111.1176109  65.2058077  83.6279869 110.9663773  64.6683741  84.4054890
 110.4131126  65.8536196  83.6438656  50.5092514  16.8068748   3.6119670
  50.4460800  16.1808305   2.8906363  49.7184551  16.6561990   4.1298217
   1.6857872 107.4800682  48.8624620   1.4444886 106.5631008  48.9934969
   1.6574440 107.8628540  49.7393322  71.5751791  84.3522930  53.5842609
  70.9136581  84.8830318  54.0280342  72.0637560  83.9357090  54.2941761
  81.0667419  73.4746265  60.9725189  81.3231659  72.9431963  61.7262173
  80.6948566  74.2692947  61.3551807  87.9770756  65.2309465  90.1310062
  87.8199291  64.2868519  90.1458740  87.5338745  65.5350876  89.3389797
  22.8748392   5.9956790  67.4379683  23.4967493   5.7038069  66.7714310
  22.1008848   5.4499293  67.2987652   6.5381489  97.6285553  86.5105534
   6.4306221  98.3708668  87.1052456   6.3222847  97.9803467  85.6469154
  24.4039988   1.8483687  81.4532280  23.5234236   2.1694136  81.6474915
  24.4196962   1.7535830  80.5008602 112.4393654  72.7158165  85.8053493
 112.8677368  73.5655499  85.9086990 113.1591415  72.0850039  85.7901382
  67.4097336  41.5809637  23.3566112  67.4477756  42.4619203  22.9842013
  68.3116329  41.3909536  23.6148852  13.7206911   2.3501635  85.2959442
  13.3086371   2.0521689  84.4849873  13.0818247   2.9484416  85.6834221
  86.0361385  43.5822630  52.8176594  86.9576168  43.7947273  52.9658651
  85.9409428  43.5804844  51.8652058  11.5673409  74.0509558  72.4874687
  11.9375477  73.3044243  72.0164347  11.8999253  73.9595938  73.3803701
  65.2241135  84.7370625  90.2272224  64.3544722  85.0655365  90.4553986
  65.7375193  85.5243206  90.0459003  74.7035170  63.0019665  49.4689465
  74.3226910  63.0147696  48.5908604  75.0485420  62.1145630  49.5674610
 104.9028171  30.2311469  83.8873482 104.3610252  30.5271579  83.1558609
 105.5749382  29.6836997  83.4813976  13.5423935  40.0362592   5.5318564
  14.3270481  39.9433523   4.9915618  13.4189880  40.9818845   5.6143397
  83.6808205  81.7775154  89.1394997  83.4468174  80.8817482  88.8964558
  84.1557693  82.1153831  88.3802223  18.6403523  76.3132143  22.5169683
  19.0706025  77.1405935  22.7327299  17.9534970  76.5552902  21.8957925
 112.9679966  79.7458982  80.3160477 113.6081028  79.3705177  80.9206867
 112.2814655  79.0820169  80.2515221 102.6070404  72.0622396  89.2617226
 102.1387386  71.3041210  88.9121723 102.3263836  72.7923775  88.7100315
  58.8300789  39.6656137   3.6824817  59.6740043  39.3009954   3.9490622
  58.9921844  40.6048113   3.5938567  54.7062195  27.8325086   7.3503608
  54.8949039  28.0640989   8.2597560  54.6646679  26.8762117   7.3504085
  39.1365421  42.6160722  12.8275508  38.8378752  42.7555948  11.9289035
  38.8394296  41.7323213  13.0442065 104.2265511  73.9415121  66.5116787
 103.3393383  73.7260485  66.2241793 104.6771526  73.0979109  66.5507984
  32.5885856   8.1903940  10.3804034  31.6512954   8.3139616  10.5302447
  32.9894245   8.3364397  11.2372798   1.0991631  73.7140799  68.8174963
   1.1119423  74.4903183  68.2575607   0.8812104  72.9947662  68.2247734
   4.6282254  88.3872032  71.0660124   5.4452000  88.8629627  71.2158155
   4.7808609  87.5229168  71.4480305  93.0588531  39.3050051  54.3698788
  92.3909187  38.9886379  54.9781561  92.5645256  39.7506356  53.6819267
  94.9606323  61.7281389  75.5045223  94.0524006  61.7476749  75.8061457
  94.9611759  61.0944462  74.7871208  78.5842752 105.1199532  83.8199425
  78.9478493 105.8782291  84.2771721  79.0476847 104.3702507  84.1933632
  68.4698296  77.5661135  60.5445671  68.2151699  77.0418549  61.3038683
  68.7311316  78.4100533  60.9129667  65.2391517  27.9822069  12.1107692
  65.8479584  28.7045389  12.2651595  64.4154632  28.4093385  11.8755359
   5.2301178 103.4161568  61.1037540   5.4019509 103.2683372  62.0337296
   4.3149910 103.6948490  61.0706234  59.6630562   6.8944555   9.2616767
  60.0371158   7.1846204  10.0936145  60.3959072   6.9231516   8.6465854
   8.4637413  55.5488205  73.2012939   8.4529744  56.0711813  72.3992634
   8.8625393  54.7184944  72.9410028  27.3650418  83.8928986  73.2943678
  27.7854691  83.0877304  73.5963345  27.6312600  83.9731312  72.3784399
  94.7515202  76.9447947  85.2465534  95.5075645  77.2444868  85.7513332
  94.6194553  76.0394001  85.5277252  91.7991638  75.9425688  55.6652594
  91.9478893  75.3785038  54.9063444  90.9769535  76.3927794  55.4716063
  43.6055744  70.1611429   7.7020854  43.2770813  71.0600382   7.7196330
  43.0438411  69.6888166   8.3165759  89.4049549  86.0576916  78.7910604
  89.6081734  86.0311508  79.7260571  90.2430153  85.8926868  78.3590221
  55.4004753   2.1189361   8.9849586  55.8408535   2.8796011   8.6058921
  54.5453346   2.4496370   9.2599219 105.3902149  41.6740513  59.7644091
 106.3022232  41.6523457  59.4745779 104.8966789  41.3095474  59.0297079
  73.4334457  58.5141378   6.2765998  72.9045570  58.9846712   6.9208831
  73.0311573  57.6472002   6.2236709  90.4308021   3.5814958  13.6220950
  91.0789669   4.0590292  13.1043357  90.6800449   2.6620298  13.5288733
  39.3158875  64.8063564  71.8701887  39.1260872  64.5441580  70.9693766
  40.1711522  65.2332830  71.8202257 103.1230640  69.3584824  92.3392963
 103.9560986  69.2498016  92.7980709 103.2126713  68.8240576  91.5502548
  11.1327992  78.7350321  54.9551439  10.4036675  78.4004879  55.4773331
  10.7318650  79.3733740  54.3652344 105.2292156  69.8494291  73.0759096
 105.0790691  70.7859325  72.9468870 105.0405979  69.4569445  72.2234964
 114.2493916  85.9558010  88.4634686 113.4718609  86.3468170  88.0649757
 114.5783234  85.3483200  87.8009033  12.9752884  97.1358204  81.9526577
  12.8837929  97.0837307  82.9040527  13.6506138  97.7996445  81.8129730
  96.8473148  51.2555170  70.4409170  96.2574196  51.6010618  69.7709465
  97.6825809  51.1397505  69.9879742  35.9666765  29.8082834  -0.1779347
  36.4609897  29.0249162  -0.4192239  36.2457454  30.0013548   0.7170981
  21.9117807  82.4830322   5.3622931  21.9366335  83.3435850   5.7806987
  22.6936030  82.0362287   5.6868762 115.0762558  28.5319352  56.0807896
 114.1905212  28.1897616  56.2017345 115.1918411  29.1560125  56.7973089
  21.6220606  21.7426162  19.5497817  22.0468271  22.6003271  19.5379752
  20.7066047  21.9315200  19.7558993   7.8621540  73.6303329  64.1720438
   7.3442135  72.8384781  64.0273571   8.1823120  73.8693810  63.3022213
  24.5752964  74.6647692  76.5405226  24.9678669  74.6631193  75.6675291
  25.2955590  74.4346094  77.1274519 107.3310757  81.2178516  44.5833635
 107.5906086  80.7806683  43.7723541 108.1509495  81.5491199  44.9498463
  83.7494278 100.9666157  32.9634023  83.9441586 101.8447304  33.2908630
  83.1167126 101.1084270  32.2592735   3.0288945  71.6037703  75.0632620
   3.3919201  71.0771751  75.7753992   2.4253712  72.2079039  75.4957199
  40.6111276  16.5704208   6.3456744  39.8843801  17.1500021   6.1172980
  40.5781305  15.8747392   5.6890410   0.1893959  37.4586535  57.4728346
   0.6134854  37.3868084  58.3279467   0.8891545  37.2853494  56.8431234
  43.2314835  60.4413033  79.8044062  43.1362782  60.9025097  78.9710665
  43.4128819  59.5346022  79.5569849   7.7561913  65.1884317  61.5604830
   6.8387185  65.3575706  61.3463402   7.8987847  64.2781258  61.3011837
  30.7213377 107.2139316   1.4479846  31.2346911 107.8871112   1.0012931
  30.9406351 106.4023881   0.9902400  88.6781883  80.7546043  67.7651691
  88.5715199  81.5745735  67.2829771  88.9493752  81.0259819  68.6421204
  70.8686876  75.5206966  93.1979465  70.7729292  75.6251526  92.2512913
  70.1563978  76.0410357  93.5695934  91.9470978  91.0408020  49.5416498
  92.1396160  90.4142952  50.2392530  92.6020622  91.7301559  49.6513605
  97.5534630  44.9160957  41.9517851  97.8444481  44.8065567  41.0464859
  97.8026485  44.0991783  42.3839664  68.0608034 108.5408974  87.1344090
  68.3098936 107.8372097  87.7335930  67.4870586 109.1050529  87.6528454
  61.0751999  19.5763069   5.1223582  61.5377319  20.4059129   5.2408713
  61.6979873  18.9109235   5.4149932 103.0759144  81.0614777  36.7841029
 103.5046101  81.7649841  36.2967420 102.8969383  80.3891945  36.1266518
 113.1073536   2.3177195  65.3823185 113.4557642   2.9807997  65.9782839
 112.8096498   2.8137923  64.6197414  26.1815142  92.7157860  42.0692367
  25.9593176  91.8111472  41.8490333  25.8437037  92.8361683  42.9567164
 115.6963730  62.2173977  72.6903486 116.3517475  61.9059372  73.3146095
 115.8850956  61.7360449  71.8847990  11.0385311  30.3276163   1.4607161
  10.6682813  30.2913099   0.5787677  11.3961447  31.2124639   1.5341109
 112.5571632  90.9196854  76.6857767 112.6567841  90.2816772  77.3923492
 111.6918373  90.7379150  76.3191748  93.3769798  63.8208723  53.9509726
  93.7708282  63.7317228  53.0831242  93.2679176  62.9208660  54.2581034
  30.4315889  29.9793153   7.1737880  30.5333174  30.1397329   8.1119555
  30.8306206  30.7423311   6.7556876  31.2442646  60.8898211  73.6386776
  30.5104123  60.2784157  73.5764313  31.0188733  61.5968752  73.0341053
  11.6134892  59.1768265  93.7300682  12.1581898  59.6365404  93.0911732
  10.7447110  59.1502762  93.3291149  11.7247448  64.4957066  51.2730408
  11.9093666  64.3382120  50.3471136  11.3289986  65.3670263  51.2935257
  85.6071186 107.6553535  75.1230621  86.5112495 107.7527618  75.4218960
  85.1782703 108.4690285  75.3881359   6.4939556  81.6613102  15.3723097
   5.7710324  81.0951233  15.1020432   7.1003971  81.0755825  15.8255172
   9.3052458   2.5936366  24.0799975   9.5558046   3.0814028  23.2954335
   9.8800730   2.9323340  24.7663593  77.6964951  96.8894672  86.6761398
  76.7664814  96.8828678  86.9025421  77.9288960  97.8175163  86.6452312
 102.7029228  75.0611925  77.4090338 102.3572445  75.8900595  77.7402735
 103.5235691  75.2992439  76.9776487  67.9376209  24.0091377  15.8058948
  68.5373104  23.9500909  15.0621718  68.1833637  24.8219066  16.2477702
  18.4573040  57.6221037  47.5285149  18.2102738  57.1604156  46.7272377
  18.1139145  57.0756149  48.2353830  78.4394741  83.6955833  90.2717972
  79.0628242  83.2910347  90.8751202  77.8341055  84.1741371  90.8381462
 104.7354031  72.6580334  62.2385883 105.5833244  73.0965996  62.1683979
 104.1007519  73.3720160  62.2992563  12.9070721  84.7051620  53.3774710
  13.4169827  83.9026451  53.4878635  12.0074425  84.4022846  53.2543421
  18.0565142   0.5411292  84.5861340  17.6493429  -0.3120946  84.7359848
  17.5996470   0.8937312  83.8224792 108.8745689 101.5569210  54.5940304
 109.5212650 102.1696186  54.9441910 108.0314255 101.9801998  54.7558546
  84.9304771  77.6902056  82.4762726  85.8769894  77.5481033  82.4636364
  84.8089600  78.4427261  83.0552197 105.4296970  28.3981800  73.8123035
 105.7930851  29.2571211  73.5968781 104.9737263  28.5325456  74.6431208
  14.3375658  19.8507357  64.6242428  14.8253607  20.5401087  65.0748587
  15.0036692  19.2106009  64.3737173  45.5500387   9.2026377  39.4539237
  44.9259733   9.0876437  40.1705456  46.3882040   9.3589164  39.8889923
  17.0391535   5.4074908  74.5229149  17.7790903   5.0007868  74.9738407
  16.7256617   6.0760928  75.1319408  14.5053839  10.7255698  75.7309294
  15.2347158  10.4011393  75.2026749  14.5271658  11.6750861  75.6118631
 106.7538738  81.2487698  74.0010738 107.3072338  81.1622334  74.7773123
 106.3796425  82.1270466  74.0704203 109.2035007  91.5336514  22.0996284
 109.8009205  92.0251942  21.5359735 108.3929920  92.0428085  22.0913219
  50.1955103  29.6811248  35.6594968  49.3668531  29.6495963  36.1375809
  50.7844519  30.1713801  36.2330985  19.8412584  19.2972804  47.7392197
  19.8851370  20.0279093  48.3560467  20.7459711  19.1703082  47.4535751
 103.5348320  82.5303364  78.5777378 103.0037975  82.6433754  77.7894115
 102.9854870  82.8649521  79.2865944 100.1024246  81.7329216  70.3788519
  99.7875404  82.2445393  71.1240578  99.3180084  81.3088226  70.0309181
 110.3949356 105.0424385  80.8581161 109.5568752 104.6501160  81.1030006
 110.1735115 105.6707954  80.1708221 111.6565609  95.2644157  75.7698202
 111.1006069  96.0373402  75.8684492 111.7790031  94.9419308  76.6627073
 114.6887589  73.5619688  62.2297382 114.1892242  74.1305065  61.6436911
 114.1368675  73.4749746  63.0069685  97.5276089  60.0440359  25.9588909
  97.4310875  59.5719099  26.7859411  97.9489899  60.8685303  26.2015319
   8.0470810 109.5019531  74.3740606   8.9180050 109.6922112  74.0254736
   7.4493943 109.7259712  73.6607409 113.4381485  99.6637630  72.8513432
 113.7269402  99.8156834  73.7512064 114.0083885 100.2192116  72.3197985
 114.3498802  77.0171261  58.5582781 114.1539192  76.1557484  58.9268732
 114.3908215  76.8696356  57.6133966  44.3208694  77.3893261  68.1308222
  44.6501780  77.4664736  69.0262699  45.0571489  77.6571989  67.5809383
   3.7880955 101.7584419  73.5431814   4.5395050 102.1201515  73.0732965
   4.1530571 101.4379406  74.3679905  38.9412842  65.9082508  62.6041317
  39.4889126  66.6897202  62.5290680  38.1294308  66.2220621  63.0024529
  11.9372712  84.9649811  81.7531681  12.5125466  85.6752968  81.4690208
  12.5108014  84.3718243  82.2383976  14.6852455  87.7015495  68.7567282
  13.9626847  87.1858692  68.3986568  14.3207608  88.1125164  69.5406246
 114.7920322  78.9349222  82.1205425 114.7349262  79.1285038  83.0562210
 114.5220757  78.0194139  82.0484543  93.3372974  88.2534885  54.5687246
  94.2867374  88.1750679  54.4757366  93.2030487  89.1330433  54.9217129
 108.2404327  93.2214928  81.5592384 107.3892975  93.4683228  81.1974621
 108.8675213  93.4488297  80.8727264 101.6417789  78.2206583  62.9647303
 102.5196075  78.5464096  63.1635618 101.3130188  78.8146544  62.2899532
  44.2220282   7.7155543  65.9492207  44.8762201   8.2117415  65.4572296
  43.3818220   8.0363799  65.6215620  30.3670382   5.5097342  39.0225196
  30.9506201   4.7514296  39.0480113  30.3415274   5.7613993  38.0993485
 114.6334362  70.1128006  78.9455032 114.9076653  69.2247725  79.1745138
 114.2448997  70.0264883  78.0749750   5.0577698  60.0265312  65.2605438
   4.5289383  60.6772375  65.7222176   4.4219933  59.5053530  64.7702503
  95.3833199  52.9513264  76.4535570  95.8922863  53.1094408  75.6584597
  95.9539890  53.2419062  77.1649885 106.7673588  79.6025848  61.7878151
 106.4306259  80.0752163  62.5490379 107.2838020  80.2526665  61.3114691
  32.9494343  95.1422119  37.5764155  33.5403309  95.7824612  37.9728365
  33.4921513  94.6777344  36.9392776 100.9180260  45.3490019  85.5197525
 100.2378654  45.2316713  86.1829662 101.6321850  45.7859135  85.9837723
  78.7903690 103.1921005  38.2167506  79.3493366 103.2122326  38.9935279
  78.1760883 103.9149094  38.3449054 103.0505180 101.2337589  35.7717943
 103.6182499 100.4645061  35.7254291 103.5768318 101.8929577  36.2242270
  90.3130627 100.2836418  36.5350318  90.8347511  99.8858070  37.2320223
  89.7100067 100.8698654  36.9920921 111.5821075  80.0196457  38.8849640
 112.4530983  79.7499418  39.1762924 111.0822010  79.2047024  38.8381481
  36.3228569  90.5278206  56.0270214  36.9744358  90.2230930  56.6585398
  35.8433113  91.2146568  56.4901876  24.9045074  23.0885893   2.9678077
  24.9043167  22.1545463   3.1770820  25.2950323  23.5059791   3.7356013
  27.1329187   2.1007491  86.5780354  27.4446844   2.3411322  85.7055378
  27.3363566   2.8609515  87.1229458   2.7577267  84.6404171  52.4658871
   3.0040799  85.4292107  52.9489565   3.0443917  84.8098373  51.5684700
  72.8156948 101.7165661  63.3663607  73.6799765 101.3828182  63.6069107
  72.9584265 102.1771240  62.5394726   7.6930008 109.0072441  69.1246796
   8.4471379 109.1466904  68.5519123   7.6150570 109.8221684  69.6207237
 116.6464710  98.3960247  80.5416107 115.9296894  98.2443523  81.1575985
 116.5838623  99.3264389  80.3256702  43.6270607  32.2179609   3.6100406
  42.9905498  32.7299505   3.1110972  44.4073665  32.7714449   3.6420268
  33.4180903  25.6855632  72.3820877  33.5985731  26.5616751  72.7227974
  33.9980673  25.5985976  71.6255903  96.0088253 100.5545616  70.0510693
  96.5660954 101.2857533  69.7845459  96.0127258 100.5867481  71.0077190
  46.3368296 107.3856978   8.9289779  46.7305445 108.0702596   8.3880538
  45.4836725 107.7397780   9.1799373  28.3862661  13.3438540  72.8460264
  28.7818598  13.6179114  73.6734533  28.8161444  12.5142432  72.6382065
  36.3807653  26.2448168  75.0230789  36.1202597  25.3422881  74.8391914
  35.8513617  26.7733241  74.4258833  95.4984856 100.4872704  52.1379471
  95.6359482  99.5559502  51.9647837  95.3714848 100.5385494  53.0852938
  63.8713049  12.6280165  75.6131315  63.3178114  11.8606330  75.7580233
  63.3411001  13.3660079  75.9139395  14.7123204  83.3674145  55.6621456
  15.3994236  82.8075027  55.3007507  15.0211678  83.5888290  56.5406847
  40.0153326  18.6149359  48.5167551  39.1899561  18.7133456  48.0420780
  40.4805826  17.9226065  48.0472183   5.8805809  82.1981525  72.3982477
   6.4996205  82.3863220  71.6928291   6.3118039  82.5234985  73.1884527
 106.1524582  89.6013832  72.6673746 106.1217499  89.4080925  73.6043549
 106.8198776  89.0083694  72.3222399   1.5672741  63.6783314  60.7020855
   1.3805638  63.4911728  59.7821188   2.2931061  64.3018579  60.6771278
  95.7104301 108.5499382  51.1386108  95.7411385 108.5588169  52.0952749
  95.0606251 107.8800106  50.9260368  11.4836846  96.0161591  88.1041718
  10.8305130  96.6833687  87.8934002  11.1067639  95.1998329  87.7758694
 112.1950340  84.1040134  80.5178452 111.4062214  84.6416283  80.4472923
 111.9352913  83.2508373  80.1701832  80.2151299  85.8250427  91.3784218
  80.6118965  84.9981117  91.1045837  80.7114124  86.0831928  92.1551418
 103.2267570 100.7042599  67.4203873 103.1184292 100.1506901  68.1937313
 103.4107685 100.0898075  66.7098808  37.6073050   1.7437983  68.7832737
  37.0123457   1.5901042  68.0493593  38.2806562   2.3241473  68.4282541
 106.2705994  94.2788696  51.1473703 106.0384274  94.3946648  50.2260017
 105.7592583  94.9437237  51.6086006  49.5600199   3.9645148  87.4438667
  50.4826330   3.7277461  87.3492718  49.1405367   3.1681395  87.7695274
   4.8672257  81.3834476  54.4798994   4.3406163  80.8671474  53.8696957
   4.4124852  81.3006496  55.3181076  90.0220013  82.7143478  52.2759295
  90.3523254  82.5131702  51.4003468  89.0948868  82.9116726  52.1426678
  97.4455643  71.5109539  78.7297821  98.0723953  71.0486603  79.2862034
  96.8206215  71.8976688  79.3430758   6.8580113 101.8204498  18.6181223
   6.9144497 102.5538826  18.0056512   7.5703583 101.9717884  19.2393184
 111.5926456  66.5950871  68.2340384 111.8707657  67.1342039  68.9744663
 112.1703339  65.8324051  68.2627296  38.5525666  73.7803030  81.1477566
  38.2143650  73.8467789  82.0407486  38.8282071  74.6705103  80.9291458
  57.2903621  42.0937067   0.9771747  57.2547710  41.1382681   0.9313315
  57.7798546  42.3528867   0.1964969  95.7477093  98.5139847  83.0401421
  94.9230194  98.1645203  83.3777618  96.3428020  98.4895992  83.7894726
  55.5172705  10.5759288  89.7662735  56.3980173  10.4765368  89.4048405
  54.9543165  10.0923396  89.1617298   1.2350998 107.1687698  57.5931406
   2.0151387 106.8678379  57.1270752   1.3335381 106.8160820  58.4775352
  84.8945618 102.0113277  79.9017715  85.5340576 101.3365078  79.6739483
  84.9180412 102.6220322  79.1650724  11.2216816  91.8630123  92.0245552
  10.3140412  91.7313194  92.2985458  11.2806855  92.7990150  91.8331337
   1.9070206  73.4007788  46.7858696   2.0955906  73.3196640  47.7208042
   1.6832505  74.3236780  46.6658545  87.3525620  94.8072720  94.4898891
  87.1041107  94.1024780  95.0880241  87.9395866  94.3903542  93.8591671
  31.3377247  84.5607567  29.1261959  31.1397896  84.3887520  30.0467730
  30.9097729  83.8478947  28.6519432  59.0599131  16.4619685  57.2885084
  59.0015863  16.5841056  56.3409233  58.1700014  16.6168547  57.6051903
  98.6655140  76.3837528  19.1698122  98.1594372  75.6335783  18.8577914
  98.1985283  77.1463919  18.8284421  34.1155790  23.9256621  66.0029459
  33.2040094  24.1226054  65.7873726  34.6055960  24.6854068  65.6884575
  64.8777628  11.9424212  69.2098045  65.5522966  12.6018870  69.3720961
  64.1225576  12.2427988  69.7154474  25.1537834 101.5432739  76.7652559
  25.5977236 101.1614876  76.0080338  25.8260952 102.0711672  77.1960211
  93.7900829   9.5636290  63.5582829  94.6836567   9.2356825  63.4572363
  93.6820221   9.6773273  64.5025396  41.2423182  20.3720784  33.4514189
  40.9478474  20.3988862  32.5410342  41.7902899  19.5889413  33.5029387
  76.7132999  95.8711206  84.2286205  76.0476088  96.5040111  83.9592934
  77.1192245  96.2645506  85.0010681  31.2722527  89.5391321  57.1257305
  32.0631300  89.5583987  56.5868711  31.2128149  90.4200458  57.4954462
  45.2229548  15.7204163  61.6949749  45.4920912  16.5561962  61.3138342
  44.7001934  15.3024006  61.0107136  41.2861716 107.9188960  58.5570288
  40.6020628 107.7252539  57.9161453  41.4982497 108.8406324  58.4098673
  69.5649910  31.7212558  17.8341985  69.5992517  30.8179235  18.1489182
  70.0777578  31.7129135  17.0259702  97.0047283   6.9768196  81.5044975
  97.4286556   6.8696094  80.6530190  96.6837883   7.8786027  81.5004158
  45.0680052 101.8116724  76.2330914  44.9217116 101.7165189  77.1742487
  44.2423807 101.5380102  75.8334875  74.6012211   2.9414669  64.3284225
  75.5102634   2.9971412  64.0338516  74.2117739   2.2631307  63.7766743
  23.5851704  76.7591833  73.9010811  22.9087864  77.2172832  73.4021997
  23.1006466  76.1499142  74.4580889  23.6300265  91.6249191  63.7740612
  24.5629965  91.4465725  63.6557531  23.5498654  92.5710940  63.6534071
  83.3295441  22.0323920  82.2635937  83.1789207  22.8558612  81.7994308
  82.5747776  21.9439960  82.8456116  28.4074163   1.1615097  59.5809984
  29.2458415   1.1130138  59.1217327  28.1940269   2.0945551  59.5921040
  61.7283236  93.0837142  73.1608152  60.8927141  92.6323985  73.0412149
  62.2218787  92.8889965  72.3641205  90.6141819  53.3668545  10.4468173
  91.3798250  53.9330966  10.5437392  90.9776462  52.4859391  10.3567237
  81.6337204   7.6892209  86.3305569  81.8506718   7.1241987  85.5889988
  81.0310078   8.3387423  85.9684944  29.4179999  75.9229945  59.9320364
  30.0941883  75.8939528  60.6089115  29.8835884  76.1906957  59.1396999
 105.8999086  85.6401705  85.3931713 106.3260246  85.4948973  84.5484543
 106.4080430  86.3418340  85.8002377  50.5437170 105.8421864  47.6802588
  50.8064066 106.2718552  48.4942675  50.8994566 104.9563962  47.7513742
  26.4807307  90.1572537  78.8685036  25.9343325  89.4033002  78.6466122
  25.8828341  90.7676529  79.2999697  24.0191494  88.9983200  73.5008812
  24.9663006  89.0852570  73.6084652  23.6982237  88.7760639  74.3748617
  45.9813166  22.5453949  64.3579531  45.7746840  22.9788756  65.1859808
  45.2835369  22.8201580  63.7631083 113.4460747  53.8983689  84.6444219
 112.9484093  54.5925769  85.0764388 114.2800247  53.8739592  85.1136410
  99.1967010  16.4663017  66.1239910  98.5770702  16.4102852  65.3965569
  99.6654320  15.6319606  66.1041355  29.2558885   9.4328201  57.1125507
  28.3398795   9.2691076  57.3369646  29.3399525  10.3861690  57.1295691
  67.4150944   6.3067168  68.9845800  67.8947496   6.2674910  68.1571579
  66.7575264   5.6147969  68.9132690  75.2394199  23.2217073  50.1404858
  75.0383186  24.1250730  50.3848648  75.6008530  22.8329062  50.9369993
  49.8852907  86.4869284  65.9603834  50.3393923  87.3053502  66.1609030
  50.3311621  85.8287811  66.4935541  66.0485172  13.4870231  35.3798366
  65.8515406  14.1098142  34.6801472  66.8993902  13.7670624  35.7172203
  23.6145483  92.7469718   7.6316202  23.8453757  92.1835708   6.8930209
  22.6990258  92.9802846   7.4779278  48.6236858  19.0033531  22.9995108
  49.0356874  18.3072007  23.5112333  49.2823362  19.6970510  22.9649138
  53.0488205  22.8517652  15.1206315  52.2702837  22.4759769  14.7096634
  53.7098074  22.8495979  14.4282997  85.1826000  11.7084491  44.9753094
  84.2764664  11.5010583  44.7469521  85.1119518  12.4111891  45.6213713
  48.4962069  97.8908586  47.1229029  47.8591715  97.4678063  46.5471983
  48.1416880  97.7682339  48.0035353  43.2294130  14.7234714  27.6171207
  42.5318670  14.8336458  26.9709587  43.4294701  13.7876415  27.5963950
  13.3019291  72.5359868  41.2600517  13.9649855  73.0599283  40.8105278
  12.6127230  72.4109077  40.6076813  95.9060622  83.1886863  65.8805656
  95.0633205  82.7667569  66.0478830  95.6953669  84.1183352  65.7934427
  28.6842715 104.7623324  67.0092964  29.3685852 105.4311018  66.9829798
  27.8897606 105.2417436  67.2441387  20.6151997  82.6429843  51.8345928
  21.0488545  82.1768951  52.5493908  21.2111508  82.5495719  51.0913944
  65.9753084  11.3620234  60.6819868  65.4616261  12.1696270  60.6938410
  66.1448288  11.1724269  61.6047812  46.1817598  16.3618135  53.4104395
  45.4427481  16.9635069  53.3206415  45.9309006  15.5956662  52.8943777
  66.8111372  20.3479123  81.3647556  67.1716881  21.1793232  81.0565472
  66.2328339  20.0609612  80.6580353 106.8637873  90.0593662  85.0221920
 107.4092031  90.8180069  84.8143005 107.4887563  89.3555784  85.1963520
   5.2738320  92.5454902  72.5757122   5.1955687  92.5962924  73.5283518
   4.6259581  93.1695496  72.2485447   9.9296843  91.0281407  76.0697222
   9.0916191  91.0072314  76.5317202  10.5868040  90.9605276  76.7624378
  74.2925596  37.7638721  37.5858259  74.5456076  36.8490005  37.4624920
  73.7463093  37.9657865  36.8261743  33.7054287 106.0237064  15.5150783
  33.6676108 106.8513059  15.0356197  34.2898022 105.4720964  14.9950111
  54.7720194  34.8338270  52.8547764  55.5349636  34.2578197  52.8062057
  55.0474739  35.5482674  53.4291697  40.4100132  23.0341029  83.5221004
  39.8195052  23.4431195  84.1547489  39.8915696  22.9650879  82.7204227
  55.7940089  86.0549259  82.0496845  56.4279639  85.4119586  82.3673630
  55.6749426  86.6570138  82.7842140   5.8543764  97.9371917  59.0590096
   6.6041409  97.4124157  58.7784767   5.2514826  97.9098701  58.3160400
   8.3148991 102.3287057  60.9421396   8.5637795 101.8225031  60.1688004
   7.3649107 102.4223798  60.8715487  33.3351064   9.3430722  33.2215953
  32.8478456   9.0485030  32.4521565  34.0344453   8.6975449  33.3238173
   0.3415881  81.0635495  56.3435507  -0.1533068  80.2833318  56.0934067
   0.8089052  81.3162517  55.5473185  37.7097106  17.5581455  26.9887233
  37.7751541  16.7009139  26.5678883  38.5617709  17.9662192  26.8347669
  98.7747955  15.8629656  86.0882759  99.5802879  16.3176632  86.3345623
  98.8852501  14.9766505  86.4324856  49.7329569  11.7609358  59.2034435
  49.3504477  10.8834851  59.2022085  49.7403049  12.0203090  58.2820797
  80.4296494  47.3664951  41.8967628  80.3728771  47.8890514  41.0967970
  79.8115253  46.6488504  41.7584324  66.9421053  22.2274923  28.9255786
  67.4840450  21.7546248  29.5571899  67.4662495  22.2434211  28.1247973
 114.8448015  83.2893419  93.2147503 114.0896703  83.6392903  92.7419376
 115.5975772  83.5273766  92.6735497  19.5615231 103.6037778  21.5672946
  19.2079245 102.7399396  21.3552022  19.4273316 103.6924308  22.5108862
 115.8074022 104.3285548  56.8430376 115.2770616 103.5379957  56.7430973
 115.3601385 104.8326623  57.5227928  16.7929970  75.0391483  62.9860783
  16.6009127  75.9752273  62.9304552  16.3923966  74.6653866  62.2011900
  20.5592989  70.3543668   2.4612159  21.0278677  69.8101454   1.8283671
  19.9483084  69.7535543   2.8877658  24.8197079  31.5025544  47.9209423
  24.3210959  32.2384524  47.5658798  24.2669058  30.7381582  47.7586508
  85.9946728  16.4441228  56.8875599  86.5391350  17.1165025  57.2970772
  86.2406921  16.4671707  55.9628010  39.9838005 104.6518081  50.0739527
  39.7574602 103.7991022  49.7026110  39.4643914 105.2781051  49.5697737
  73.1594563  30.9044266  45.7765818  72.8751469  31.8173027  45.8219337
  72.8077793  30.5850410  44.9455929   9.8893009  91.9703197  59.3172121
   9.5479189  91.4047169  58.6245489  10.1559817  92.7700078  58.8637638
  16.3758217  93.6525904  52.8663874  16.1421381  93.8726138  51.9646072
  16.1462628  92.7275025  52.9543972 100.8735371   9.5240551  25.5782700
 100.3974152   9.2227346  26.3520575 101.6760731   9.0023875  25.5726528
  47.0128632  33.3865571  66.1613846  47.7868080  33.3678937  65.5984449
  47.3577881  33.2704878  67.0466995  47.1287155  34.5436811  17.7105117
  47.8428602  35.1758027  17.7920663  46.6604185  34.6026230  18.5432506
  52.3726988  18.3326519  72.4919462  52.2407007  19.1797626  72.0662546
  51.4897871  18.0338860  72.7097511  49.2781054 106.3892435  29.2849755
  48.7296950 105.8243888  29.8294139  49.2420470 105.9916147  28.4150195
  14.7908675  99.4279420  61.2289095  14.5185362 100.2614617  60.8450937
  14.3973147  99.4260966  62.1014595 108.1856037 103.9591681  63.9611292
 108.2300473 103.0136710  64.1035748 109.0124727 104.2929440  64.3091393
 102.5708390  89.1682362  67.5723553 102.3522807  89.1118383  68.5025597
 103.5273767  89.1977786  67.5524282  44.8535109  20.7677197  69.9604177
  44.7595263  21.1478686  69.0869856  44.8870134  19.8232865  69.8082447
  53.4779024  22.2249508  62.0067835  53.9744425  22.6625896  62.6982689
  54.1404724  21.9522190  61.3720751  97.7208246  64.0423636  11.0473651
  98.0106653  64.5761250  11.7871779  98.4919943  63.9743458  10.4844207
  89.0757656  15.3323126  59.5910358  89.8388767  15.3356147  59.0132093
  88.5136318  16.0276604  59.2493820  56.5650654  28.5065103   5.3075683
  55.8120394  28.2785201   5.8527267  56.2751007  28.3298492   4.4126150
  63.1547880   2.8835604  42.6677799  62.4829483   3.5616457  42.7389622
  62.6695681   2.0597908  42.7146387  50.4535866   9.3437994  55.0909901
  50.3696918   8.5763091  54.5251703  50.3572559  10.0896275  54.4987965
   5.5852829  91.5004932  68.7635469   6.1666952  92.2216379  68.5224295
   6.1562239  90.8681702  69.1999245   2.9604613  97.3636019  75.4844379
   2.0683657  97.0193338  75.4411840   3.2177340  97.4778306  74.5695639
  50.8829355   2.4422801  80.3767395  50.2690935   1.8735102  80.8414268
  50.3254461   3.0415073  79.8803854  54.1622496  18.9074874  69.0986538
  54.0257645  18.7029183  68.1735802  54.9598932  19.4364727  69.1118193
  50.1295471  12.5620723  56.7778730  49.5231295  12.5208974  56.0384178
  50.7671356  13.2307816  56.5278006  62.2344494   7.6438028  65.1412296
  61.8236542   6.9912267  64.5741129  61.5764618   8.3334923  65.2284861
  20.1826501   8.6889917   4.6684834  20.1947999   7.7461755   4.5036155
  19.2764759   8.8778585   4.9122259   5.8357989  92.1623980  41.2483072
   6.4328276  91.4726805  40.9583473   5.9862601  92.2286093  42.1912861
  43.2397509  49.7655630  42.9794025  42.3306036  50.0178814  43.1407022
  43.7496567  50.5378103  43.2240677  62.6680040  39.5061684  45.7373285
  62.2524071  38.6989832  45.4340792  62.4817610  40.1446915  45.0489712
  67.6502037  31.2514806  56.0727835  68.1813049  31.2643647  56.8690252
  67.0643377  32.0029926  56.1634731   6.1513888  93.4907924  28.9294863
   5.7551705  92.7848672  29.4402790   6.4443098  94.1247904  29.5840669
   6.6104494  92.5354611  83.1764793   7.5561415  92.6149737  83.0516720
   6.2622820  92.4078941  82.2940159  53.2859516  22.1331525  58.0278111
  53.9642763  22.2297668  57.3594046  53.7314034  21.7097878  58.7616777
  50.0893831   4.4638088  30.8717442  49.4952250   4.3845460  31.6180158
  50.4650640   3.5892248  30.7707500  96.1937904  13.5944355  52.9247808
  95.8144283  13.5957217  52.0459652  96.3168335  12.6678884  53.1311893
  67.0001554  20.8982325  70.2737141  66.3122082  21.5519547  70.3986597
  66.5312195  20.1014185  70.0258875  68.8895798   5.4842091  76.4678097
  69.0666151   5.8395165  75.5968094  69.7482872   5.2193439  76.7975092
  52.2089911  14.1312325  63.3923292  51.5496445  13.7765074  62.7959538
  52.5275373  14.9208152  62.9549313  55.1440716  43.4193134  54.1282606
  54.5432615  42.7325964  54.4175386  54.6011591  44.2058754  54.0753746
  61.3583088  23.5403466  42.3197603  60.5012417  23.4219956  42.7292252
  61.1606598  23.8464236  41.4346170  60.8712435  38.9362216  57.7069139
  61.8093443  38.9288259  57.8970242  60.6382132  38.0123901  57.6149178
  57.3062658   2.4963723  44.9660158  57.1356869   3.4302530  44.8435402
  57.0586348   2.0963249  44.1324234  18.1102930  92.0368790  73.6935568
  18.4729706  91.8366765  72.8306484  18.3300244  91.2741660  74.2285490
  32.2982727 108.6571910  69.5849848  33.1768071 108.3903357  69.3144321
  32.4461829 109.3420497  70.2371502  90.5895138  28.9642143  73.3495378
  89.8370361  29.4816637  73.6363506  90.2467060  28.0756330  73.2539368
  84.2044258  10.2532566  49.7170067  83.4967518   9.6106470  49.6670914
  84.4285202  10.2910197  50.6468391   1.0004006   1.3446885  56.9736099
   1.6124020   1.9367442  56.5363932   0.4615174   0.9916709  56.2656403
  71.3949442  48.8832045  39.9306083  71.1686134  49.7416925  40.2883863
  71.8519688  49.0776539  39.1123486  14.4209753 105.0402763  43.1174040
  14.1732918 105.5499189  42.3459482  14.1659628 105.5890974  43.8590193
  99.0214920  19.3656361  81.5674019  99.3211365  19.8680961  80.8097839
  98.5650921  18.6133516  81.1905670  72.9841805  10.7129431  76.9661045
  72.1218824  11.0494244  77.2099352  72.9529047  10.6428361  76.0119915
  70.5496645  16.2788057  68.9685583  70.1518583  15.8702028  68.1997776
  70.4119968  17.2171879  68.8392639  92.6047993  15.5931067  71.5370369
  93.4882736  15.9611392  71.5529203  92.5947571  15.0276113  70.7648039
  91.9685555   5.7797372  86.4253712  91.5956020   4.9179196  86.2398720
  91.4960766   6.3753921  85.8438206  49.7814131   8.3788669  43.9720535
  49.9311209   8.1117690  43.0651522  48.9335203   8.8227046  43.9541626
  75.2170515   0.2024836  81.8634510  74.3059969   0.3015577  82.1398544
  75.7285452   0.4111324  82.6451588  73.5398722  48.8420057  42.3397112
  73.7721920  49.7292042  42.6138306  73.1294870  48.9559174  41.4824820
  82.0630836  21.0366130  84.6286583  82.2119713  20.7077551  85.5151844
  82.1273422  20.2609253  84.0715218  96.6193390  14.8915160  88.1274986
  97.5026608  14.7150946  87.8036880  96.1616039  14.0551627  88.0425262
  63.6431360  14.8540533  58.0470085  63.0765009  15.5992627  57.8474569
  63.0459070  14.1780579  58.3672905  40.5747877 103.8244294  43.9661121
  41.4278876 104.0849011  44.3134117  40.2460038 104.6081745  43.5258007
  90.3897095  23.6361265  61.2956095  91.2308502  23.6771798  61.7506170
  90.5757999  23.1513858  60.4914761  77.3194361  12.3429227  34.2082810
  77.4550819  12.2423899  33.2660890  78.2022429  12.3474479  34.5782232
  74.2310143   6.4339226  46.1693954  73.7218904   7.2280478  46.3318539
  74.5299292   6.5220177  45.2643442  79.2311287  20.5905128  56.5929699
  78.4730530  20.0121188  56.6766930  78.8814116  21.4678049  56.7488241
  99.7567488 101.3799446  40.6161356 100.2644254 100.6666773  41.0031080
 100.2069236 102.1756481  40.8997393  73.1834936   6.0257363  62.2910690
  73.0067968   6.8671221  61.8702602  72.3258686   5.7217824  62.5882578
  42.6624857  91.6013920  48.5693407  42.4912726  92.1310567  47.7906418
  42.8732287  90.7328438  48.2266426  52.8927313  84.5403766  75.3153992
  52.9046332  83.7095713  74.8401594  52.3436533  85.1141309  74.7810268
   4.4955407  28.8287234  51.1336756   3.5444603  28.8256097  51.2417364
   4.6428738  28.3892012  50.2962112  99.8879242   2.1554424  42.6584721
  99.1685867   2.1813606  43.2894373  99.4613457   2.0042771  41.8150187
  20.3882051  26.0629487  69.0392303  19.4808352  26.3674593  69.0255833
  20.8352971  26.6134858  68.3963871  67.4402380   0.3767241  95.3244400
  66.6561460   0.5516156  94.8040104  67.8969908  -0.3142029  94.8446083
  86.0647011  27.3693180  77.4868965  86.6092682  27.9025006  78.0660248
  85.3013802  27.1421719  78.0179119  31.1495816  84.3297195  31.7815590
  30.8383881  85.0462341  32.3347306  31.1150776  83.5581874  32.3470497
  22.9138922  78.0177789   1.5764731  23.5936235  78.2278972   2.2168273
  23.0496286  78.6468797   0.8679313  39.8678899   6.1318654  68.2134438
  39.6388936   6.4455408  67.3385763  40.3825140   6.8427134  68.5956621
  61.7847347  14.2007661  33.1200981  61.3077974  13.6510599  33.7418580
  61.6971064  13.7462163  32.2822809  42.8471613  16.0373271  41.1157131
  43.1121445  16.6719449  40.4499245  43.1508684  15.1948035  40.7778549
 100.7094301  61.0202007   2.7369899 100.9175314  60.8224695   3.6501330
 100.0311483  61.6937940   2.7863616  81.4639473  18.7101233  59.9961281
  82.2611332  18.8939142  59.4991970  81.6942310  18.9144397  60.9024715
  79.9540567  23.2725263  39.1611409  79.0743303  22.9682016  38.9382005
  80.1768494  23.8913226  38.4656644  31.3583885 102.7219945  52.0905876
  32.1405731 102.9632222  51.5943670  31.6009604 101.9134867  52.5419235
 113.3761597   9.1064614  52.3413706 114.1467762   8.9628017  51.7920685
 112.8855896   9.7938555  51.8907404  59.2202616  28.6515355  46.6382456
  60.0524426  28.5630035  47.1028662  59.3699408  29.3594646  46.0116148
  73.1866169  35.0509953  33.7694025  72.2885275  34.9339223  33.4596181
  73.2262564  34.5498228  34.5839500  76.2531614  29.3381453  31.2260818
  76.6223621  30.2203774  31.2659097  75.3174114  29.4627309  31.3844514
  58.4918928   9.9419868  68.7230778  58.3719349   9.3754435  69.4852257
  59.1765690  10.5566621  68.9869499  57.5361906  89.9176943  72.1671057
  57.8958403  89.4425034  71.4180565  57.1987521  89.2334770  72.7452183
   6.9862305 109.5308504  15.7868552   7.5517498 109.0233376  15.2047443
   6.1028611 109.2136259  15.5990839  82.4403191  12.1141028  39.1510582
  81.7087173  12.5477338  39.5903373  82.0592594  11.7535973  38.3503962
  34.8336673  17.5203609  71.2080812  33.8932467  17.6088786  71.0531521
  35.2205443  17.5082874  70.3326321  88.9200687  32.0613384  60.2069902
  88.3302689  32.4571180  60.8486509  89.4890785  31.4913678  60.7242823
  55.9924589  85.9883713  51.3547468  56.3853823  86.7437290  50.9174013
  56.6757761  85.6713652  51.9453573  72.6919270  20.0379848  54.2289782
  71.7353821  20.0174546  54.2577839  72.9140568  19.6611142  53.3775949
  38.4648705  20.5749226  61.0581541  38.2594824  21.5074968  61.1241245
  37.6322126  20.1338005  61.2264538  81.6800308  21.6000009  63.4715414
  81.2379551  21.6466665  64.3192530  81.2369823  22.2564244  62.9339075
  71.0007191  30.0340176  57.1364975  70.2853394  29.7023273  57.6791239
  71.0673428  30.9603882  57.3680830  75.4673815   4.5276830  67.6048279
  75.7358789   3.6432561  67.3559666  75.8975220   5.0970125  66.9668055
  70.3827858   9.1581196  54.0199566  70.5738401   9.6891433  54.7930956
  70.2374411   9.7959906  53.3212233 102.3403072   7.0000762  55.5669689
 101.6273403   6.6203260  56.0804892 102.7983379   6.2448984  55.1979971
  51.4630604  25.7555437  50.5881166  50.8958578  25.2874589  49.9754095
  52.0167971  25.0745130  50.9699583   3.0923533  39.1670363  16.1022490
   3.3876108  38.3492713  16.5026397   2.1377586  39.1330152  16.1641044
   6.5935313  97.2601318  34.7795200   6.7774092  98.1173074  35.1638031
   7.2614085  97.1530365  34.1022420  49.2607104 107.3680078  82.6531124
  49.8343836 106.6145333  82.5138283  48.3756720 107.0160233  82.5579739
  59.6050535 109.1433853  43.1875324  58.7197005 109.4318536  43.4092522
  59.8307787 108.5145622  43.8730001  42.5752783  15.6997180  52.4070930
  42.9638910  14.8758793  52.1129847  42.0073986  15.4499006  53.1360245
  51.3746500  13.4826016  53.4456158  52.2345018  13.8371372  53.6718845
  50.9824276  14.1480112  52.8802633  63.1367064  11.5137553  52.0495605
  62.8709364  12.4318600  51.9977713  62.9564476  11.1626744  51.1775064
  54.5225573  21.8916821  65.9678364  54.6433783  21.0108805  65.6131220
  54.1350746  21.7509222  66.8317080  80.9423447  37.4159217  53.7380266
  81.0843945  37.5531888  54.6746206  81.7481995  37.7267504  53.3254623
  43.9953423  32.8795791  23.9373469  43.8549900  33.6181045  23.3448005
  44.7604799  32.4283814  23.5806727  86.2130928   4.7522163  47.8476477
  86.7818832   4.1780022  48.3604717  85.6029606   5.1187176  48.4876823
  26.1723219  84.4854283  79.9931765  26.0372053  83.7641811  79.3785381
  26.5436684  84.0703248  80.7716465  86.1469173   1.5209301  48.1932068
  86.9744301   1.9530669  48.4046507  85.5246353   1.8697476  48.8314247
  40.9501635 101.4176803  82.1762466  41.5120493 102.1245789  81.8587399
  40.5062901 101.7887025  82.9388332  54.5551729  11.3284695  72.9628944
  54.8588610  11.7468393  73.7684822  55.2755594  10.7531023  72.7055502
  72.3985004  25.6404972  30.0903583  72.1286583  26.2368464  29.3919444
  71.8560982  25.8877397  30.8392930  78.3844423  29.2219090  48.2315063
  79.0498638  29.8266006  48.5598326  77.7900982  29.7731781  47.7225018
  82.1555328  16.1672044  81.7007732  82.0633984  16.6410851  80.8742237
  81.7049122  16.7157364  82.3428631  16.2476670 104.7387713  20.1406503
  16.9463049 105.3026085  20.4726529  15.4968964 104.9317705  20.7021928
  29.2329574  36.5563631  65.0960875  28.8692403  36.7793012  65.9529638
  29.9897146  37.1344566  64.9993467  82.7837372  11.1669099  73.6031389
  82.5781441  11.8930984  74.1918755  81.9302654  10.8184052  73.3455467
  59.2663145  12.0927906  80.1128101  59.2934942  11.2826133  80.6218338
  60.1855946  12.3052382  79.9514675  78.0876732  19.5605755  65.4388428
  78.8766575  19.0311682  65.5548620  77.4906445  18.9962149  64.9476337
  65.7862568  11.3870764  47.7042055  65.9717941  10.8491302  46.9345140
  65.7374191  10.7618010  48.4273052  31.0220658 107.9717336  57.1007395
  31.3924681 107.9585341  57.9832697  30.8428656 108.8963781  56.9300079
  87.8183460  45.9152365  50.4576349  88.2648182  46.2414980  49.6763182
  87.8747559  46.6364431  51.0844612 108.6717559  87.3590040  82.0489883
 108.5315276  88.1440329  81.5195656 109.3404509  87.6148652  82.6842976
  55.5867195  26.2673640  65.3328180  55.6387901  26.0560846  66.2649536
  55.3413296  27.1923018  65.3102207  78.8672781   7.7487910  55.8734274
  78.9067030   8.6218739  55.4830360  79.0702248   7.8904843  56.7980719
 101.3110352  13.9601231  48.9044952 102.1373081  13.8781261  48.4282684
 101.2075520  14.9013877  49.0442944  45.5615603  97.4958491  59.0873003
  45.4520022  96.9507872  58.3081102  45.4239165  98.3902251  58.7752438
  66.0362864  11.9642174  24.4860148  66.3888264  11.2517822  25.0192904
  65.3273487  12.3307765  25.0144768  43.8435364  20.1475978  49.8568344
  43.3972979  20.1868939  50.7027435  44.3836832  20.9375048  49.8340607
  40.0455523   9.9294323  70.7136822  40.6024170   9.4103229  70.1334620
  39.2888308   9.3686301  70.8842802  71.5365982   0.3807984  77.8723478
  71.2774229   1.0295572  78.5266972  71.7337608  -0.4061708  78.3803225
  71.5355158   9.8007810  16.3415849  70.8300352   9.7686040  15.6954491
  71.9166279   8.9228976  16.3240075  47.1342802  18.9083552  72.3761702
  47.6152086  18.4053886  71.7189312  46.7155600  18.2457936  72.9256392
  21.2505507  94.8561482   4.8171348  21.7043947  94.1371517   4.3774623
  21.0232424  95.4625564   4.1122645 105.4572582  23.2603121  53.9347172
 104.8817921  23.1006885  54.6827745 105.3408432  22.4926758  53.3748865
  69.2317390  13.8174772  66.9629002  69.0509462  13.2806957  66.1912727
  68.3670521  14.0651631  67.2903109   7.2650586  12.1474981  68.3735752
   6.7574463  11.8908608  69.1434431   6.8053780  11.7429781  67.6378489
  95.0797749  49.7191858  65.1541185  95.1314354  49.4208860  64.2460537
  95.0724983  48.9134789  65.6708527 101.1543941  22.0833921  68.5780764
 101.8532276  22.4198723  69.1390085 101.4857292  22.1985912  67.6874733
  41.9572544  23.2099533  53.6406803  41.8354464  22.5336576  54.3070269
  41.1186314  23.2467651  53.1806898  88.4735966  45.7079887  58.1364679
  88.7259579  46.6218662  58.0046368  87.6357555  45.6228542  57.6814842
  67.2965527  30.3000903  24.0731335  66.3812828  30.0606370  23.9276242
  67.5885105  30.6524467  23.2323980  83.3020020   9.9276608  79.8797941
  82.4860382   9.4281524  79.9102688  83.8981152   9.3815911  79.3672657
  78.2101536   3.0818066  43.7914419  77.6641226   3.5866338  44.3941307
  78.8922596   3.6942661  43.5160160  73.8346434   9.0222174  87.7459049
  73.3084679   8.2230216  87.7715588  73.6874437   9.3778688  86.8695068
  89.7567272  16.6119325  70.0671530  89.9775505  17.3790598  70.5953407
  88.8423252  16.7473972  69.8186588  21.8282543  87.4173617  86.9968033
  22.1290861  86.5650462  87.3119068  22.5892626  87.9901170  87.0919228
  52.8349066  37.8598189  48.8803387  52.9701948  37.8456092  49.8278236
  53.3860350  38.5784698  48.5704517  36.3060271  83.4813213  27.9507947
  35.3603636  83.3665084  28.0444193  36.4133726  84.4032907  27.7169609
  59.6421957  15.1981473  47.8839874  59.9013138  14.3381643  47.5530481
  60.2913809  15.8002746  47.5203514  68.1953716  12.3445022  74.0242434
  68.7743282  11.5833759  74.0658092  67.6366758  12.2629476  74.7971869
  49.9175596  15.1448810  51.8878508  49.3196201  14.3975425  51.9014311
  49.8201036  15.5136704  51.0099411  72.7264547  49.5359135  48.8025284
  73.6118603  49.6718931  48.4651852  72.5082970  48.6392975  48.5481453
  33.1625915   6.2592441  79.3539143  33.6558461   7.0252442  79.0603590
  32.5754142   6.0587263  78.6250496  73.7389708  36.3863373  25.5475068
  72.7851534  36.4621377  25.5206561  73.9192629  35.9195733  26.3635087
  80.4808235  23.4607935  84.1981030  80.5626678  22.5269580  84.3917084
  79.8013973  23.5072923  83.5254574  27.3596703 108.6176493  79.4930363
  27.4499737 109.3068179  80.1511574  28.2447707 108.2683580  79.3890047
  75.6569052  21.2934661  62.2624350  75.1487875  20.6905699  62.8051710
  76.3380957  21.6258669  62.8470039  25.1011120 100.6104701  27.7572012
  24.4062983  99.9570333  27.8377581  25.7541214 100.3468936  28.4055305
  82.3303795  26.7463827  32.1426344  82.9757118  26.8263197  32.8450561
  81.5262127  26.4759612  32.5858259  78.4553051  25.7368779  49.1800070
  79.3210268  25.7895613  48.7750626  77.9766083  26.4834738  48.8198996
  39.6894156 100.8751642  91.1526299  39.1711174 100.1401328  90.8250237
  40.3834807 100.4669713  91.6702080  52.1766663   6.1646426   7.2716957
  51.7300940   7.0108002   7.3003787  53.0509758   6.3664281   6.9383889
   8.2756697 109.3810530  26.7576075   7.3578678 109.1158144  26.8169332
   8.6252486 108.8721608  26.0261321  56.4756584   7.0243412  29.4707537
  56.8805552   7.0300913  28.6034250  55.7199430   6.4441639  29.3784428
  69.6714401   7.6699650  56.4515352  70.1674414   8.4660369  56.2605190
  70.2677155   6.9561732  56.2252808 112.2276402   1.0305779  67.6419735
 112.7995777   1.4737643  67.0153093 112.0089722   0.1994650  67.2204685
  71.7659235  41.6780806  33.3136487  70.9316397  41.2115574  33.3641934
  71.5263700  42.5710344  33.0656862  89.2034912  11.8542182  24.2149425
  89.0466690  12.7974558  24.1708970  88.5179043  11.5242982  24.7957659
 112.1505238  97.1246623  41.0977507 111.7012764  97.4324703  41.8849373
 112.6737500  96.3806879  41.3960218  96.9175434  29.3664813  56.4304495
  97.8071117  29.0856862  56.2158489  96.9788933  29.6905804  57.3290205
  17.9508435 100.0563645  58.5299730  17.7102934 100.9011578  58.9103556
  18.2400357  99.5313107  59.2762470  14.7660290 108.3474112  57.5193310
  14.9946295 107.6501467  56.9046783  15.4466711 108.3071470  58.1911469
 114.1541315  93.1691360  69.9030066 114.4431926  93.0358135  70.8057261
 114.9633170  93.3044540  69.4099140  75.3948116   7.7811432  57.9461002
  75.8376789   7.4970460  58.7457180  74.7719717   8.4457153  58.2404613
  69.0988016  19.9603939  72.3766184  68.6678362  19.3472612  72.9720736
  68.4117413  20.2218819  71.7635870  65.2371597   1.0006250  62.0916367
  65.8116865   0.6989191  62.7952909  64.8947287   1.8379588  62.4044371
  99.7695316  65.5762176  21.3367576 100.2978672  66.0021024  20.6616897
  99.5063461  64.7434484  20.9450168  24.0827809  36.3580322  66.9761944
  23.7279663  35.4783416  67.1045876  24.4394837  36.5995383  67.8309822
  67.7817535   3.7321654  92.2560310  67.3317957   2.9812732  91.8688202
  67.6073885   4.4536373  91.6516209  90.1826477  32.4376488  70.3893757
  89.3337059  32.8486419  70.2262592  90.3600883  32.6131058  71.3134766
 116.1159611  24.2490315  83.8233376 115.5932808  25.0509167  83.8197994
 116.9891071  24.5310545  83.5507298  94.9210262  35.2743673  59.6923685
  95.6405640  35.7731009  60.0793552  94.5643044  35.8525491  59.0180635
  87.0775318   9.7816104  12.5358844  87.2845078   9.6000880  11.6191268
  86.1859703   9.4524354  12.6498592  97.5526142   9.4343632  61.6788673
  98.3611584   9.7103208  62.1105337  96.9201851   9.3419635  62.3914194
  33.0365263 102.9841220  72.8961086  33.0186783 103.7373059  73.4865570
  32.2927557 103.1219255  72.3095560  48.5488211  87.7560353  73.9729261
  48.8442980  87.0156669  74.5028162  47.8899084  87.3834204  73.3870745
  50.4495525  13.1875348  61.2813377  49.7571945  13.8449836  61.3494062
  50.3663206  12.8432345  60.3920889  81.5763855   3.3682245  90.3269100
  81.7635155   4.1557392  90.8378220  82.1948910   3.4035268  89.5972252
  -0.0504722  24.6659136  87.5931072   0.6046925  24.5612645  86.9031525
   0.4009781  24.4004512  88.3943272  48.7744414 101.9822352  68.0553579
  49.6659743 101.9540881  68.4026480  48.7876688 102.6973557  67.4192286
  64.4836712  44.2643976  30.8425474  64.2594242  43.3506584  31.0186958
  63.7827396  44.5770597  30.2705622  60.2469444  22.5009370  72.4698591
  60.8533001  23.1130385  72.0528507  60.7454538  22.1278310  73.1968451
  92.6437283   2.5976843  48.8417387  92.9241085   1.6871074  48.9337826
  91.8279648   2.5479123  48.3434582  36.9438540  96.2460148  84.4662094
  37.2957074  95.5112051  83.9637375  37.5838505  96.9473910  84.3449593
  55.9207010  18.3124268  45.1915598  55.3003740  18.3165646  45.9205389
  56.7800856  18.3777750  45.6079912  76.8833494  17.5005281  21.7432833
  77.2565889  17.4357522  22.6223326  77.1639585  16.6976166  21.3041687
  79.8154354   4.9925175  63.6340714  79.9931431   4.7610611  62.7224350
  80.1459408   4.2492995  64.1386747  67.0252037   2.2596803  56.9458246
  67.4465132   3.1191677  56.9491577  66.4583349   2.2678177  57.7170706
   8.6556111  34.7821593  61.9215059   9.2993985  35.1689672  61.3280821
   8.5444603  35.4349136  62.6127338 114.5953941  33.2149744  50.1298857
 115.0393867  33.8532281  50.6882191 113.8496590  32.9182482  50.6514835
  64.3874407   1.0650525  51.5683508  63.9870358   1.1494603  52.4336720
  65.1066971   1.6966054  51.5746212  12.4683056  38.7013626  79.7628117
  11.8360196  38.7137175  79.0442801  12.8559170  39.5765400  79.7558403
  67.2546564  72.8243827  82.1353912  66.4860903  72.7931785  81.5656853
  66.9327627  72.5319170  82.9880810  30.0557696  99.1245674  73.9215612
  30.4425751  99.9953216  74.0132284  29.5130335  99.0200984  74.7030640
  92.1944536 105.5234256  57.5290108  92.4326397 106.4431431  57.6457071
  92.6137484 105.0725686  58.2619143  90.3028965  18.6727214  57.5760174
  90.3282547  18.7905955  58.5255957  91.1123943  19.0762937  57.2628641
  76.2108421   9.0208948  76.2721157  76.7965031   9.6013278  76.7582512
  75.6096029   8.6785567  76.9335890  94.2800630  39.5956962   8.4377498
  94.1474880  38.6950271   8.7334746  93.3964313  39.9564640   8.3651465
  20.7037436  77.7485251  37.5871682  21.4294659  78.2343482  37.9790044
  20.4824530  77.0823406  38.2379079  37.5313616   0.4330120  64.8237610
  36.8539596   0.5696311  65.4861021  38.3442068   0.3601914  65.3239679
  65.2869225  21.0742521  73.9376354  65.3252983  21.8174100  73.3355761
  66.1314058  21.0870838  74.3880939  85.9341335  31.5826082  21.6811776
  85.3088856  31.3831806  20.9843826  86.5923023  30.8904958  21.6176987
  85.8447361  13.4545016  62.2315550  85.9863949  13.5657048  63.1716585
  85.7555199  14.3463707  61.8956327   8.8895689 101.9189864  64.9390030
   9.6821724 101.9527041  64.4033957   8.5907494 102.8273290  64.9820185
  45.1097679  37.8481102  43.7969589  45.4055071  37.1247482  43.2442188
  44.2226362  38.0363703  43.4907103  25.6811403  92.2358494  11.8691558
  26.5715860  92.0616655  12.1741027  25.7435583  92.2000937  10.9146613
  45.4689013  93.6943900  63.2481575  45.2513300  94.5378243  62.8512812
  44.8112189  93.5753428  63.9333725  71.5575457   2.5999731  62.1942472
  71.0124588   3.2001188  62.7031040  71.2566090   2.7094635  61.2922049
  55.9397684  84.1732358  12.2994208  55.3866183  83.9127731  11.5629327
  55.9494959  83.4078049  12.8740978  74.7889614  24.5710492  61.2825775
  75.4742622  23.9224505  61.1216116  74.5809603  24.9198651  60.4158068
  83.7919712  27.0187569  48.9461374  83.9441204  27.7986217  48.4123850
  83.2733822  27.3328972  49.6868277  63.4921824  80.4481458  62.1457386
  64.2744147  79.9779057  62.4342299  63.6956679  81.3702583  62.3023653
  90.7202435  14.6948922  81.7638302  89.9323559  15.1212585  82.1009827
  91.0171604  14.1372335  82.4829197  30.6635557  93.4587240  49.7827911
  30.0991856  93.0624651  49.1189432  31.4318882  93.7577116  49.2964745
  62.9847383  33.8472819  36.9459534  63.3814859  34.7164726  36.8882608
  63.5286570  33.2977867  36.3816476  59.2971121  78.1632613  62.8619432
  58.5810076  78.3753251  63.4606552  59.1749846  77.2352528  62.6616526
 100.9931183  46.6867733  50.6101894 100.1706886  47.1670628  50.7059097
 101.5001488  47.2025967  49.9832249  49.7403609  90.3897452  81.6735363
  49.6695315  89.9395251  80.8318043  50.6117235  90.7857107  81.6607952
  71.0623455  15.7396066  73.2577991  71.8414879  16.1172056  72.8496504
  70.4880238  16.4887917  73.4162569  63.8474655  21.7350221  64.3634367
  63.2810974  22.4816370  64.5584297  64.6863651  22.1274757  64.1216421
  98.0795383  47.2090244  54.4390059  97.1434879  47.2007656  54.6389580
  98.5067844  47.0937824  55.2877760 101.0344887  22.4593401  38.0624938
 100.6629467  23.1797123  38.5716701 101.4604568  21.9010377  38.7129354
  28.8063465  95.0055551  81.5778255  28.7660204  95.3558242  80.6879234
  29.0202509  95.7622611  82.1235943  80.1422119  23.3711410  61.8935537
  79.4287252  23.6948347  62.4434519  79.7045422  22.9981542  61.1283302
  86.7010880  53.7148333  40.9492207  86.7843056  52.9142237  40.4312181
  85.9196568  53.5740900  41.4838028  60.4060888  16.4973903  39.5809627
  60.1948309  17.3729217  39.9050689  60.0042582  16.4598823  38.7130022
  82.3175430  25.8270526  16.2661493  81.7916203  25.0394440  16.1272085
  83.1440735  25.5030775  16.6240859  99.2079353  47.1026897  68.0002642
  98.8572979  46.8174219  67.1565199  98.4369183  47.3622179  68.5046530
  37.7637135 102.2340994  36.2187529  37.5452124 102.8652882  36.9043851
  37.1648108 102.4424433  35.5017138  92.4743748  41.6497087  36.9403458
  92.0157623  41.5248108  36.1095023  92.3464584  42.5753736  37.1477413
  96.2573814  24.7898412  73.2562113  95.5503368  24.1967869  73.5103893
  96.7541885  24.3024659  72.5990343  81.0169315  22.4062967  44.1789055
  80.5824184  23.1574726  43.7749577  80.7099724  22.4110842  45.0855398
  87.9447746   7.4723452  65.5133343  87.7366829   7.9510224  64.7109604
  88.4080315   8.1083918  66.0583687 110.7102013  25.3581834  46.7578363
 109.8607922  25.3248906  46.3178062 110.7999706  24.4992065  47.1705532
  85.1904869  47.8602362  52.1608877  84.7119236  47.8323793  52.9893923
  86.0136318  47.4074841  52.3444176   1.9207535  24.8110604  82.5701332
   1.5255795  25.2416587  81.8120766   2.5476513  25.4502177  82.9088211
  87.9542828  33.6271644  73.6471510  88.0446815  34.2932129  72.9656553
  88.4489250  33.9750171  74.3891478   8.5156308  27.0343518  83.2337189
   8.4889088  27.9267812  83.5788059   9.1896401  26.5965939  83.7536335
  79.8348700  95.5149543  28.5456920  80.2356039  95.7250726  29.3891931
  78.8930403  95.5675947  28.7082314  71.7085552  28.2515645  39.1975379
  71.6781664  27.4446869  39.7115970  72.6341105  28.4955144  39.1891789
  72.7917004  22.2232270  36.7341232  73.6243486  22.5227857  37.0990825
  72.2213840  22.9907680  36.7771053 106.4800549  23.7046123  41.0436010
 106.4351654  24.1169691  40.1809406 106.8537521  22.8393912  40.8763313
  10.7134686  35.8366752  65.4927635  10.4661618  36.4223003  66.2083864
   9.8840199  35.6065226  65.0741053 108.6368942  49.6282005  49.8272753
 109.5418739  49.6211481  50.1390314 108.5873318  48.8907194  49.2190886
  41.2515640   8.3942944  35.4448032  41.2164164   8.0577576  34.5494032
  40.3344631   8.4712768  35.7079124  95.1571846  61.5862226  52.2290325
  95.5550575  62.3181057  52.7004910  95.8641338  60.9473610  52.1379042
  93.2598209  44.5363331  20.6086540  93.8402462  45.2585173  20.3682470
  93.5966778  44.2282152  21.4499760  94.7889423  24.9142241  63.0620813
  94.4218254  25.4242539  62.3400593  94.3829632  25.2830267  63.8465548
  80.2376175  52.9356480  57.3175764  80.4607105  53.8591099  57.4345446
  79.3263054  52.9446173  57.0248938  11.1579380  21.1745763  49.5425224
  10.9275017  20.9614778  48.6382389  10.3803120  21.6101122  49.8915720
  68.5969877  35.7772183  39.1413188  68.2817030  36.1638474  38.3244061
  67.8214836  35.3720856  39.5295191  56.3152647   2.2377878  57.5160027
  55.7959509   2.2441791  56.7119455  57.2137928   2.0926824  57.2196531
  90.0718117  12.3924482  58.9290810  89.9274635  12.6066411  58.0073881
  89.1919708  12.3255730  59.3000746 106.9420147  47.5324345  45.8265018
 106.6737747  46.8316555  45.2322054 106.6764545  48.3377743  45.3824949
  66.3704205  17.7868438  15.6533754  67.2947407  17.5922489  15.4984653
  66.3722610  18.3686519  16.4134598  23.7263846  71.6736965  13.1437701
  23.2302355  71.1617415  13.7824935  23.0797075  71.9258981  12.4846477
 101.8457222   2.2651435  65.6891537 102.1227264   2.6252297  66.5316772
 101.3929272   2.9890451  65.2565193  63.0819689 102.8692948  37.8880835
  63.5479056 102.2486948  38.4484291  63.4997546 103.7121343  38.0650091
  86.8165779  12.3752415  71.2276649  87.7261066  12.0968807  71.1204481
  86.7393208  12.5882030  72.1576691 115.6441307  55.4202890  37.8194451
 115.5075455  54.5538568  37.4362040 116.4385986  55.3271151  38.3451605
 107.6507759  48.1975508  72.8680706 106.7926407  48.4729576  73.1905603
 107.9667664  48.9446831  72.3599577  73.8785076  21.6888118  45.9541702
  74.5199537  22.0815706  46.5462160  74.2034483  21.8954039  45.0778341
  94.4591713  32.7805352  64.2539835  93.8291645  33.2528424  64.7982645
  94.7415638  32.0451546  64.7977686  44.1808306  89.8212826  22.2724962
  44.9962126  89.6660470  22.7492356  43.8448321  88.9456534  22.0811582
  94.2773533  18.0486000  46.0543156  94.5057106  17.9508138  46.9787216
  94.9637508  17.5730133  45.5864382  72.7163744  41.1559200  19.3273127
  73.1828547  41.5200853  18.5749769  73.1756687  40.3388214  19.5213127
  46.2383353 103.7400805  27.3477745  45.6389033 104.4766491  27.4677229
  45.7973467 103.0015599  27.7677107 103.7608528  22.7703977  41.9601870
 103.5489082  23.6915994  42.1108341 104.6570301  22.7826786  41.6240931
  73.2669878  14.3376863  46.8742371  73.1508398  13.8019633  47.6589298
  74.2156744  14.4272029  46.7836094  78.5414696  13.8104153  46.6430235
  78.5766840  13.8389671  47.5991488  79.4372797  13.6038184  46.3764143
  60.4893957  98.9993464  38.8195157  60.6951224  99.1218960  37.8927517
  61.3203512  99.1475319  39.2709470 107.9046345  34.7098231  52.9157400
 107.3231316  34.4454145  52.2028732 108.7345600  34.9138641  52.4846745
 114.3485641  21.7711282  66.3046980 115.0406647  22.2835994  65.8868408
 114.0454578  21.1748385  65.6200123  47.3647963  99.4346833  60.9032106
  47.1544062 100.3678703  60.8696032  47.7129637  99.2362010  60.0339508
  59.3977499  43.2185364  46.8902302  58.8556719  43.6631680  47.5419092
  58.7821388  42.6780415  46.3951302  71.0594797  10.2791882  56.5030336
  70.7599211  11.1515665  56.2471914  70.9277630  10.2490628  57.4506474
  69.1772556  16.1698806  65.1763105  68.5859585  15.5965841  64.6885300
  69.4258833  15.6583071  65.9461832  73.1495285  25.0893593  48.4168768
  73.4232521  25.0977659  49.3340635  73.1652689  24.1644907  48.1706953
  97.1606445  41.4126825  95.0882530  97.5923157  42.0073986  94.4748974
  96.2295532  41.6193676  95.0071526  38.2340847 102.3196941  44.4035912
  37.9566895 102.7848434  45.1928425  39.0425335 102.7584087  44.1386986
 105.8406162  16.0279417  51.0967541 105.4915619  15.1705897  50.8531570
 106.7476368  16.0128689  50.7912731 110.0584984  35.0030065  45.4317379
 109.7954082  34.2511225  44.9009991 110.7063389  34.6505427  46.0418987
  80.1283346 106.1288976  61.8977690  80.6842791 105.5985155  61.3269424
  80.7398402 106.5581586  62.4961233  38.0290066 105.1820406  80.2166748
  38.8378035 105.3792625  80.6890965  37.9044281 104.2407232  80.3376389
  98.6151409  21.4976740  67.0109844  98.8733387  22.2816181  66.5262175
  99.4349098  21.1560273  67.3680401 105.6183338  10.4786181  53.2634306
 106.5550995  10.2983153  53.1847620 105.1984787   9.6298730  53.1234694
 100.3511047   0.0754340  85.6617451 100.8335209  -0.0596349  86.4773846
 100.5490971   0.9783125  85.4130745  89.1390038  36.1096501  55.6980896
  88.2556915  35.8198953  55.4700089  89.0123940  36.9670534  56.1043644
  63.5267067  21.9574356  67.5315571  63.4119368  21.2623334  68.1795454
  63.5314083  21.5017676  66.6897869  76.7321444   8.1986070  11.7087615
  76.9015932   7.2662956  11.5734303  77.4316883   8.4865212  12.2952580
 100.9474087  16.2329018  25.5970621 101.8637371  16.1891794  25.3238010
 100.6094360  17.0234179  25.1762390  96.9288445   6.4720100  67.0718241
  96.2526989   5.8009875  67.1655083  97.2433662   6.3713187  66.1733961
  83.3594513  24.5534730  45.1553583  83.6692429  23.6668944  44.9703169
  83.5100174  25.0345135  44.3416262  53.1046247   7.1287811  52.4243164
  52.1757841   7.2092104  52.2074795  53.1921148   6.2438774  52.7786064
  84.5094204  23.1208587  11.5888476  83.5928249  22.8475928  11.5513170
  84.4878578  23.9721274  12.0260048 111.0153103   6.2981164  43.9239073
 110.9872341   5.5775237  44.5533419 111.7814445   6.1122280  43.3810377
  59.0199709   2.1253996  60.3576756  58.7468004   2.4047093  61.2315130
  59.4235802   2.9033595  59.9728251  88.7175369  19.4521487  31.8215942
  89.2571068  18.9773071  31.1894464  88.9610004  19.0820205  32.6700997
 111.3761234  24.0988588  62.9104328 111.9969368  24.5732164  63.4634352
 110.6972694  23.7991500  63.5150433  81.5624619  59.8742485  47.0803976
  82.0556927  60.5769205  46.6570663  82.0479965  59.0777779  46.8656349
  72.8406334  43.5250330  60.7625198  72.1925449  42.8818512  61.0498047
  73.1706476  43.1786394  59.9334621  30.3846871 103.6377024  92.3802662
  29.5078074 103.9769440  92.2007561  30.2492653 102.7075445  92.5610924
  76.8405008  44.9613810  30.1020336  77.7237368  45.1317692  29.7747779
  76.5010977  45.8251810  30.3363109  65.6591940  13.4120905  42.2623348
  65.5806303  13.6997318  43.1719065  65.2103138  14.0899646  41.7571402
  87.8339291  42.9475784  46.2816906  87.7287388  43.1921244  45.3622532
  86.9952679  43.1697464  46.6860771  91.5559483  28.1842804  51.1806822
  91.8774223  28.7715530  50.4965782  92.2037888  28.2558537  51.8816853
  56.8159723  15.6643808  68.7955046  56.5664482  16.3972509  69.3584204
  56.6032743  14.8849142  69.3087530  88.9144993  20.7682538  62.3100662
  89.0043163  20.2144194  61.5345478  88.6232948  20.1706338  62.9987478
  77.3961020  15.0108075  58.5251665  78.2217312  15.4145205  58.7927151
  77.3727036  14.1782045  58.9968157  30.6359993  81.8905758  63.0294943
  30.9440171  81.2870716  63.7056160  31.4033161  82.4206948  62.8140259
  58.1017494  32.7935719  37.8365040  58.8816547  33.3467054  37.8814816
  58.3889771  32.0125723  37.3634601   4.6968041  42.9889488  43.7625790
   5.1399765  43.1025934  42.9218006   3.7650071  43.0511093  43.5525084
  91.9645786  28.8033080  48.6233711  92.8905964  28.9263272  48.4146023
  91.6254807  28.2709885  47.9037333  59.0035998  86.3550257  63.6155844
  59.4678484  86.0980796  62.8189135  58.2411848  85.7770418  63.6454868
  81.3549982 105.7244378  70.0996447  80.8684336 105.3832965  69.3492365
  82.0839201 106.2090232  69.7122383  94.3363476   9.6311569  66.5504026
  94.0885162   9.3029308  67.4147415  95.2853203   9.7458404  66.6008043
  95.1050282  63.2218409  59.3433666  95.0792885  62.2927856  59.5723343
  96.0205841  63.4732151  59.4649553  87.0396233  31.8200397  48.9156342
  86.6624451  31.2518525  49.5872974  86.2829494  32.1688938  48.4444904
   4.0626393  25.1441097  56.8058920   4.9565945  24.8024631  56.8246651
   3.6549530  24.7918653  57.5970602  86.6717148  30.7868528  75.5717945
  85.9169006  31.0182428  76.1130381  87.1932220  30.2046919  76.1243820
  64.0083694  30.8317900  27.1088481  63.9666367  31.7668772  26.9085932
  63.1280327  30.5068779  26.9199777  95.1875210  39.1352701  56.5891171
  94.5041084  39.6627593  56.1756611  94.7337818  38.6564183  57.2826958
 109.7875011   1.7659527   0.0367087 110.2897823   1.8764215   0.8440131
 110.3871620   1.3166195  -0.5588800  63.6166620  24.8483634  43.3843994
  63.0803442  25.4648829  43.8828993  63.0053282  24.1631651  43.1142044
  88.6342144  23.0293012  54.8211002  88.5201263  23.1754827  55.7601690
  89.1463089  22.2225714  54.7647619  93.5109425  15.2209723  15.4232645
  92.9344940  14.8172915  14.7744370  93.1777668  14.9111152  16.2654102
 100.0098610  46.8578434  64.3278980 100.6174755  46.2316275  63.9343214
 100.1856804  46.8041372  65.2672768   6.1950671  95.9319519  89.2247677
   5.5543839  95.2216386  89.2595768   5.8949696  96.4902424  88.5074902
  72.7874088  30.8752608  42.9546833  73.7426281  30.8374619  43.0032682
  72.5813866  30.5899763  42.0645142  59.1323566  31.7818904  50.6720114
  58.9562416  30.9897017  51.1796045  58.6140966  31.6754031  49.8743343
 104.9124050  13.9375281  37.2693515 104.5114803  13.7040043  36.4321184
 104.7580338  13.1767106  37.8293133  83.4037781  17.4884021  65.6791449
  82.6671886  17.2341204  66.2350225  83.0335808  18.1245244  65.0671530
  46.0989237  26.3000464  55.3732252  45.1885986  26.2375379  55.0840187
  46.0818768  26.0044813  56.2834883  99.7338295  25.6575894  45.2770662
  99.6004772  25.7876873  46.2159634  98.8685608  25.7938933  44.8911095
  92.3033619  13.6472392  53.4122610  92.3159409  14.4913793  53.8633728
  92.6227379  13.8417649  52.5311327  92.2790718  22.4684238  56.0791302
  91.7961121  21.6918325  55.7964849  92.7033710  22.7893782  55.2833986
  91.1467730 109.9291474  44.7675085  91.0101878 108.9819052  44.7499752
  90.3046213 110.2975550  44.5005083  43.6093317 102.1992629  66.3611031
  43.6244284 103.1560569  66.3376904  43.7347781 101.9802659  67.2844315
  18.3384012  49.2962913   2.3902053  18.5010408  50.2110510   2.1599978
  18.5510134  49.2423336   3.3219260  98.2753277  47.5475407  79.2557335
  98.3335590  46.7691135  78.7017536  98.9075089  48.1586218  78.8773727
  92.1644306  11.5491641  65.8158684  91.8623447  11.4529264  66.7190361
  93.0707359  11.2416458  65.8324003  78.1363869  24.5993948  63.0415869
  78.0118608  25.2993178  63.6825514  77.7335072  23.8305950  63.4451485
  73.6917782  25.3802609  50.9475088  73.5764074  26.0702062  51.6008854
  73.0360889  24.7215486  51.1764240  88.2449913  40.7437181  51.4515018
  88.5650158  40.2960634  52.2347164  89.0024376  40.7748461  50.8670855
 103.5672760  57.8811884  43.8704491 103.5183716  57.5508499  44.7675037
 104.4987392  58.0490255  43.7274599  59.5313549   6.1279160  58.7750101
  58.7855387   5.5290461  58.8116550  59.1439247   6.9986761  58.8639164
  77.8828335  21.9655371  64.0383482  78.0580091  21.1633825  64.5303822
  78.5895586  22.0106554  63.3943462  87.3340416  32.3645544  42.4501657
  87.4719906  31.8444991  41.6584921  87.6484966  33.2388902  42.2201920
 113.1683254  31.5955162  71.0902929 112.9612732  32.4690461  70.7581711
 112.4009609  31.3471556  71.6057587  89.0058136  13.2292628  48.3299732
  89.1453266  13.7190497  47.5194931  88.9999294  12.3117268  48.0573511
   2.9491864   6.4330631  81.7311001   3.7746773   5.9732187  81.5783119
   3.2074604   7.2600448  82.1380711  82.9028034  13.1375086  43.0946684
  82.8190231  13.9428914  43.6051321  82.5094891  13.3486128  42.2479296
  85.2586079  22.3901772   9.0844464  84.8380661  23.1294203   8.6452454
  85.0618172  22.5193334  10.0122535 102.5580120  26.4166164  55.1849842
 102.2604752  26.2406015  54.2923927 102.1697235  27.2636032  55.4042482
  85.5932903  31.5446925  55.6188202  85.7534313  30.9193993  54.9119997
  84.8133087  32.0251942  55.3413820  95.4134274  32.9615474  75.7252073
  94.5645332  33.3777094  75.5754900  95.4155159  32.7508187  76.6589212
  87.6471519  43.8248634  34.8219562  87.4389458  43.6141825  33.9117384
  88.5840034  44.0210104  34.8141265  85.2197075  32.4141836  72.4310446
  84.5263767  32.2073340  73.0577278  85.7833385  33.0344129  72.8935051
  59.9966860   5.7790458  64.7640896  59.8544979   5.1806891  65.4975605
  60.5135679   5.2719587  64.1380453  73.3887291  22.9844499  22.2257710
  72.6598454  22.9475427  22.8451276  73.5238695  23.9192319  22.0703554
  84.5046329  70.7803631  65.7235003  85.4485798  70.6546831  65.8204985
  84.2519665  70.1712847  65.0296593 112.2568893  41.5167713  46.7706156
 111.5048981  41.5970850  47.3573732 111.8717575  41.4142036  45.9003353
  88.5896015  31.9610453  64.0925407  87.9325294  31.2652755  64.0726948
  88.2667923  32.6131463  63.4706163 108.4417725  10.2201200  49.1479778
 108.9488220   9.6560919  48.5640192 108.1591702  10.9470594  48.5930681
  89.8054981  70.4762220  39.2810321  89.4929981  71.3596725  39.0858650
  90.3756714  70.2556849  38.5444880  80.0155354  11.2890840  21.9480658
  79.7707510  11.9180560  21.2693119  79.4007111  10.5640924  21.8357396
  74.3564463  80.0962734  37.3100638  73.8140297  80.4631519  38.0082154
  75.2489233  80.1370144  37.6536632 111.0816383  41.0678434   4.2415556
 110.3085709  41.0339546   4.8049784 111.4329338  40.1776981   4.2631158
  99.1474152  37.1129918  56.1414003  99.0410328  36.8877029  55.2171946
  98.4307575  37.7207422  56.3238096 105.0668907  45.8271790  74.7898579
 105.1629353  45.2643585  75.5581284 105.5644703  45.3826141  74.1035604
  78.7050915  42.5620413  53.8064289  78.6821938  43.5186434  53.8314009
  77.7999020  42.2964764  53.9687061  78.1633949  38.8055325  28.8898373
  78.1053734  38.0183005  28.3484197  77.4551773  39.3664622  28.5735750
 109.1642189  29.3533921  68.5519314 109.2945957  30.1289225  68.0062342
 110.0497055  29.0553808  68.7600946  77.4234962  45.8097982  35.6776261
  77.8764248  45.9057522  36.5154099  76.5083694  45.6612110  35.9157348
  91.4757061  47.7251625  82.7348709  91.4907742  46.9468021  82.1779442
  91.9575787  47.4668741  83.5205555  91.7215824  76.9451475  58.4690809
  91.7483711  77.8954268  58.3573532  91.8857384  76.5962553  57.5929785
 102.2279644  47.5583267  48.5411978 101.6946793  48.1671858  48.0302000
 103.0917931  47.5935650  48.1303453  91.2632561  64.9955702  24.7388768
  92.0877266  65.1083803  25.2119112  91.0131741  64.0869999  24.9067736
  73.1814766  42.0314980  58.4668303  74.0316200  41.7187262  58.1575346
  72.5431728  41.5494537  57.9410601 106.2023163  20.0768518  79.4602060
 106.7353153  19.3106711  79.2478037 105.9348297  19.9381316  80.3687382
  17.8355751  63.1615257  34.4812799  18.2657967  63.4422874  33.6736226
  18.5459099  62.8213263  35.0252628 110.1283455  27.9458380  59.4404936
 110.5168533  27.8798938  60.3128147 110.5250072  28.7296176  59.0602636
 100.0046253  27.9158378  88.1786537  99.5835495  28.4599209  88.8441563
 100.1414394  27.0724726  88.6102104   1.7421303  22.5286889  81.0591984
   0.8774815  22.4463272  81.4614773   2.1284733  23.2982373  81.4772415
  95.0380993  42.3990250  63.1421518  95.5101967  42.4418354  63.9737320
  94.1181183  42.5076056  63.3831549  81.2490559  13.7461531  46.2559700
  81.8639565  13.8619781  46.9803381  81.5866184  14.3128312  45.5623102
  67.5874233  42.0009804  57.5700474  68.2625580  42.6488781  57.7716875
  67.3737431  41.6066170  58.4156513  74.0464163  60.0902843  58.7566710
  73.8425875  59.9513149  57.8318071  73.2990456  59.7185087  59.2251253
  68.7548304  75.3389502  21.5539885  68.7930441  75.5063057  20.6123066
  69.6369171  75.5371094  21.8684602  45.2941679  95.9576611   5.4467219
  44.4435476  95.8474879   5.0218219  45.0838732  96.1074548   6.3684482
 110.6224442  57.3180199  46.6671371 109.9652100  57.7321863  46.1079073
 110.6139278  57.8369379  47.4714231  82.0359516  62.6558828  67.0921946
  81.5631008  63.4853935  67.1596527  81.6968918  62.1274662  67.8147173
 107.8998756  44.8262739  50.0048685 108.8558578  44.8515320  49.9636698
 107.6849842  43.8935280  50.0113058 108.4719181  77.0895481  55.6468296
 109.3109131  77.2800684  55.2272701 108.6331272  76.2942266  56.1544800
  89.8432255  33.5982227  54.6382189  89.6118736  34.4654584  54.9707985
  89.3335629  32.9918265  55.1755762  85.1625443  58.5881233  88.6862183
  85.1389790  58.3392191  89.6101856  84.3755817  59.1184044  88.5608673
  91.0354519  46.0980892  41.0110331  90.8369446  46.7423868  40.3315449
  90.9504795  45.2521944  40.5711746  99.0343857  38.7786508  64.1761208
  99.0229034  39.5336699  64.7643757  99.2047787  39.1515136  63.3111525
   4.0200386  34.0829062  23.0609226   3.1397686  33.7073326  23.0439258
   4.1435871  34.3627143  23.9679360 111.0794258  29.0584087  55.1325369
 110.2852440  28.8976836  54.6229458 110.7658100  29.2050147  56.0249424
  85.3281116  12.4262917  58.5486174  86.1273479  12.3040938  59.0609932
  85.6379795  12.6578641  57.6730633  98.9143467  13.9805925  25.4803014
  99.0708733  14.5770407  26.2124085  99.7370720  13.5013914  25.3816581
  73.8048315  69.9955940  40.1547480  73.6241627  69.1394901  40.5429220
  74.4014072  70.4177666  40.7728910  10.1166115  42.6137209  68.5584116
  10.3345547  43.5259914  68.7494373   9.5209751  42.6612949  67.8106308
  98.0610561  70.5732822  37.5953817  98.6361694  71.3380527  37.5709248
  98.5512638  69.9208546  38.0956459 101.8849659  47.6391077  67.5643396
 101.9503212  48.5908747  67.4862289 100.9722233  47.4806786  67.8052521
  74.5703506  44.7773075  36.1404991  74.3087196  43.8596344  36.0653305
  73.7464523  45.2639866  36.1166668  94.3054771  11.5824926  68.6956930
  94.3375015  11.4619446  69.6447325  93.3816242  11.7461181  68.5060787
  70.1467991  44.8742056  41.8801785  70.2721453  45.3322458  41.0490799
  70.9255886  44.3251228  41.9708729  85.2655125  41.2759781  38.2100344
  85.0793552  42.0104170  38.7949944  86.0628414  40.8830643  38.5651755
 112.8437805  51.5828991  39.9418592 112.4633217  51.3066912  39.1080785
 112.6060772  52.5068855  40.0192022 103.8054371  37.4297619  67.3847914
 104.7518253  37.3136783  67.3005438 103.5826683  38.0753517  66.7141008
  83.4428120  20.8286452   3.5068515  83.7175655  21.5907097   4.0167594
  84.0765572  20.7781196   2.7912769 109.5408821  48.1748152  74.8236895
 109.9729824  48.9888334  75.0823259 108.9428997  48.4334087  74.1224241
   4.8475800  40.1813745  37.9760027   4.0277348  40.6038618  37.7199030
   5.4866944  40.8935452  38.0000806 115.0557041  45.1776552  75.6164837
 115.4193497  46.0088158  75.9217119 115.5206013  44.5121717  76.1236715
  89.0884590  19.1812730  64.5274401  89.3092060  19.2583787  65.4556417
  89.8372650  18.7280536  64.1400099  93.1751156  56.8495083  63.2437515
  93.4995461  57.6158381  62.7707720  92.9065037  56.2398529  62.5564384
 110.0909805  38.0056834  74.7565556 109.2576027  38.3520842  74.4376135
 110.3048897  37.2983241  74.1481876 101.7296124  15.7703722  53.0894852
 101.0371876  15.2771747  53.5294151 102.5394726  15.4582345  53.4931135
 101.0144424  63.0395508  63.1358814 100.5330372  63.6954546  63.6401367
 101.9056702  63.0772543  63.4830427  79.3073654  69.4248390  37.0840883
  79.5271158  68.7296009  37.7042365  80.1193428  69.5811701  36.6019297
  96.5275097  37.6750135  60.2834320  97.3252296  37.1516299  60.3605318
  96.6898155  38.4414411  60.8334160  99.3711662  30.2846885  41.3934040
  99.9780750  30.1040149  40.6755972  99.6280956  29.6735525  42.0838642
  97.7769089  64.3436956  41.8936872  98.4954548  64.9034357  41.5994024
  97.2269249  64.2324257  41.1182070  73.3894062  61.7217875  52.9914045
  73.5785532  60.9751511  52.4230814  74.0014839  62.4004889  52.7068663
 102.4619770  55.2933216  42.7167511 102.6303005  55.1325464  43.6452150
 102.6937199  56.2129450  42.5870562  99.3705177  70.7955170  57.6101685
  99.3161488  70.7042360  56.6588831  99.2156982  71.7263746  57.7707005
  18.0720495 106.5830617   6.8316955  18.5036825 105.7317357   6.7598456
  18.7576174 107.2175794   6.6228694 102.5830078  67.4655247  47.5275230
 102.6253128  68.3233213  47.9501677 102.3389816  66.8637896  48.2308006
  15.8353672  67.6080847  46.8418789  15.9254799  67.8255987  45.9140873
  16.6410981  67.1382904  47.0571041  86.4597321  58.2219553  49.0424490
  85.5404472  58.0190086  49.2155552  86.5851784  57.9970217  48.1205511
 112.1200371  36.6368032  29.7888112 113.0061150  36.7961001  30.1139665
 111.8688965  35.7993126  30.1783895   1.5863476  39.7632742  67.0762920
   1.2127362  40.4672146  67.6064968   1.4089165  38.9666820  67.5764799
  89.0160465  46.2142038  43.9412832  89.0614605  45.2737141  43.7690973
  88.0812645  46.4181185  43.9124107   2.5048695  67.3540926  51.4640856
   1.9941864  66.8562222  52.1024847   2.2641526  66.9766283  50.6180286
  88.7078094  49.6486998  65.7765484  88.0839825  50.2568150  65.3799820
  89.0342617  50.1102829  66.5489483  84.9761295  79.7673082  46.2948370
  84.8424339  80.6551552  45.9630585  84.4722652  79.2111731  45.7006454
  63.6096382  16.8685055  60.6868649  63.0201292  16.8123460  59.9348259
  63.1485462  16.4074028  61.3875866 112.4686050  66.7108345  90.5757046
 113.2860565  66.9952011  90.1668835 112.2179222  65.9256124  90.0890541
  38.6724352  96.6834216  10.4160899  37.7996992  96.4059930  10.6946582
  39.1004061  95.8763843  10.1301402   1.5142022  47.9351664  66.2366962
   1.3726769  48.8620090  66.0439205   1.0296975  47.4717379  65.5535316
 107.7403831  11.6672027  23.2014966 107.9286766  11.5111494  22.2760630
 107.0040894  12.2788155  23.1962919  92.0489693  23.5038209  48.0084515
  91.8597507  23.9411211  48.8386297  91.2429523  23.5954189  47.5003386
 115.2784061  58.5723019  75.2271795 115.4291153  57.8369856  75.8211660
 114.3342876  58.7243748  75.2690172  52.6204098  17.9561239   4.8353118
  52.9029453  18.4063631   4.0392703  51.8070019  17.5172239   4.5863742
  84.4958305   6.6701728  69.8522520  84.9083424   7.2239745  70.5151033
  83.5832787   6.6003621  70.1326132   7.1962986  19.1668546  48.2659769
   7.2850094  18.3134520  47.8416348   7.5326882  19.0300977  49.1516209
 106.3593102  80.9117889  69.7922802 106.5357494  81.8346977  69.6096945
 105.7412434  80.9261227  70.5230570  82.1662712  59.0830946  34.4094849
  82.9056931  59.6719837  34.2588353  82.0411491  58.6366558  33.5720658
  95.5379772  69.8519278  60.7349396  95.7813263  70.6998873  60.3634834
  94.6240425  69.9592781  60.9984589 100.3970337  77.5721931  42.9034567
 101.1095619  76.9402981  42.9996252 100.7911491  78.3081532  42.4352026
  73.7365198  56.1441135  69.1459322  74.5078373  55.5906582  69.2683363
  73.6798525  56.6575956  69.9517584  52.9726362  21.0057974  42.8627920
  53.0447197  20.3647113  43.5699320  53.8755274  21.1559248  42.5826502
  85.9696102  63.2264328  54.7061586  86.3563633  64.0853405  54.5360994
  85.1414585  63.4194326  55.1456499 108.1931877  43.8001060  53.7290573
 107.8381348  42.9112005  53.7323999 107.4213982  44.3662882  53.7265015
  83.7109089  40.1128054  26.8007541  84.0884399  39.2946219  27.1236682
  82.9556751  40.2683640  27.3678994  95.9359074  90.1487923  47.4703741
  95.7756805  89.3193150  47.0203495  95.2419472  90.7290363  47.1573830
  76.3566017  65.7317924  47.9513597  76.5781593  65.3990316  48.8210821
  76.4660645  66.6800356  48.0226803 104.3466473  49.5959234  79.0589762
 103.9477921  49.0829468  78.3561277 104.9469662  48.9868879  79.4890022
 106.2000656  46.4902687  50.8829546 106.6861629  47.1063805  51.4309883
 106.8703079  45.9090424  50.5235481 116.3022995   6.0598367  28.8189030
 115.8167648   6.0224295  27.9948378 116.4227676   5.1434278  29.0677285
  86.2326050  58.1438208  60.2391481  85.4115963  57.8911924  59.8168230
  86.9136333  57.7515936  59.6927118  99.0156269  66.4596939  69.0522909
  98.1068897  66.7067242  69.2237377  99.3902683  66.3076448  69.9199057
 100.5840874  34.5095921  52.7331352 100.5109406  35.1211691  52.0004320
 100.7368755  33.6592674  52.3210287  97.9091263  41.6096449  48.0629921
  97.8524971  41.5435457  49.0162277  98.8481426  41.6452503  47.8807402
  70.0437260  54.0215111  54.7860718  70.9249449  54.2096519  54.4631433
  69.4652224  54.5158291  54.2053652  73.3969164  57.9867268  34.4404531
  72.7795458  57.5997972  35.0612378  74.2301321  58.0051374  34.9112487
  73.2619333  60.3709412  55.7001448  73.3687878  61.1245346  55.1197100
  72.3629093  60.0785971  55.5500555  79.6952963  66.2337875  44.9920082
  79.4762087  65.3169775  45.1584291  80.5577564  66.3501024  45.3905916
  86.4452267  69.7109413  42.8948116  85.7012081  70.2771091  43.1000566
  87.2091866  70.1979923  43.2036400 102.8194618  34.2205143  58.9528704
 102.2032547  34.2742372  58.2223654 102.7363873  33.3214402  59.2706728
  82.0400906  70.8806372  62.0317698  81.2569141  70.4380369  61.7046976
  82.5759220  71.0266113  61.2521458  87.5062370  68.7081480  45.8976936
  86.8297482  68.2072687  46.3534498  87.0262527  69.4001293  45.4427099
  88.9706230  73.2339382  61.2949896  88.8330746  74.1146278  60.9461403
  88.6124039  72.6521301  60.6246090  91.0225677  47.3391581  29.6630001
  90.4790401  48.0857468  29.4111800  91.9149208  47.6081371  29.4448352
   7.8466187  50.1738977  55.1945400   8.0232964  51.0704136  54.9094534
   8.7019024  49.8327398  55.4559422  91.2259674  54.6613264  58.2711935
  91.3612461  53.7138176  58.2836103  90.4277802  54.7825861  57.7569723
   1.4832650  63.3356428  36.7913055   1.6785679  62.4170923  36.9766617
   0.5712757  63.3326721  36.5006328 106.0250568  45.9248018  62.6270771
 105.2959442  46.1297655  63.2124138 105.6252575  45.4334641  61.9094563
  93.9214611  18.4019947  33.1822848  94.0150166  18.3629334  34.1341019
  94.8203659  18.4146547  32.8535891  76.2161541  52.7214193  48.3762980
  75.5621052  52.7418900  49.0748930  76.9421291  53.2469893  48.7124062
 106.9687462  32.5029659  59.3243170 107.6804733  32.6369643  58.6984396
 106.2863827  32.0601249  58.8198376  85.8654881  52.2033024  56.5673447
  85.5859280  53.1168652  56.5084362  85.0492573  51.7057419  56.6165590
  83.2543182  16.7065072  58.2630110  82.3547077  16.4644718  58.0431557
  83.7392521  16.5939200  57.4454594  84.2825413  12.2326517  47.8081131
  83.9527416  11.5303481  48.3686733  84.8137951  12.7749598  48.3911276
 102.4477577  31.7266250  56.9369698 101.8373871  31.8746161  57.6593161
 101.8892384  31.6496491  56.1634254  78.4978580  21.1439371  35.4598808
  78.0213356  21.2178278  34.6330190  78.8860226  22.0090580  35.5907536
  90.1678467  60.5279827  89.9966240  90.4374886  60.0691557  89.2010021
  90.4843903  61.4232063  89.8757839   5.2968655  65.3621578  60.5883074
   5.3783093  64.4503880  60.3085184   4.3790017  65.5809736  60.4274654
 106.9230080  39.3427968  53.9205837 106.9529533  39.7157431  54.8016357
 106.2975502  38.6212587  53.9870596  39.8512446  19.6860833  87.3254770
  40.6479489  19.1890569  87.1398479  39.4310318  19.2070098  88.0397206
 103.1740665  61.0593653  34.8411918 102.8532505  60.6376505  35.6383538
 104.1244793  61.0880661  34.9512649   6.2550602  43.7070131  41.5119267
   6.1742363  44.5827293  41.8898344   7.0759354  43.3672237  41.8682003
  61.8822943 109.3679333  77.2954226  62.1555697 110.2482900  77.0374966
  61.2028586 109.1332372  76.6633463 115.9831524  25.5870104  40.9856701
 116.5613174  26.0645533  40.3907681 116.1839485  24.6648383  40.8259439
 108.3749485   9.6692342  13.1553304 109.1545582   9.4235575  12.6572597
 108.6943626  10.2917528  13.8085353 115.9054279  44.5715332  59.9022913
 115.0561619  44.4114828  59.4907570 116.3524818  45.1702023  59.3039846
  12.2042714  21.6714430  20.1772690  12.3392067  21.5588689  19.2363369
  12.6498661  20.9231043  20.5743504  99.5211887  32.5559163  69.0795326
 100.2755165  32.4226856  68.5055447  99.6884060  31.9868255  69.8308039
  85.2140331  30.6963420  58.6084270  85.8439827  31.3856697  58.3981371
  85.2715302  30.6012511  59.5591593  74.0679359  33.8002682  44.6063137
  74.6469736  33.0423522  44.5256233  73.9388180  34.0999198  43.7064409
 102.5991821  50.5445337  70.7690859 103.2086468  51.2823057  70.7472992
 103.1612587  49.7703886  70.8006239  17.9493771  70.6077814  49.6061373
  17.1898995  70.7809258  49.0498543  18.6751709  71.0488319  49.1646338
  90.7816505  27.5736284  54.9078131  91.4954853  27.3477697  55.5041885
  91.0863972  28.3610034  54.4568110  87.6123905  21.6235781  37.0653534
  88.3698940  21.6099262  36.4803553  87.9063416  22.1244979  37.8262091
  98.0187321  29.7938538  14.2469990  98.0898190  30.6939673  14.5647597
  97.6135731  29.3157315  14.9705136 105.9458256  45.7636976  43.8066864
 105.6607246  44.8583364  43.6831141 105.4370785  46.2641954  43.1687880
 108.7186050  32.5952911  37.5115561 109.5719242  32.1636033  37.4701762
 108.0957127  31.9211340  37.2399664   6.2026940  40.9780025  56.1191463
   5.4637299  41.1631870  55.5396032   6.2906323  40.0250816  56.0981178
 103.1371593  40.8044100  76.3260508 103.2328415  40.0219631  75.7830477
 103.8986683  40.7882214  76.9057703  66.4915085  88.3153725  31.2746406
  66.0038424  87.4956989  31.3555884  66.3188934  88.6094379  30.3802347
 101.0452080  44.1844654  66.9263363 100.1784706  44.0975571  66.5295410
 101.1485481  43.3912945  67.4521065  86.5135670  53.6182308  75.7974625
  86.4139843  54.4832277  75.3998518  85.9779739  53.0412483  75.2529812
 107.3435593  20.9398532  69.0167809 106.9831276  20.0735998  68.8272381
 107.7861595  20.8360410  69.8591375  82.3343372  42.0784712  44.1925907
  82.4447441  42.2811794  45.1215410  83.1032562  41.5541315  43.9688301
 114.8104490   0.1310683  65.1222897 114.1344131   0.8086730  65.1146364
 114.4198908  -0.6022977  64.6470308  85.4770851  21.1870551  93.7959957
  85.6224346  20.3168988  94.1673946  84.5670605  21.1719942  93.4995556
   7.7540360  50.8478022  68.4061575   8.3954201  51.5520144  68.5007381
   7.9527245  50.4554653  67.5559664  88.8924789 105.1915359  44.8923874
  88.9230061 104.4791603  45.5309963  88.5023594 104.7972870  44.1122532
  73.5672283  62.9538870  46.7287827  72.8460932  62.7988243  46.1187410
  74.0969515  63.6301374  46.3065100 101.0611916  78.9175844  48.0867243
 100.6784630  78.0858946  47.8073597 100.5792999  79.5809221  47.5927591
  14.0203629 101.9071484  60.6515741  13.7262116 102.6518917  61.1760330
  13.2953511 101.7362976  60.0504065 103.6968803  68.4491634  54.4572878
 103.1612492  67.6607990  54.3689108 103.0805969  69.1278124  54.7327185
  83.2073212  95.7905388  52.6552010  83.4575272  96.7084217  52.7606773
  82.3434067  95.8234692  52.2443342  90.3260517  58.1435966  88.3150196
  89.4226074  57.8274012  88.3083248  90.7711601  57.6108027  87.6560497
  97.1996498  41.5853834  58.9335585  97.7652454  42.1918440  59.4116163
  96.4843941  41.3957691  59.5407581  25.7529889  31.9346309  54.1462755
  25.4043351  32.1672654  53.2857227  26.5651760  31.4649177  53.9566517
  83.7151814  58.9698744  69.8149633  83.5717106  59.4097471  70.6529140
  84.6592426  58.8147736  69.7844315 109.4198132 105.5685616  35.1258397
 109.9029827 105.3553677  34.3275094 108.5244370 105.7295132  34.8281288
   9.6676789  57.9451799  46.0207510  10.5666314  58.1964350  45.8086443
   9.7132359  57.0019817  46.1774063  74.7340965  69.8318005  61.2408495
  74.2246437  70.0201702  60.4526806  75.5281496  70.3574896  61.1441088
  97.5205421  91.1488819  49.4262314  96.9504833  90.7638836  48.7606144
  98.4073830  90.9907818  49.1025877 115.2951622  38.7759924  68.2156420
 115.1319885  38.0756903  68.8474512 114.5405006  39.3582654  68.3032656
  17.7198372  63.4835148  49.7339249  17.8935585  62.6520157  50.1751280
  16.9578896  63.8416862  50.1893330 114.5801735  60.3462124  65.0094891
 114.0418530  60.1084375  65.7644081 114.2806244  61.2227535  64.7682810
  94.7064686  58.5796785  68.6773920  95.1122952  59.0553570  69.4021463
  94.4557953  59.2614079  68.0539846   3.0454502  37.8651333  64.9020052
   2.2554074  38.3672214  65.1019478   2.8049431  36.9569993  65.0855350
  76.0320473  98.9018345  91.7022038  75.3249598  99.2548466  91.1621571
  76.4833450  98.2811451  91.1301041 103.8351631  62.1834946  49.2943335
 102.8960991  62.1206665  49.1198683 103.8963699  62.2781420  50.2448750
 103.9395332  63.8133001  93.8689899 103.0086231  63.9404058  94.0519333
 104.2549515  64.6813965  93.6176682 108.6371040  53.7124538  85.5907631
 108.2181549  52.9987097  85.1098442 108.3491898  53.5928679  86.4957714
 109.8699951  70.9711456  44.8683262 110.4724884  71.2589788  44.1824722
 109.0314865  71.3680887  44.6325922 100.2236271  95.2471352  63.0758429
 101.1078644  95.0642586  63.3935022  99.6475029  94.8601627  63.7350607
  87.3205566  60.9197569  73.0916739  88.1305218  61.3155413  73.4134531
  87.5035667  59.9803829  73.0739546  21.0690651  45.1749182  89.9132919
  21.4838372  45.6880188  89.2198086  21.6179524  45.3247547  90.6830406
  77.5029325  73.2379532  74.2288065  78.3895731  73.3071709  74.5827913
  76.9332552  73.3034277  74.9952364  90.5099678  67.1218634  86.2681103
  89.6323204  67.4672461  86.1047840  90.5817032  67.0915318  87.2221375
  57.6472652  46.4891916   6.4764422  58.2561481  47.1309000   6.8421096
  58.1918323  45.7266908   6.2808341   5.6380902  60.3413820  58.6949253
   5.7609330  61.1430979  59.2032480   4.6930561  60.1900864  58.7109089
 100.3915310  82.2574997  55.1352787  99.6664715  81.6959476  54.8610830
 101.1156368  81.6524220  55.2958536  87.5658035  49.9131918  53.8597059
  87.1760941  49.2323208  54.4081306  86.8325710  50.2604151  53.3517218
 108.8341618  31.5175033  21.5777326 108.1656837  30.9606791  21.9768739
 108.6990738  32.3771811  21.9763970  87.5938034  94.3340206  39.0906644
  87.7480698  93.4252071  39.3485379  86.7155457  94.3292046  38.7100458
  93.0807018  35.2175045  45.7899094  93.4781933  34.4746852  45.3355360
  92.4769974  35.5945683  45.1499176   9.2344259  89.9080806   7.8382606
   8.9835810  90.6509309   7.2891826  10.0928854  89.6444445   7.5069255
 112.0747757  62.5129318  32.5994253 111.5919590  62.6349974  31.7819762
 112.6390743  63.2835960  32.6616740 100.7886028  66.1657190  67.1369123
 100.0969982  66.3094807  67.7828503 100.3218842  66.0327721  66.3118505
  10.6924687  31.8772125  59.8821592  11.4997826  31.6421604  59.4247532
  10.2482376  32.4824119  59.2883348  90.5409622  55.8556604  39.6293712
  90.0011349  55.9066343  40.4181814  90.0472260  56.3423681  38.9693880
   9.2564736  69.3829107  49.0067291   9.7189007  70.1340628  48.6350346
   8.5577546  69.7691536  49.5347881  90.5284882  76.6473484  42.1776533
  90.5605507  75.7643604  41.8095016  90.3026009  77.2081852  41.4355803
 106.3668060  26.9218206  86.1348152 105.7743454  26.7919993  85.3942966
 107.1463013  26.4138913  85.9098148  79.3009949  50.5545378  33.9303398
  78.9786005  49.8473644  34.4890857  79.6638060  51.1959791  34.5412040
  27.1850275   9.0993167  65.3754568  27.5076078   9.7009898  64.7045088
  27.9629492   8.6208773  65.6621170 105.3322411  53.8774920  84.3714714
 105.8083820  53.1825924  84.8260403 104.5499420  53.4463358  84.0274429
   2.9087220  58.9630508  53.7524557   3.7454472  58.9823866  54.2169428
   2.5927887  58.0665684  53.8653278   2.0299683  52.0343494  22.0708776
   1.8886433  52.7956820  22.6335788   2.8840313  52.1898079  21.6676044
  85.7752037  95.5171299  65.9775400  85.2709198  95.5622959  66.7898798
  85.4186440  94.7580242  65.5161762 116.1501967 105.0602423  92.1086216
 115.4611288 104.6122056  92.5992107 115.6804644 105.6615403  91.5306759
  98.4613895  71.3241673  51.4402390  97.9065609  71.5327406  52.1918297
  99.3545532  71.4577818  51.7574739 107.2410297  57.5108433  92.6666641
 107.1710587  58.0332613  93.4656715 107.6206493  58.1083059  92.0223331
  77.6491690  60.7392120  40.4376078  77.1227217  60.0626373  40.8634377
  77.0109606  61.3880968  40.1411819  98.2356262  18.2980287  54.3002892
  98.7504196  17.9760265  53.5603333  97.6953888  17.5514579  54.5591545
  83.3541489  66.2747335  24.6824455  82.7162743  66.9809866  24.7852159
  83.5360909  66.2511539  23.7429905 109.2187309  63.2299280  44.8352242
 110.0838470  63.3519793  45.2262449 108.6141109  63.2619715  45.5766058
  65.7804655  86.7614989   6.6934985  64.8394369  86.7150621   6.8624515
  66.1766218  86.8308978   7.5621051 102.3174286  69.3682623  67.8063822
 101.4414024  69.7432613  67.7159500 102.9089546  70.1134825  67.7016020
  14.5688496  42.7011156  40.4493761  15.3370533  42.7303267  39.8790669
  14.0538750  41.9645500  40.1199818 106.6903210  88.2865715  33.7468767
 107.0140171  87.6191425  33.1419086 107.0117283  88.0085373  34.6045613
  96.3729858  56.9077349  56.2810564  97.2476196  56.5861702  56.4998198
  95.8034325  56.5258837  56.9489098  76.1050224  50.1078463  53.3930540
  75.3101492  49.8304033  52.9376078  76.0218668  51.0589170  53.4622049
  16.3606892  87.8465557  39.8161054  16.8153725  88.3392525  39.1329193
  15.7833538  88.4880543  40.2300882  25.3124199  65.7825613  66.5421772
  25.2616177  65.3810740  65.6747341  25.9053669  65.2148676  67.0344973
  18.5945473  44.9431133  31.1356115  19.5249138  45.0606918  31.3274980
  18.1445465  45.4454851  31.8148398 111.2156296  24.2233229  40.2420998
 110.6608105  24.3068242  41.0176229 112.0392990  23.8662291  40.5741835
   9.0233956  96.0038853  33.8831639   9.5021878  95.2755260  34.2787385
   9.6175061  96.7505169  33.9592576 106.6175461  67.8489971  46.8779802
 107.5576305  68.0271339  46.8508482 106.3533688  68.0913448  47.7655125
  89.1275024  55.7484198  73.1611156  89.0816021  56.6193104  72.7665567
  89.3592930  55.9115982  74.0753794 107.7043629  42.6214743  58.0087423
 108.3580303  42.0543385  58.4177780 107.2681713  42.0604610  57.3674679
   7.3633919  36.7510271  54.8084354   7.9572354  36.0532928  54.5314074
   7.3169098  37.3392868  54.0547657  12.0694611 106.8068022  92.9266605
  12.4850152 106.9799942  92.0819384  11.3059113 106.2707228  92.7125375
   3.9640198  56.9783449  43.1520796   3.0838929  57.2098923  43.4487152
   4.1598282  57.6141596  42.4638700  15.9285794  22.5228047  46.3696909
  16.5389119  22.1622539  47.0129108  16.0727177  21.9979525  45.5822992
  81.9215679  35.2996802  20.5303621  81.1191273  35.7030582  20.8614206
  81.6870594  34.9797726  19.6592164 109.1236210  60.2800655  50.9485340
 108.5088634  60.9243727  51.2995005 109.9862289  60.6109095  51.1988974
  15.3935885   2.5267363  17.8780317  15.6372141   1.6363478  18.1311619
  15.9749960   3.0888797  18.3900762 105.2978039  46.4568186  34.0475225
 105.5848885  46.4717388  33.1345105 106.0611629  46.7526913  34.5434880
   3.7093506  76.2423801  68.3229446   3.4834442  76.8728065  69.0068769
   2.9801617  76.2883139  67.7045488  37.5880373  35.3323274   6.1919326
  36.6437805  35.3945738   6.0479468  37.6878536  34.6173101   6.8204516
  16.6263352  72.1559191  51.5677452  16.7575322  71.2798166  51.2051535
  16.1760960  72.6374149  50.8737135  90.3299332  71.2715197  46.1203861
  90.7541466  70.8350420  45.3816271  90.9903622  71.2659597  46.8132353
   7.3478661  73.7299824  51.0352325   8.0163823  73.7781715  51.7185974
   6.7436562  73.0523968  51.3386154  75.1891661  95.8844185  54.5658064
  74.7018528  96.6455364  54.2504311  75.1499605  95.2584648  53.8427019
 108.8064861  59.5070171  36.8710566 108.2851601  60.1363373  37.3694682
 109.5349503  60.0215149  36.5233994  94.6030045  60.4243946  31.9340134
  93.8240147  60.6198978  31.4132595  95.3343582  60.7163191  31.3898349
 113.7114239  39.1733980  46.6859579 112.8773594  38.7172294  46.5742111
 113.4669018  40.0871706  46.8324518 108.3365631  44.4822550  45.6431484
 108.6667919  44.0449095  44.8583508 107.5670338  44.9654484  45.3421926
  10.9367237  53.8257742  37.5269580  11.2456665  53.9460993  38.4249067
  11.6046963  53.2775211  37.1152949  74.5297861  16.1368430  57.1923447
  74.5960045  16.9036603  56.6232777  75.3968287  16.0582435  57.5901985
 114.0201664  70.5538368  60.0679159 114.6120453  71.2921906  59.9238777
 113.8073063  70.5958366  61.0002041  87.5637150  74.4406652  47.2191143
  88.0727386  75.2497339  47.1687078  87.5820065  74.2035580  48.1463003
  86.8987656  84.2348194  64.2499447  86.8688679  84.3435001  63.2994032
  86.0024261  84.4060230  64.5388985  93.4399986  61.8744755  47.0700884
  93.4603214  60.9454632  46.8403912  92.5537777  62.0199919  47.4012375
   8.8262997  48.1823778  51.6376400   9.6366558  48.4789085  52.0519209
   8.1481419  48.3473158  52.2927141 110.4480171  58.8639259  84.5298386
 110.2059460  59.6890926  84.1094494 109.6246338  58.3810854  84.6015835
  13.2499276  44.9646902  41.5839243  13.7818108  45.5685186  41.0655308
  13.6016426  44.0985537  41.3781548  77.1576118  57.3368359  29.0562582
  77.9797745  57.3090935  29.5456600  76.4882660  57.1019840  29.6989489
 111.1650337  12.6607848  28.6399770 110.4466022  12.0539237  28.4616303
 111.9396080  12.2266341  28.2825065  94.5395756  92.1060467  61.9711018
  93.8070297  92.2748280  61.3785505  95.2279472  91.7540550  61.4067554
 103.6579323  61.2029791  22.2626114 103.6940861  60.9754610  21.3335466
 104.5713329  61.3479948  22.5094056  77.6821756  65.2622271  65.4640007
  77.3003769  64.4036865  65.2813101  77.0965719  65.6514835  66.1134434
  11.7986546  55.4250336  66.6646194  11.1599312  55.9204531  67.1772766
  11.7161999  55.7742405  65.7772160  16.6856073  12.6167823  45.5911684
  17.3840689  13.1390048  45.9857178  16.9748091  11.7105437  45.6976318
 109.9494743  81.2471962  62.7533913 109.2751789  81.7815113  63.1729937
 110.3271389  81.8193340  62.0853662 105.3024101  74.0287971  57.0235443
 105.9623432  74.7169495  57.1082306 104.9389553  74.1521072  56.1466599
  73.8873100  74.2963028  70.5208206  73.3531475  73.5056305  70.4450655
  73.3512974  74.9859047  70.1291943  83.0060196  63.5957575  50.3579378
  83.4354019  64.4487715  50.4230213  82.0720673  63.7913370  50.4336309
 101.6884136  35.0324273  38.7562180 101.1105251  34.6382403  39.4095898
 101.4101028  35.9471583  38.7110376  93.0371380  64.4674444  75.1170063
  93.0806351  63.5260487  74.9493313  92.7284336  64.8435307  74.2926884
  14.0293179  45.6894064  86.7321396  13.9721737  46.1270285  85.8827591
  14.9678955  45.5704355  86.8776131  15.0846157  28.7582302  71.3127136
  15.4431305  27.8709221  71.2930536  15.5678234  29.2269230  70.6322241
  13.4171353  49.5663166  47.7660608  14.3288670  49.4200563  47.5138950
  12.9865895  48.7266111  47.6055765 100.2137280  55.6009865  14.5974958
 100.5968094  55.5008698  15.4689646  99.4088078  56.0974598  14.7452855
  79.9312067  69.1203403  49.0931940  79.9417782  69.3612099  50.0195360
  79.1210556  68.6222839  48.9844561  17.2992573  33.1628084  57.0099831
  16.8918858  32.6613092  56.3037395  17.6545868  33.9395976  56.5780449
  23.9543782  41.3932276  43.5309601  23.0618630  41.6511965  43.3005238
  24.3816719  41.2314987  42.6898384  99.3567467  54.7958803  57.1092606
  99.2159748  54.9127340  58.0488157  99.7394562  53.9219904  57.0312786
 114.9982548  30.0233769  36.7208767 114.2344952  29.4472170  36.6901445
 115.2555752  30.0310111  37.6428103 104.4615650  75.2563858  50.0697660
 103.8036251  75.4770517  50.7290506 104.0357780  74.6017742  49.5162153
  87.4219036  83.0612564  38.4235668  87.3473358  82.1089077  38.4844732
  88.1548119  83.2063293  37.8252053   0.1395188  47.6261854  62.5993204
   1.0430012  47.5359011  62.2963381   0.0238572  48.5672474  62.7306747
  94.4309807  89.0377045  78.5025454  94.6478081  89.2232800  79.4162035
  93.7205029  89.6452618  78.2968187  97.0579910  79.2292929  74.4697094
  96.7246628  78.3874750  74.7802973  97.2924995  79.7031689  75.2676296
 114.4873524  41.5873575  88.7435341 113.6080456  41.6196918  89.1203594
 115.0307369  41.2102175  89.4354439 102.0443439  42.1966457  93.0261803
 101.6117764  41.5753746  93.6119556 101.4250755  42.9222250  92.9470348
   1.5789853  62.0975256  70.1502085   2.2795544  62.0516205  70.8008480
   1.3523159  63.0265188  70.1074553  97.8157139  51.2619066  72.9566240
  98.6941719  50.9604692  72.7249146  97.3752117  51.3851023  72.1157837
  28.0208645 102.0414639  31.7434931  28.0226574 102.9986382  31.7361689
  28.5051785 101.8070984  32.5351596   1.3640747  76.8700361  26.1119628
   0.6076775  76.3302803  26.3416672   2.1155320  76.3895941  26.4594221
  88.1771457  35.7481390   2.4826068  87.8529728  36.1959844   1.7012137
  89.0421570  35.4242140   2.2314948   0.4260884  21.8262029  25.4987025
   0.6985150  21.6324258  24.6017838  -0.1523819  21.1011839  25.7352471
 111.6847038  36.2348270  60.9329271 111.0819149  35.4917502  60.9595156
 112.4013901  35.9418392  60.3701162   2.0677243  52.8744936  70.0967646
   1.2351475  53.1150007  69.6903181   1.8415604  52.6727343  71.0047197
  87.6191330  12.8222013  60.1186800  87.2019958  12.7403939  60.9763145
  87.8006363  13.7577343  60.0288820   0.6219635  96.3189697  31.9571209
   1.5040264  96.6870022  32.0095682   0.0588856  96.9907665  32.3416543
 113.6759853  60.0540447  70.4424191 113.5755730  59.5430088  71.2455320
 113.7206459  59.3991137  69.7457886  87.5595284  42.1864605  55.5138636
  87.6704979  41.4484358  54.9144983  87.6940536  41.8107510  56.3839054
  24.7169552  93.6810398  40.0081015  25.1386795  93.4472466  40.8349800
  25.4289494  93.6832237  39.3683338 110.6804943  81.3892651  45.5101776
 110.6573582  82.0971012  46.1541176 111.2081242  81.7367744  44.7911024
  65.5526924  58.9037752  54.7521305  65.3560495  58.0486965  54.3695021
  65.0937939  59.5286465  54.1907167  70.7182550  56.9989681  48.3822727
  71.5513229  57.2177649  48.7998247  70.7284307  56.0443211  48.3131456
  74.5956707  47.3799992  57.8165150  73.6771441  47.1521139  57.9600763
  74.6136332  48.3363533  57.8525782  13.4034500  37.5234652  34.1810632
  13.7979470  38.3550310  33.9181876  13.8252888  36.8709350  33.6220551
   2.5447617  60.2133369  88.0804253   1.7855225  59.9854088  87.5439262
   3.2987557  60.0133991  87.5256729  93.7041283  74.1210604  34.6604371
  93.8619614  73.4214878  35.2944088  94.0157700  73.7650299  33.8283587
   3.6894856  51.2328911  53.2309389   3.7567101  50.2853632  53.1130219
   3.5740528  51.3492966  54.1739988 104.8791409  81.5372181  15.5705369
 105.3208351  81.3414478  16.3968599 103.9765739  81.7331409  15.8219600
 110.6697273  60.8572674  57.9828644 110.4887390  60.3022814  57.2242689
 111.4544964  60.4761314  58.3766890   3.7402497  92.8841114  54.0820599
   3.7301026  93.0782604  53.1448126   3.1689511  93.5468578  54.4701433
  99.2612648  82.9455662  64.0023613  99.8292255  83.2476044  63.2935476
  99.1074276  83.7258434  64.5350313  20.0806675  62.7235889  57.1145821
  19.2412148  62.9494858  57.5152397  20.1680146  63.3331156  56.3817263
   2.1723042  69.3770504  70.8198118   1.7534981  68.8121891  71.4692497
   2.1578846  70.2485228  71.2154770  70.8036852  85.5925369  35.2839255
  71.0829544  85.2869225  36.1469674  70.2014399  84.9163055  34.9737000
 108.9449406  49.9448681  67.6758575 108.1557369  49.5879889  68.0833244
 109.4559193  49.1743422  67.4280453 114.0207672  40.3362799  43.0223322
 114.0355778  39.5417762  43.5559750 114.9435520  40.5564356  42.8948879
   2.3515568  71.8042183  72.3565102   2.8240738  71.7528105  73.1873608
   2.9181919  72.3287010  71.7907667  95.1602745  74.1777611  86.1985779
  95.3809357  73.3792257  86.6780281  94.5128155  73.8975286  85.5516624
  80.9306526  83.7112713  61.5237665  80.7774258  84.6478462  61.6485977
  80.6221676  83.3078671  62.3351431  57.3681126  69.4497919  85.0505066
  57.4397335  68.4953642  85.0377560  58.2501850  69.7533321  85.2650928
  87.1028137  59.7082901  66.4835548  87.3913193  59.4749355  67.3659039
  87.2324657  60.6552505  66.4317703  21.5428887  83.1204796  18.4918690
  21.3493882  83.2605171  19.4187880  22.4978886  83.1570816  18.4383643
 105.0213623  64.7952366  70.7313633 105.3619862  65.4638767  70.1371145
 104.3222237  65.2369213  71.2133884 114.6800423  53.3604813  43.7472391
 115.5111027  53.5887527  44.1637373 114.9087715  53.1908035  42.8333902
  89.6262264  52.5447035  51.0145664  88.9222813  52.9662848  51.5074778
  89.2099571  51.7876482  50.6024647 115.1210880  43.5886383  40.9369040
 115.2371025  43.4145737  41.8709660 114.1726494  43.6421156  40.8192301
  12.0180855  26.3190126  67.7621508  12.0158158  25.5626845  68.3488321
  11.1014233  26.5911937  67.7187109   8.3544026  59.9346495  83.8491917
   7.9295216  60.7761431  84.0152836   7.7867184  59.5013666  83.2118320
  96.9842911  54.6524858  70.0968409  96.1420918  54.6823692  70.5507660
  96.7752743  54.3138885  69.2262650  19.8774205  51.5231705  69.7612667
  19.4733487  50.6675863  69.9059629  19.9913750  51.5768385  68.8123941
  10.1946030  79.3063641  42.6360226  10.4700241  78.5924006  42.0610237
   9.5131550  78.9210176  43.1868124  81.7174149  68.2567072  94.4436550
  82.4316978  68.0708742  93.8341522  82.1547890  68.4586239  95.2707958
  15.9440670  60.0695467  52.9586601  16.4338646  59.2757607  53.1736803
  16.3111840  60.7407331  53.5339546  96.6912365  65.0041008  74.1014719
  97.6319599  64.8406792  74.0339470  96.4347553  64.5901203  74.9255276
  10.7271729  65.7740545  77.5222588  10.6711731  65.8997345  78.4695196
  10.4768906  66.6209841  77.1530724  65.7585501  95.1180320  11.4686889
  64.9277186  94.6852450  11.6652602  66.3704275  94.3998365  11.3073558
  34.8336182  89.4763470  75.5951643  33.9323674  89.6063232  75.8902645
  35.3635941  89.5992374  76.3827276  54.7089182   3.9252038  90.3016478
  54.9589716   4.8235602  90.0856405  53.9578139   4.0199084  90.8873930
  91.2236691  35.7688189  58.3918095  90.5293751  35.1186609  58.2846117
  91.5017796  35.6742454  59.3028212  89.3483162  39.6671796  53.8256788
  89.2321110  38.7524390  53.5688210  90.0870609  39.9719167  53.2987690
  48.9842104  77.9687362   6.9150084  49.6202540  78.0609088   6.2056560
  48.9156603  78.8464193   7.2907752  84.6339035  40.3093719  44.2544985
  84.8391819  39.4373679  43.9172983  85.3893375  40.8443356  44.0108395
  55.6264580   2.9487711  27.1731204  55.2232158   3.6411577  27.6967925
  56.5429867   2.9426914  27.4491137   8.3468018  34.3295932  53.9459515
   7.8671513  34.5032024  53.1359911   8.0909214  33.4400678  54.1898680
   8.9764367  80.2277374  77.5317955   8.2077561  80.1619720  76.9651985
   9.5112286  80.9132004  77.1313238 105.4492188  63.2031918  53.3603287
 104.8746586  63.4769154  52.6453495 105.0715733  63.6099577  54.1401768
   1.6057454   0.7790994  77.9834604   1.5078316   0.3043033  78.8088179
   1.6826878   1.6972287  78.2429838  28.7249337  94.1637611  73.8720179
  28.1729374  94.7249699  74.4166088  28.5946141  93.2838821  74.2256641
 101.5072250  58.5099602  42.0051861 101.0817146  59.3249273  42.2716379
 102.1888638  58.3696699  42.6623964 112.3395252  46.2611818  55.4355145
 112.5395298  46.4138317  56.3590527 112.0366478  45.3537512  55.4028511
  17.4721299  68.5952711  34.4590282  17.2401486  68.5650253  33.5308552
  16.6337834  68.6822701  34.9127197   3.0347214  39.0337729  50.5452108
   3.4704647  38.5190558  49.8659277   3.6333809  39.0012622  51.2913799
 106.6384506  36.4955378  45.8379221 105.8547783  36.9056034  45.4719305
 107.2487640  36.4461637  45.1021862  89.0845490  68.1571436  43.7454176
  88.7050724  68.1380892  44.6239758  89.4042873  69.0534163  43.6420155
  68.7407160  97.0438480  81.5516758  68.2619381  97.7848530  81.1802959
  68.8567829  97.2717476  82.4740791 104.3172646  51.8467712  29.1722131
 104.8213577  52.2607517  28.4716749 103.5860252  52.4448109  29.3267035
  20.1868782  47.0860052  55.8636618  19.5821247  46.4258957  55.5248976
  20.2997265  46.8565416  56.7860746  93.0681801  37.8297710  47.0204115
  93.4928989  38.1612277  46.2292242  93.1252670  36.8775082  46.9418907
  98.8366413  55.1726913  48.7869930  98.2523155  55.5557394  49.4412661
  98.8750076  55.8259392  48.0884027  93.4905338  62.7966642  72.5215054
  94.1075516  63.4872532  72.2794008  92.6778412  63.0342960  72.0750856
 111.7959785  68.8392878   6.8479121 111.0001469  68.7742186   6.3200319
 111.8470001  69.7636080   7.0913512 102.8707600  54.9790478  45.2357864
 103.4099197  55.4787350  45.8488560 102.5348377  54.2474222  45.7535744
  24.8496399  59.7587013  82.3809624  25.7393704  59.8263836  82.7274227
  24.3930207  60.5178022  82.7435875  99.1338825  69.3618965  49.2608166
  99.9945927  68.9643049  49.3924618  99.0128422  69.9287128  50.0225925
 109.0198326  60.6051064  78.3461428 109.2359638  60.2468157  79.2070436
 108.0712986  60.4989004  78.2737684 100.3219795  37.4359179  29.8834443
 100.8805275  38.2129836  29.8627257  99.6325874  37.6531386  30.5109692
  20.6795178  50.1058817  55.8915997  21.0034714  49.3035221  56.3008785
  21.2383042  50.2255249  55.1236963 103.2192898  60.5600929  82.9748344
 103.6729336  61.3379383  82.6501846 103.1230164  60.7137775  83.9146996
  89.8633862  70.4421949  81.2374401  90.8000755  70.4879284  81.4291191
  89.7041988  71.1762810  80.6441307  68.5795641  74.5678806  48.8475657
  68.7482738  74.3624020  49.7671032  67.6450634  74.3963146  48.7313604
  98.6576271  90.6390285  67.5343704  97.8408718  91.1307621  67.4486446
  99.2116547  90.9697628  66.8273401  85.4189301  82.4391174  86.5051270
  84.6886444  82.7765656  85.9864330  86.0768127  82.1872807  85.8570480
   9.5985470  83.5298824  31.2693334   9.7396145  84.1831398  30.5840611
  10.0908528  83.8607216  32.0206094  86.2617397 107.5179577  42.5699902
  85.5512333 107.7196407  41.9611120  86.8321133 108.2858849  42.5353003
  20.3692875 103.6917400  43.7777519  20.5658780 104.4559002  43.2358599
  19.9949799 103.0557251  43.1681538 100.2368832  29.3952703  27.0722628
  99.5851135  29.3848801  26.3713217  99.7256279  29.3021274  27.8761125
  99.8803139  48.6779785  44.1490602  99.0330696  48.2397556  44.2289257
  99.9526119  48.8918352  43.2188606   7.0388565  80.8613300  63.5820103
   6.5561257  80.5637074  64.3531322   7.6118622  81.5540218  63.9107609
   8.0480442  89.6641064  89.3858528   8.9367829  89.9787140  89.5513535
   8.1170330  89.1703224  88.5687542  84.5176697 102.2951317  39.6959066
  84.3936443 102.6347828  38.8096285  85.2345181 101.6662216  39.6132469
  88.0794144  97.2250271  48.8643217  88.9319992  97.0750046  48.4558821
  88.1363010  98.1125164  49.2183781  13.6845169  91.3874817  49.9092531
  12.9430161  90.8867359  50.2493334  14.4561062  90.9158039  50.2229595
  66.9778347  83.3092594  80.3446770  66.2309790  82.7194786  80.4475689
  67.6333237  82.7872086  79.8820400 116.0396481  52.3714685  34.4116688
 116.2888527  51.4517879  34.5028615 115.2911568  52.3587847  33.8151503
 108.5066795  75.4771042  59.5673466 109.2784500  76.0361242  59.4773626
 108.6451054  74.7737741  58.9330006  32.6119480  65.2579260  72.1347380
  32.7499733  66.1107254  72.5469494  32.1274052  64.7521639  72.7871609
 114.7431183  90.3296947  89.2802811 115.3801537  89.7059631  88.9318848
 115.1339245  90.6401920  90.0970364  14.0282116  65.5387259  63.5447168
  14.1167031  66.0416794  64.3543100  14.2502842  66.1600542  62.8512716
 108.9749336  60.9881401  31.8923688 108.9243126  61.5252686  31.1016989
 108.0688286  60.9183788  32.1929455  97.0582485  84.8432350  59.1159296
  96.7887020  85.3893661  59.8543835  96.7047691  83.9767742  59.3172455
 105.9825993  75.3701973  46.4262342 105.2822685  75.0072002  46.9684601
 105.9910297  74.8178434  45.6445265 103.5139751  61.0797024  52.0186329
 104.2736816  60.5383778  51.8040562 103.4147739  60.9883595  52.9662848
  97.0719242  91.9196129  21.9603395  97.0458603  92.6178265  21.3060760
  97.9004288  92.0535278  22.4206424 106.7485714  68.2918262  66.1863995
 107.1046638  67.5372076  65.7173777 107.3727036  68.4499073  66.8947124
  18.5548840  83.3698845  72.2589922  18.8384781  83.1504059  73.1464815
  18.4421311  82.5230408  71.8272734  29.7974371   2.5884963  64.4514036
  29.2608809   1.8166781  64.2707586  30.6390261   2.3973704  64.0373611
  18.0598698  51.8035030  38.9082789  18.6923371  52.2383595  39.4802165
  17.4810944  51.3310671  39.5066595 102.5095940  84.0486431  48.7159777
 102.5998306  83.3716869  48.0452919 101.6307068  84.4032383  48.5816479
  28.3367501  90.4096222  58.9482546  29.1265641  90.1527405  58.4723997
  27.7791462  90.8163071  58.2849932   8.2462941  79.6939802  40.7857609
   8.0687962  78.7728739  40.9762621   8.7152157  80.0120735  41.5572309
  19.9994717  54.2798662  66.6304207  19.1383896  53.9091253  66.4372063
  19.8366413  55.2159452  66.7464924  26.8647728  41.4328861  74.2806005
  26.2366734  41.0895252  74.9160767  27.1094857  40.6736898  73.7514830
   2.7966748  86.3351917  68.3565426   2.4614392  85.5286312  67.9649973
   3.5938893  86.5277004  67.8629494 107.0535755  71.5103817  38.4861183
 106.4794827  70.7633209  38.6550903 107.4414349  71.3257313  37.6307249
   0.2445469  36.5626431  65.1427078   0.1444397  35.9686327  64.3988228
   0.9195958  36.1552024  65.6854105  88.4553051  61.3814926  53.9866877
  88.0330658  62.0517445  54.5239973  89.1641808  61.0460472  54.5355129
  12.8232537  77.5239086  53.0554628  12.0744477  77.7600861  53.6029625
  12.5033150  77.6186132  52.1582985   2.4782811  60.4304600  56.4916420
   1.8763409  59.7231579  56.2600660   2.5772534  60.3595114  57.4410677
  12.9611563  12.3431731  27.0543265  12.0642637  12.2090197  27.3606443
  13.1696104  11.5460444  26.5671325  65.0651346  18.3284326  94.0935680
  65.6910788  18.4216495  94.8117177  65.5933176  18.4261460  93.3012849
  10.3614006  66.3357019  28.0554247   9.5360241  66.2415457  27.5799036
  10.5348740  65.4633570  28.4091878  17.2325001  35.3839302  46.5817881
  16.6732083  35.7883406  45.9185600  18.0934677  35.3279042  46.1672592
   6.0162125  77.4852276  29.8277354   6.6091404  77.5937700  29.0841746
   5.2673493  78.0442429  29.6205163 104.6261215  47.2531605  47.1440792
 105.3967762  47.5207090  46.6433382 104.6572018  46.2964773  47.1385908
 104.0563679  91.5245533   5.3586054 103.6712551  92.2132969   4.8167950
 104.2314053  91.9499207   6.1980450  19.9926911  48.9656210  84.1605949
  19.8918877  49.0719128  83.2146740  19.5670567  49.7369242  84.5349789
   2.1725903  85.5343151  70.8686352   1.2164936  85.5801964  70.8734465
   2.4190388  85.7669449  69.9734354  24.4129048  81.1926746  59.8826742
  23.6825428  81.5102577  59.3516922  24.2349205  81.5295792  60.7607698
   7.6428566  64.0674257  56.5355444   7.9004059  63.2099056  56.8740129
   7.7404366  64.6586943  57.2819424  14.6907101  75.8518362  54.2866659
  14.7155247  74.9931812  53.8643742  14.0434037  76.3470221  53.7846565
 114.1751671  53.4399462  61.7078352 114.1974258  52.5253391  61.4263678
 113.3041859  53.5522270  62.0886421  19.6896706  88.6714840  16.5378308
  20.2920399  88.7917995  15.8037245  18.9203701  88.2539368  16.1504495
 115.2340794  68.4956598  58.3972216 115.2754688  68.8428116  57.5061512
 114.9705601  69.2433977  58.9335775 115.6417942  95.0906754  78.1845951
 115.0708675  95.2374935  78.9387369 116.2934113  95.7898140  78.2377863
 101.6751480  75.4749680  70.2627134 101.5665054  74.5971584  70.6286097
 102.3326874  75.8880520  70.8223915  78.7547302  67.3626757  33.6377811
  78.5316706  66.5437365  34.0802836  77.9204082  67.8241920  33.5532403
  88.2151794  68.0636883  59.9139786  88.3064747  68.0394459  60.8665085
  87.3188782  67.7695036  59.7517157  13.3195839  95.5610466  70.4199314
  14.0012894  95.9339523  70.9788942  12.6302777  95.2945328  71.0282516
   5.4076538  44.3399477  85.5227661   4.5214043  44.2019320  85.1884842
   5.8763752  44.7507668  84.7962952  32.9916942  26.7367368   9.7247142
  33.5862434  26.1753660  10.2223128  32.8287733  26.2541967   8.9142627
  85.1998329  50.2701521  45.2146053  84.5305443  50.7439566  44.7208500
  85.9481144  50.2231550  44.6195364  81.7103767  86.4025402  67.2960281
  81.0237408  86.2001896  67.9314852  82.5079250  86.0398579  67.6815367
  99.2096519  70.6787014  91.7699146  98.6570549  70.1885796  92.3787308
  99.9507141  70.9704781  92.3008823  85.1500130  57.4088287  65.9883022
  86.0073090  57.8042126  66.1462307  85.0356388  56.7891788  66.7088461
   4.8045884  21.4187646  37.9335880   5.7434616  21.3476324  38.1059313
   4.7302304  21.3535762  36.9815111 105.8001328  63.9891768  73.7462807
 105.2002811  64.2816496  73.0600739 106.0613823  64.7934294  74.1947889
  26.9757233  49.7702074  89.4469166  26.3978920  49.0090322  89.3925095
  27.6825486  49.5788908  88.8304615  21.4785633  64.3414831  55.2002621
  21.4435921  64.5123625  54.2590904  22.2558747  63.7949610  55.3157425
  29.9286805  33.9182281  72.9737663  29.0166531  33.8226771  72.6993227
  29.9939022  33.3969116  73.7738943  14.4453583 105.5275059  82.2888660
  13.7312661 105.3678036  81.6717720  14.2981205 106.4208221  82.5995731
  21.7686329  44.0901279  51.7507792  22.2868405  43.4787035  51.2274742
  22.0725689  43.9545536  52.6482630  78.4439516  40.0636292  59.0380287
  77.9692364  39.2340422  58.9864016  77.8738165  40.6936598  58.5973120
  98.8391876  79.2780876   6.0022974  99.6329117  79.8130894   6.0040444
  99.1445351  78.3972740   5.7851088  43.7878120  36.9989973   4.5297832
  43.8983619  37.7390581   3.9328593  43.7742412  36.2307840   3.9589137
   8.6413727  74.3720484  53.4233236   8.7078152  75.2267075  53.8492107
   9.4237957  73.9005280  53.7091827  13.8537846  48.2197189  41.9395924
  14.3275223  47.5749063  42.4649715  13.3989296  48.7644482  42.5819397
 114.5987606  85.1220703  73.5890245 114.8181629  86.0499573  73.6733532
 114.9509621  84.8692703  72.7356339  18.4965777  12.8555346  66.7743206
  19.4498705  12.8049231  66.8443203  18.2929396  13.7763453  66.9382334
  31.6528187 108.1626987  28.0691361  32.3683892 108.5987186  27.6064491
  31.0507450 107.8901863  27.3766923 113.2515717  63.3688879  43.3089209
 112.9507732  62.7300119  42.6627064 113.1239605  64.2172432  42.8843737
   4.0619240  47.5337934  72.2432566   4.6709881  46.8433523  71.9814157
   3.3623371  47.4960661  71.5910339  61.4382935 103.8225365  29.0911889
  61.2101698 104.6311760  29.5497704  61.9812489 103.3390808  29.7138500
  34.1801892  81.3435268   6.5841883  34.7959385  81.0987091   7.2749496
  33.7000904  80.5374336   6.3945663  17.0680962  65.6475735  58.9163113
  16.3452015  65.1163721  59.2502069  17.4852429  66.0043812  59.7004700
  14.6895752  93.7594223  45.4600143  14.7924099  94.7016430  45.5937624
  14.0239869  93.6858368  44.7760439 101.5507317  56.7493010  70.1397324
 102.1558285  56.4878607  69.4456625 100.7035923  56.8293667  69.7013474
   4.8238621  59.1123819  13.4091747   5.2910862  59.9426746  13.3167398
   5.4790268  58.5060358  13.7546086  81.8478775  63.3103752  41.8698120
  82.3549747  63.5316086  41.0886955  82.2309303  63.8467789  42.5639153
   3.8071213  90.6966305  55.6421661   3.4536515  90.8886337  56.5107441
   3.8580094  91.5494156  55.2104187 116.3029099 101.2009907  67.1773672
 115.9762001 101.9792080  67.6288891 117.0368862 100.9028244  67.7145863
  83.5591125  83.2981777  84.6657658  82.8175449  83.7242699  85.0955868
  83.2896233  83.2136822  83.7511826  86.2565804  79.9192667  80.8045197
  85.6271362  79.2637444  81.1050415  85.7758522  80.7462883  80.8387089
  89.9901378  31.6055494   1.1124152  89.2764843  31.5997320   0.4745311
  90.1797760  32.5334554   1.2512034   1.3332806  98.2747746  29.3558168
   1.3493119  97.4802685  29.8894310   0.6014881  98.7832928  29.7052956
  95.7334995  44.2123604  86.5277195  95.4484653  43.7559175  85.7361126
  95.1607800  43.8764858  87.2172165 113.9406776  30.2704406  48.6625481
 113.2711697  30.1141906  47.9965305 114.3126583  31.1220217  48.4330511
 110.8636951 106.4803791  68.7368870 110.4787636 107.3542213  68.6702442
 111.1042023 106.2554169  67.8381157  28.6482964  67.6200438  68.7789774
  29.0478287  66.7937708  68.5071659  28.0309449  67.3725510  69.4673443
   5.7792817  40.7758999  61.4912081   5.8600865  40.9943962  60.5627871
   4.9034367  40.3984976  61.5730906  83.7629795  88.5180283  72.5038481
  83.3831120  87.8941822  73.1225109  83.1429577  89.2471027  72.4877644
  22.1275387  93.6488056  38.7275767  22.5615368  93.6037254  37.8756118
  22.8154145  93.4361744  39.3583298  97.5842381   9.1101050  50.8119440
  98.2208347   8.6528748  50.2624846  96.7541218   9.0176046  50.3444004
  58.2566357   8.5091984  63.9319944  58.4508038   7.8613889  63.2545948
  58.0630445   9.3117052  63.4474945  61.7490101  15.8425581  42.6681042
  62.1662903  15.2609038  42.0326614  60.8523989  15.5151808  42.7397776
 112.2750854   3.8643923  45.4369068 112.0342064   3.4330344  44.6170664
 112.8525829   3.2396525  45.8755732  42.4644743 100.4137790  75.7184267
  41.5198981 100.5626559  75.6755018  42.5510203  99.5125555  76.0291290
  32.4716603  86.9010186  60.4650497  32.7797114  86.2863230  59.7991037
  32.3816382  87.7327632  59.9999380  88.4513664  11.4438581   9.6416271
  88.0673981  12.1462023  10.1665235  87.7155399  10.8657742   9.4401085
  33.8525616  92.3765754  39.3611789  34.2221438  91.5238237  39.5902109
  34.6077238  92.9013740  39.0955687  42.4074888  44.7235918  38.6879802
  43.2059431  44.1958237  38.7009072  42.1417236  44.7783995  39.6059108
  79.9452162  13.9273965  43.5004139  79.1460991  13.5963976  43.9103889
  80.0699520  14.7950792  43.8848639  51.2530981  73.7895536  77.9408312
  51.3068568  73.8472652  78.8947773  50.9226786  74.6452784  77.6673508
  70.3299665  14.2575443  15.0984192  71.0812235  13.6720562  15.1935709
  69.5806837  13.7337983  15.3821373  89.7466564   1.4831787  38.0726790
  89.0033531   0.8842916  38.0014610  90.4818058   0.9981449  37.6978135
  43.3219706  91.8867766   5.3271711  42.5693308  92.3323833   5.7159984
  43.2633196  92.0881473   4.3932325 112.4686527  22.4805379  52.8797579
 112.2587776  22.1060896  53.7353134 111.7610073  23.1024575  52.7103996
  66.6776228  22.0408893  39.7758198  67.5513840  22.3499012  39.5364738
  66.1996937  22.8351712  40.0144196 110.5554485  21.3461852  42.3541307
 109.9688816  21.3858533  41.5987539 110.1523304  21.9251394  43.0010748
  81.1286354  19.6312785  52.7033949  80.6637573  20.4579306  52.8328657
  82.0505714  19.8817253  52.6438951  29.3328224 107.4391315  46.6465330
  28.7297140 107.7556025  47.3190928  28.7903010 107.3446754  45.8635998
  23.4554898 100.4210907   2.9895735  23.1010281 100.9997635   2.3144999
  23.4917342 100.9649997   3.7763911  83.9953995  27.3391581  27.2354555
  83.8587284  27.9997396  26.5563488  83.8333607  27.8030562  28.0569005
 106.6817188   2.1391705  84.5038414 107.3167801   2.6604414  84.0127182
 107.1281528   1.3080916  84.6658230  87.4755287  18.2356346  45.5664062
  87.4241352  19.0570796  46.0551023  86.6282177  18.1651008  45.1267290
  47.4765730   8.7945420  46.3421440  48.3974266   8.9218253  46.5703058
  47.3775673   9.2285955  45.4947805  55.1171194 109.1145983  19.1712213
  55.0197874 108.6738073  18.3271480  56.0539423 109.2992305  19.2383873
  60.6346893   7.2395128  28.3774090  60.8594131   8.0824965  28.7712479
  61.4707470   6.7793798  28.3031178  87.3831081   5.3958762  79.5376301
  87.5485229   5.5886143  78.6147404  86.6854477   6.0017174  79.7875261
   2.9228865  86.1261558  38.2055974   3.6078392  86.3015889  37.5603890
   3.1292998  86.7068981  38.9379644  69.7272383  85.6382727  47.1912479
  69.0546595  85.9509753  46.5861940  70.3035437  86.3917875  47.3189592
  66.2822723  15.0329030  81.1173916  66.6303253  15.3130221  80.2708530
  66.2227392  15.8388162  81.6304111  71.0503435  50.2778816  43.7479448
  71.6486120  50.6930065  43.1266737  70.2329969  50.1742792  43.2606554
  88.4659672  18.9898682  71.3619184  88.5340118  18.4213746  72.1290016
  89.0731621  19.7077775  71.5412331  64.8411465  30.9933496  45.2278614
  64.6998215  30.1424026  45.6427670  65.4846859  31.4285421  45.7870579
  47.1319103  28.3742881  22.2775912  47.1997213  27.4807453  22.6140642
  47.8338099  28.8509846  22.7206850  16.4604161  72.3020191  88.0536258
  16.0079262  71.9181592  87.3025363  15.8420632  72.9434199  88.4035873
  58.6682272   9.7183937  58.6654329  58.7072468   9.1742605  57.8788996
  58.3652925  10.5706775  58.3522654  64.3505573   8.7564486  11.2530065
  63.7481451   9.4945925  11.1609483  63.7985134   8.0320555  11.5475142
  79.4729519  22.0108795  53.0833673  79.4020700  22.7833438  52.5225592
  78.7063599  22.0584583  53.6545992  94.6035957  41.4447117  27.2988844
  94.8494244  41.0156107  26.4793277  95.0750923  42.2775984  27.2839689
  64.1853033 105.0228544  38.9642978  65.1110541 105.0820720  38.7283015
  64.1829096 104.5889508  39.8175001  53.5721670  98.5240256   1.0288196
  52.7698695  99.0033995   0.8220711  53.5715376  97.7832674   0.4225936
  83.7551022  20.9348059  44.7591496  83.5965538  20.7381582  45.6824160
  82.8854084  21.1065102  44.3980646 106.8048286   2.4037598  89.2442226
 106.5414810   2.5923607  90.1449490 106.9705772   3.2637888  88.8580704
  77.4319506   8.8468778  26.2316728  78.0640554   8.1773198  25.9702063
  77.8063202   9.6676666  25.9116983  88.3894348  25.7767868  49.6523809
  88.6220455  26.5522671  49.1417360  88.6845684  25.9774780  50.5405521
  76.3993727 102.5784796  71.4569664  75.9725558 102.7451038  70.6165552
  77.1523367 103.1694286  71.4645147  14.0388356   5.8178627  50.7675076
  14.2359410   5.1153857  50.1479053  14.7639618   5.7968849  51.3919878
 103.8256836   3.8637361  30.5377746 103.3034706   4.2359966  31.2483692
 104.1532135   3.0359411  30.8895016  82.5420856  33.4312010  49.6395636
  83.0577564  34.1519213  50.0013256  82.8553104  32.6554918  50.1047468
  33.0883871  98.8188993  59.0962791  32.8735625  99.4355332  58.3963919
  33.7139641  98.2134461  58.6983967  40.7723141  11.5983856  61.5174913
  40.7487106  10.9820271  60.7855272  40.7588291  12.4616635  61.1042118
  67.6102018  20.8670211  54.9334335  67.7723694  20.0933981  55.4732847
  66.6736698  21.0373139  55.0341129  36.5144192 103.6836677  65.4425526
  36.2943207 104.3015187  66.1397219  36.2768828 102.8271519  65.7977819
   3.4564339  90.3948151  31.6013122   3.3185755  91.3360321  31.4948273
   2.6282488  89.9991953  31.3296056  63.3513737   5.3605419  30.1193833
  63.8520432   4.9729693  30.8372617  62.6206779   5.8047700  30.5494714
  83.0976009  29.1465354  17.9455793  83.1254005  28.8862109  17.0248783
  82.2930241  29.6589065  18.0254233  47.9495226  97.2419047  52.4568176
  48.6285769  97.3658692  53.1199551  47.2006975  97.7398216  52.7848148
   2.6023350  12.9884696  33.4150672   2.8369675  12.2863293  32.8082919
   3.2420407  13.6789727  33.2412434  21.1654412 101.3211524  66.6620970
  20.5357825 101.0338985  67.3233414  20.7489382 101.1092352  65.8267212
  97.4055099   1.9417274  28.5616922  96.5711498   2.3747928  28.3813453
  97.8458214   1.9070035  27.7124810 112.9736710  11.8499756  58.0736351
 112.4271870  11.3205075  57.4928951 113.6820698  11.2626839  58.3372402
  69.1665459  21.7899156  60.7161188  70.0693989  21.4791822  60.6488085
  69.2307901  22.7384663  60.6049633  65.6935692  27.1577287  42.8701735
  66.0498238  27.5138164  43.6841249  65.5881310  26.2223458  43.0438662
  56.2628828 100.1555073  22.3655486  55.5145537 100.0492447  21.7782402
  56.2979876 101.0958266  22.5410461  52.3584318   3.0241451  46.7011166
  52.1605015   3.0306330  47.6376057  53.2588911   3.3438179  46.6444063
  70.5467367  14.1845131  21.9543219  70.3761864  14.4551551  22.8564835
  69.6846771  14.1809666  21.5382934 109.1844082  11.7447114  72.9740334
 110.0280571  11.5721869  73.3920288 108.8547039  10.8788419  72.7336168
  63.5261106   6.0136843  17.9334223  63.3730268   6.9410658  18.1144214
  64.2598915   5.7768929  18.5006368  66.0842991  23.6031914  36.9260907
  66.0753059  23.2442331  36.0387921  65.1598549  23.6911583  37.1582532
  68.7022959  91.3104080  51.4348507  68.9285837  91.4177977  52.3586941
  68.5311686  92.1998321  51.1252165  88.5691071  30.8533621  73.5439157
  87.9875851  30.9082890  74.3022299  88.4847927  31.7050409  73.1152344
  16.0197340  86.7382669  32.5189590  16.3723217  87.4053692  31.9299889
  16.6317211  86.7207598  33.2547569 105.8647681  73.7134384  33.8861012
 105.1741148  73.9234685  33.2575178 105.4348756  73.1602382  34.5383263
  73.1779146  30.2943969  27.3424459  73.0301476  31.2395406  27.3756313
  73.3351803  30.1089239  26.4166498  43.2047892  14.8581600  72.6256466
  42.6806164  14.2259109  73.1173182  44.0017939  14.9639547  73.1450939
  77.2622538  42.4501228  57.8717804  77.6670551  42.9676914  57.1757269
  77.1250772  43.0736208  58.5849905  27.3191725 107.0642211  25.5523443
  28.2262598 107.3683593  25.5826378  26.9944798 107.3634014  24.7030520
  78.8788271   6.8749070  41.6001654  79.5110416   6.1766410  41.4299822
  79.2755556   7.6562876  41.2150908  44.6084738  16.2279129  46.6992474
  44.1234064  15.4210007  46.8719769  44.6162891  16.6871107  47.5390720
  32.7856861  93.6998450  46.4822674  33.0271756  93.3006298  47.3180580
  33.4252344  94.4011306  46.3581467  59.2375933 100.4913359  70.5755758
  59.5842539  99.6591758  70.8973932  58.3361994 100.2931576  70.3217125
  84.9641418  17.6014268  44.5759821  84.6509457  17.3282957  45.4382706
  84.3164253  18.2396245  44.2769957  55.8887386  46.2660885  32.7272439
  56.5129185  45.8711386  33.3360505  56.3437557  46.2675619  31.8851137
  80.6852436  27.8186345  40.6702471  80.9753418  28.4848952  41.2932825
  81.4953899  27.4664593  40.3016567  22.3668467 107.2476270  37.2302079
  22.6285158 108.0792918  37.6252961  23.1771933 106.8888404  36.8684840
  88.7841415   7.3246402  22.8014731  89.0564156   6.5376389  22.3295283
  88.7151527   7.0447260  23.7142277  23.5115372  92.8968047  53.3104801
  24.0005051  92.8335368  52.4900246  22.9337679  92.1336698  53.3044243
  80.6254482   4.2710334  43.1139946  80.7676697   4.3076390  42.1681261
  81.2618446   4.8876718  43.4759283  96.9021511  14.7374690  69.9587584
  96.5043163  14.1199672  69.3450451  97.0818996  14.2156601  70.7408333
  68.6201763  20.3147721  14.7748804  68.8469267  19.4911253  14.3431163
  68.1115866  20.7954574  14.1217995  45.1925373  23.5238814  71.0661459
  45.0555468  22.5837779  70.9492207  44.7155476  23.9274454  70.3409910
  20.5134283  91.7257630  26.2302017  20.1571738  90.8599483  26.0310006
  21.3720738  91.5488445  26.6144681  64.2672240 102.3565363  55.6475019
  64.2939364 101.8773811  56.4757109  65.1842200 102.4281036  55.3825188
  58.8094187   8.4661645   6.5467143  59.4673204   8.1204164   7.1499145
  59.2100477   9.2552787   6.1819875 114.1714001   7.4574554  48.5504866
 114.8025703   7.9696387  49.0559864 113.3726692   7.4737465  49.0777397
  84.3199921  31.7375445  40.0709248  83.5051155  32.1463132  39.7791696
  84.9833679  32.4182081  39.9575567  79.5797634  13.6405873  60.2370739
  79.6595526  14.2140853  60.9992886  79.1742373  12.8435612  60.5784369
  63.7013245   5.6830907  14.9911189  63.2208109   4.8553875  15.0067616
  63.7267876   5.9625894  15.9062493  76.3658094  12.2191894  59.1498566
  77.0655680  11.6952372  59.5397854  76.4296198  12.0433581  58.2111120
  39.3235241  92.4416148  33.6827254  40.2183853  92.3554611  34.0114093
  39.2670857  93.3466136  33.3760905  48.4722948   3.3337677  32.9329944
  47.9720068   2.9575557  32.2088337  47.8393602   3.8737565  33.4063172
   5.8212147  45.0398636  49.2492533   5.5229149  45.8813858  49.5943403
   5.1352177  44.4213104  49.5002985  44.2841708 106.0833403  27.4680567
  44.4768034 106.8682750  27.9808927  44.1759573 106.4030405  26.5723372
  63.6180353  31.3779259  35.1796532  64.3046808  30.7170105  35.0905514
  63.1104040  31.3063955  34.3713069 105.2287865  15.9707046  32.5928879
 106.0233116  15.6995082  33.0526972 105.5131435  16.6873515  32.0256233
  69.6422148   1.0922614  57.0454645  68.7087488   1.2744235  57.1535969
  70.0783443   1.8884544  57.3489380  79.7554302  24.6787381  52.3869371
  79.5990133  25.6081915  52.2199583  80.2602196  24.6631098  53.2000685
  67.2056293  17.1984279  51.5206194  66.4839077  16.8400562  51.0039806
  67.8956652  17.3716736  50.8802557 103.9093590  20.1867819  46.4253473
 104.4999886  19.7978306  45.7802820 103.2458019  19.5141780  46.5787554
 115.2388668  25.7584262  66.5306187 114.8535919  26.3050294  65.8457708
 115.2803421  24.8837805  66.1439610 101.2071037  28.9855480  55.8817720
 100.7650280  29.7093987  55.4381037 100.8378029  28.9845538  56.7648602
   4.5032654  25.1123595  19.4445026   4.0490113  25.7782125  19.9607587
   5.3813038  25.4697609  19.3120432  13.8227402 109.7828118  10.6746697
  13.1698595 109.7124772  11.3711119  14.5069348 109.1616257  10.9241462
 101.6140175  30.8979630  73.0984211 102.5365067  31.0962796  72.9373932
 101.5468597  30.8275461  74.0506601 109.5270157  21.9565988  25.0272274
 110.1175880  21.2197161  24.8708129 109.7174072  22.5708103  24.3181944
  12.0849381  12.8814626  47.7813530  11.9819508  12.9722834  48.7286520
  13.0242501  12.9881322  47.6312208 114.4377232  40.6203985  22.4037433
 114.0248013  39.9328637  22.9262662 114.9879646  40.1483727  21.7787170
  68.9895998 108.0645240  45.3806639  69.9200712 108.1115333  45.1610327
  68.5477721 107.9836003  44.5353985  75.8001124 102.8105157  48.3118534
  75.9112154 101.9864296  47.8377533  75.0906073 103.2582056  47.8509712
  97.6460171  11.3967943  33.6431074  97.6590252  12.3011792  33.3298182
  97.7288628  10.8673525  32.8499746   0.3240834  10.6705332  39.0152335
   0.1735268  11.6151643  38.9800835   0.1625309  10.4360914  39.9291110
  62.5194359   3.3892933  15.6261873  62.3399115   2.7150726  14.9708796
  62.7386093   2.9001588  16.4192462 103.5705853  11.8453276  78.0984449
 102.6186657  11.8910372  78.1878948 103.8847733  11.6467273  78.9805269
  76.1478424  17.6005244  26.6975284  76.3354540  18.4470844  26.2921023
  76.9004774  17.4348044  27.2652507  91.3228703  23.6950541  85.0683689
  91.0355949  24.4890571  84.6175194  91.4977837  23.9790487  85.9655762
 100.8546638  41.4418888  57.9932165 100.2075005  41.7942810  57.3822880
 100.3941917  40.7381535  58.4503317 101.2165833   4.9876922  50.4043436
 100.4190636   4.8565215  49.8915243 100.9042835   5.1669049  51.2912416
  15.4487311  93.5923147  28.5060906  14.8715149  93.0125641  28.0091572
  16.3186489  93.2049977  28.4088469   9.0676651  24.9931002  23.7521935
   8.6948738  24.7597742  22.9020023   9.1809807  24.1557837  24.2019582
  60.4113947  90.5043065  63.1909657  59.4591223  90.5958020  63.1587601
  60.5557905  89.6191429  63.5254288  12.5302945  17.7290297  65.4215908
  12.8341732  18.3202815  64.7328901  12.3187695  18.3053935  66.1559582
  46.4306055 105.4444822  67.5725651  46.8459688 104.8716735  66.9278955
  47.0669352 106.1450817  67.7156687  68.6141872  20.8901858  24.4558740
  69.0571833  20.7760954  23.6150599  68.3428478  20.0068283  24.7054458
  27.2024784   0.3336446  52.3868799  27.3496590   0.5467533  51.4653826
  26.3171826   0.6497122  52.5673723  16.4540444   6.7531103  72.3181915
  17.2261486   7.2091287  71.9833374  16.7724476   6.2721980  73.0821085
  73.4848404  22.0024657  55.7193708  72.8131247  22.2676444  56.3476324
  73.0701971  21.3114882  55.2027941 107.4734783  12.7344024  47.6711035
 106.5944004  12.4508083  47.4200296 107.9662991  12.7416265  46.8505526
  90.5761909  18.8907087  33.9287710  90.7745552  17.9663599  34.0786409
  91.2003994  19.1636717  33.2563949 104.1196728   0.0641616   9.5932060
 103.3021355   0.2846416  10.0395775 103.9921474   0.3697161   8.6950946
  28.8239323 105.4611068   4.6223268  27.8710352 105.4399940   4.5341513
  29.1285836 104.7126340   4.1092885  89.2089748   3.5983679  61.6054344
  88.2806873   3.3753622  61.5362406  89.2174244   4.4654042  62.0109081
  79.9619913  12.5026739  34.5072341  80.6145477  12.1679831  33.8921118
  80.3601265  12.3800504  35.3690267 102.3602009  29.7942281  52.8020430
 102.7864361  28.9990067  52.4823856 102.7849102  29.9729109  53.6410427
  73.2368231   9.9905133  43.5834932  72.5056887  10.3181767  43.0597401
  73.9359808   9.8356390  42.9483366  82.9472446   3.0062348  75.9539557
  83.6281586   2.6481852  75.3844118  82.1542072   2.5301144  75.7076979
   7.7324902 105.7818728  53.8409424   7.7238022 106.6902330  53.5392189
   8.6210810 105.4770105  53.6573839  82.7228438 107.0939296  85.0881672
  83.1173216 106.2966447  84.7346783  83.1679903 107.8056473  84.6282387
  73.5397482   9.4267905  34.5147586  72.8817463   9.0333891  33.9416099
  73.3559513  10.3655863  34.4813967  77.2194563  78.0570030  58.6708307
  76.8252932  77.8830981  59.5255947  76.9583880  78.9545774  58.4648371
  52.3000288  32.7727532  30.9232020  53.0785131  32.3970199  30.5120850
  52.1117878  32.1889138  31.6580009  33.0897117  55.6389856  27.2689843
  33.9895964  55.3934574  27.0541453  32.6884103  54.8282146  27.5817847
   3.4518204   2.9221606  35.4850769   3.6064396   3.8665473  35.4636621
   3.3565579   2.7160805  36.4149618  95.3891754   2.0959833  25.5116749
  95.9122753   1.9772868  24.7188950  95.4985428   3.0204099  25.7346225
  84.1447735  21.6824961  47.9237652  84.0795326  22.6016092  47.6645279
  83.4848213  21.5795994  48.6094093  92.4053574  53.7357044  51.0215139
  92.1989346  52.9564190  50.5054426  93.1312943  53.4652758  51.5837431
  38.9833103 101.7869216  23.5832739  38.5905777 102.4297880  24.1737938
  38.2485520 101.2442558  23.2971430 101.9039345  37.6509476  44.8784685
 101.1483097  37.4702811  45.4375982 101.6693020  38.4521556  44.4102335
  83.6771870  26.3108563  19.8059332  83.4148693  27.0405960  19.2447746
  84.5785046  26.1206341  19.5457804  92.0606232  33.1783962  41.0288239
  92.4911880  33.7357807  41.6770267  92.4275684  33.4587049  40.1903677
 105.9990692  29.2555904  59.4924498 105.5718708  29.3687844  60.3415203
 105.5349541  29.8558450  58.9089060   7.1334324  23.7836623  27.9253745
   8.0610237  23.7043858  28.1478858   7.1252690  23.9216232  26.9782019
  35.3834473  90.6461965  48.2508707  35.9155737  89.9228977  47.9193449
  35.8550249  90.9556233  49.0242434 103.9215279  16.5481460  38.1152678
 104.1481495  15.6353259  37.9374146 103.0786800  16.5021038  38.5666323
 107.2911263  25.4722786  25.1947021 107.9427147  25.8176064  25.8049560
 107.1224499  24.5819092  25.5029583  58.6469173  18.6459875  68.1078196
  58.1669807  18.1300128  67.4600077  58.2136011  19.4994783  68.1029510
 110.1102543  29.0693307  76.1963606 109.5812511  28.5380650  75.6012630
 110.8898544  28.5391808  76.3618755  17.3421154  46.2184572  82.9980755
  17.7719365  46.9948339  82.6393032  17.3503552  45.5864286  82.2792530
  85.1329613  22.2997141  63.0478764  86.0168457  22.5704694  62.7995539
  84.7787666  21.8868876  62.2602558  68.1991278  97.1512007  35.6852484
  68.4645544  96.5298270  36.3632417  67.4662768  96.7236292  35.2421451
  13.8516484  18.5625815  24.2391181  13.5463391  19.2319667  23.6267924
  13.5671196  17.7351952  23.8509083  41.4657198  97.7308463  43.1510210
  42.1983229  97.3409831  42.6740265  40.7108103  97.6032197  42.5765181
  87.2135639  12.9674304  32.8372216  86.5805244  13.2237649  33.5078835
  87.1020699  12.0205700  32.7520370  49.5313549   8.0706191  79.9410105
  49.3709278   7.4817264  79.2036486  49.3812227   8.9464283  79.5851278
   7.0725308  21.2904382  44.5375538   7.0756112  20.5467367  45.1401567
   7.9956589  21.4331222  44.3284893  83.0092335  45.7537556  49.9947309
  83.6967468  46.4179039  49.9451017  82.5967789  45.7709837  49.1311216
   1.5215073  51.8024349  42.0914745   2.1926270  51.1286116  42.2000790
   1.2350426  51.7108917  41.1827421  92.9545021  18.9278340  27.5354123
  92.5057602  18.1808507  27.9314923  93.8260937  18.5964870  27.3191571
  64.1176891  33.5146618  43.7068605  64.1728306  32.7897310  44.3294907
  65.0117683  33.6194491  43.3814764  92.1205711  14.3597841  66.5791321
  91.8579388  13.6084259  66.0474253  91.2959003  14.7777367  66.8270445
  99.6182251  32.4353504  27.4170685  99.5440578  31.5920568  27.8638196
  99.4725609  32.2307014  26.4934158  37.4799095  96.2441718   7.5446039
  37.3413216  96.3020229   8.4899497  37.3149906  97.1307551   7.2236580
  99.7369480   2.7039397  62.9209089 100.1574516   2.1940468  62.2285128
 100.4389191   3.2483000  63.2774687  81.3270378  26.2728286  35.2791023
  81.2020588  25.5821633  34.6282601  82.1572495  26.0551810  35.7028961
 107.6584053  33.8494205  47.1804285 106.9363880  33.3175397  46.8457317
 107.8286171  34.4861841  46.4863157  64.4398308  17.2826469  13.7039077
  65.2157259  17.1360683  14.2449582  64.7844219  17.4061143  12.8194618
 108.6524010   3.6475581  52.3067760 109.1277313   4.4747514  52.3845243
 108.8383484   3.3471730  51.4171553   1.0054360   8.7962353  55.8790779
   1.5346299   9.5924407  55.9264088   0.1413403   9.0640110  56.1919308
  28.3127842  35.0824547  38.3833528  28.1637440  34.2161393  38.0045223
  27.5550328  35.5981207  38.1074262 105.3340912  27.3952293  18.6478209
 106.1262989  27.8996134  18.8328433 105.4588509  26.5717077  19.1194987
 103.6019135  10.0530672  37.1042371 103.0519009  10.5745673  36.5196347
 103.7631416  10.6248462  37.8547716  37.3674427 108.0921722  57.5251436
  37.0037209 107.3439435  57.0517588  37.4244582 108.7862962  56.8685055
  60.8847510  99.7648215  29.6822810  60.8012377 100.0411772  28.7696552
  60.3829562  98.9512741  29.7330570  10.0618897  16.1914349  37.1606779
   9.7764740  15.2888381  37.0189476  10.9195576  16.2405157  36.7385006
  54.7907530  95.7654976  35.5024576  54.8812186  95.6768083  36.4512372
  55.5115115  96.3407373  35.2458668   8.2319413  28.5926819  69.4888878
   8.2368241  27.6607347  69.2705154   8.4521637  28.6216712  70.4199600
  95.5973053  32.4879289  42.8865528  96.0270214  32.2477174  43.7074566
  95.8026600  31.7686558  42.2893047   1.4398156   0.3096374  36.0595894
   1.8358193   0.7316715  35.2971578   1.4848004  -0.6265819  35.8654213
  69.4915771  14.8102713  32.6344895  70.3120470  14.4882607  32.2611594
  69.7387028  15.6063545  33.1050372  89.6314430   5.9127676  51.8370628
  90.2869034   6.1827773  52.4802637  88.8544941   6.4269876  52.0565081
 101.1150265  22.0984149  49.0324736 101.5230942  22.2381496  48.1779623
 101.7683887  21.6095567  49.5328379 112.8445911  66.5165043  44.3790722
 113.6904907  66.9439220  44.5132208 112.9244518  66.0898256  43.5259581
  43.7540518 109.9088191  49.8153305  43.2883536 109.5614606  50.5760527
  43.3383929 109.4834943  49.0652895   5.4541836  32.2256231  56.0151052
   6.2783299  31.8208575  56.2856340   5.6214009  33.1667137  56.0663033
  74.3520927   1.8730675  77.7432632  73.5421801   1.3712634  77.8352737
  74.1448879   2.5453442  77.0941544  53.9024435  95.4358756  31.8243289
  54.6824633  95.7555365  32.2777820  53.5788046  96.1954307  31.3400102
  68.4020376  15.5129564  28.2542300  68.7220907  16.3028800  27.8185511
  67.9911709  15.0038230  27.5555134  85.5415045 108.5788446  69.7049475
  86.3871561 108.9639636  69.4751883  85.7393252 107.9775188  70.4229355
  93.9775848  38.7292194  44.5827055  93.4051514  39.4771886  44.4121075
  94.0007401  38.2513404  43.7536526 104.6641922  35.1896954  32.3267436
 104.7197056  35.9796071  31.7889833 103.7372684  35.1201510  32.5552297
 110.4616356  38.9224482  60.4480982 110.9339428  38.0980802  60.5646133
 110.7539082  39.4708991  61.1761189  11.5167675  49.0117359   8.0603749
  12.1913014  49.6828651   8.1643951  11.8087635  48.2902908   8.6175913
  59.0383053   1.0531899  76.5233517  59.7710562   0.4373149  76.5213156
  58.2634306   0.5039072  76.4046621  77.5619208 104.0443950  24.0059638
  76.6400706 104.0797322  23.7506843  77.9231917 104.8818176  23.7153745
  83.8759518  58.4316254  77.5933981  84.6718788  58.8020706  77.9748583
  83.4369659  59.1773224  77.1841812  74.2580891  18.9202464  65.7852650
  74.5445108  19.1586173  64.9035788  73.5664368  19.5492637  65.9906578
  82.4811459  19.3446815  26.0516739  82.1975899  19.0021563  25.2040267
  82.3725033  20.2926350  25.9754229  90.4610825  27.8029299  25.3742361
  91.1287308  27.5034642  25.9913158  90.7633686  27.4874854  24.5225620
  78.3359051  31.0690260  41.4336586  78.4235573  30.4054070  42.1178770
  78.2175159  30.5672956  40.6271315 114.9008942  18.1466019  58.7825012
 114.5705700  19.0249360  58.5936975 114.2185402  17.7445066  59.3200302
  80.3092766  10.5626822  72.6085520  79.4424486  10.1579428  72.5765610
  80.3005314  11.2040210  71.8980312  70.2100086  19.9718356  37.8244591
  70.9620857  20.2705860  37.3132253  69.4487476  20.2424192  37.3111367
  66.7190825  13.4871049  88.6645359  66.5905272  14.2623658  89.2110526
  67.5800120  13.6149735  88.2661783  91.9036388  26.7441797  66.9752407
  91.0727882  26.5995979  66.5224504  91.6534138  26.9402528  67.8781128
 101.4292622  65.8279324  75.0883532 101.0574341  66.6713858  74.8303652
 101.6038609  65.9195852  76.0250187  54.7035599  21.0743356  29.5072103
  54.5359373  21.3452339  28.6045766  55.0674772  21.8535471  29.9274802
  17.4946747  51.6891527  53.6418104  17.7323113  50.8549881  54.0466928
  17.5345383  51.5185928  52.7007723  80.0041485  18.6654103  77.0456648
  79.9698162  19.2172527  76.2643051  79.7406149  19.2452681  77.7601910
  37.9491018  87.7518992   3.2304019  37.5380587  87.0167141   3.6851233
  38.8746618  87.6926928   3.4671706  61.6445910  99.3802213  92.6029110
  61.8723570  98.5206198  92.9570866  62.4796282  99.7500920  92.3162937
  86.3705444  20.8006287  54.2802620  85.7236290  21.2078786  54.8563528
  86.9017029  21.5308189  53.9625740  50.0892912 104.0760308  10.0999689
  49.8004710 104.8701977   9.6504003  49.7032439 104.1414052  10.9734249
  47.1933352  91.6498720  39.1574287  46.7013060  91.5282964  38.3454204
  48.0305182  92.0196986  38.8771105  99.3419647  48.2283926  57.0715714
  98.9255142  49.0462017  56.7995501 100.2717400  48.3597469  56.8858528
 105.1369476  32.1038246  46.9462204 105.4859829  31.8476272  47.7999020
 104.4903851  31.4289498  46.7394829  95.9985733  39.4946885  42.0892191
  96.4032364  39.6849060  42.9355621  96.7353725  39.4205117  41.4827156
  79.7518587  17.9179084  50.7843542  80.3084469  18.6726594  50.9761620
  80.2589607  17.1637881  51.0849857  96.1156654  21.7108679  32.8184438
  95.7425785  22.3948669  33.3744836  95.8800125  21.9710636  31.9279408
  10.0986252  26.3219333  25.8735871   9.6362362  25.9574842  25.1188660
   9.4230900  26.7880368  26.3661575  79.6999728  97.8504216  50.7061577
  80.1944910  97.6484262  49.9118757  78.8087546  97.5587332  50.5141020
  91.5413094  11.9922554  68.6440468  91.3303947  11.6181076  69.4994783
  90.7735634  12.5164855  68.4160376  79.6683455   3.7754357  76.9411182
  80.0153255   3.1517652  76.3032532  79.1425467   3.2414469  77.5366211
  97.5392151  26.4583158  43.6693239  97.5571156  25.7771087  42.9971170
  96.7703915  26.9865561  43.4545946  87.3854446  38.4687090  49.5668602
  86.9286728  38.3106112  48.7406635  87.6798058  39.3775988  49.5076847
  83.0190646  71.6168427  48.1694412  83.3479201  70.7772779  48.4907055
  82.1479403  71.6973376  48.5579014  63.2493388  99.8846870  63.0179930
  63.6932265 100.0101458  62.1792650  63.9325606  99.5595526  63.6042786
  13.8320217   9.4244838  15.7807004  12.9379521   9.5003510  16.1140442
  13.7515984   9.5855415  14.8405814 112.4844646   4.2369586  71.8701696
 112.9126263   3.7197509  71.1879635 112.5840855   5.1440060  71.5810776
  30.9885190  93.0369491  81.5242475  30.2359650  93.6159748  81.4032882
  31.6948483  93.6179919  81.8065935  29.8699986 105.7927584  77.7845955
  29.4759499 106.3273966  77.0953035  29.9965750 106.3986155  78.5147619
 113.2070827  23.9101791  65.2394629 113.4641838  23.3235693  65.9508181
 113.1062794  23.3360910  64.4801950  15.9308110  24.5906973  36.6843605
  16.6536770  24.0276814  36.9613171  15.3655301  24.6509457  37.4544621
 106.6762543  34.1941118  12.1477365 106.9759274  34.8525190  11.5208960
 107.3045826  34.2456460  12.8679943   3.5845242  43.7155294  39.2601943
   4.0249501  43.2731676  39.9858451   3.0796395  43.0254221  38.8299942
  91.9970322  46.8706799  32.5052118  91.6106224  47.1875477  31.6888046
  91.8683910  47.5883198  33.1254387   8.0178795  13.6490989  45.9069872
   7.9215680  13.9249110  46.8185139   8.7299691  13.0096769  45.9241915
 115.1224899  52.9222727  41.0407305 114.3073368  52.5320482  40.7253170
 115.7724285  52.6874590  40.3783989 102.3644066  11.0017121  41.4315510
 103.2262897  11.4002538  41.3109636 102.5093651  10.3074622  42.0743847
  81.8298721  27.6869702  45.8644438  82.1349430  28.0279636  45.0236797
  82.4578667  28.0258298  46.5024281 106.0689831   4.7988138  46.4625502
 105.9067059   3.8690811  46.6222143 105.6015396   5.2479422  47.1668291
  91.9132900   7.8461909  56.0163355  92.1044827   6.9472647  56.2839317
  92.5684738   8.3758372  56.4706945  95.7950306  23.3468580  45.4212236
  95.2480602  22.5712490  45.5456686  95.2362156  24.0785480  45.6831217
   1.6110859  17.9764557  52.9942465   1.0057125  18.0151391  53.7346935
   1.9285736  18.8742483  52.8972912 105.3617573  47.6472330  87.4768543
 106.1021042  47.4646235  88.0554485 105.7079506  47.5115681  86.5948296
  88.4904861  48.0075932  28.1105614  88.2319927  48.4865618  28.8979626
  88.2412624  48.5831499  27.3874760  15.8992062   1.2101149  70.9266663
  15.9319458   1.1844738  71.8829632  15.7194386   0.3059898  70.6688404
  89.3915081  29.4449019  76.9832277  89.6345425  30.2892780  76.6034937
  89.1327190  28.9102983  76.2325859 108.5379982  43.4257746  40.9620333
 109.2126083  42.8968334  40.5361891 107.7446461  42.8932524  40.9050369
  85.1690292  23.7653089  77.3668814  84.4063854  24.2233419  77.7201557
  85.2162838  24.0478802  76.4535618  86.3787937   1.7116787  19.0991998
  87.0466423   2.1837597  18.6018455  86.8201828   0.9167118  19.3982697
  98.3517075  12.3691976   1.9498348  97.9508495  12.6560032   2.7703789
  97.6436043  11.9312298   1.4775969  74.4673430 105.2070256  56.4533758
  75.3280913 104.8810609  56.1905384  74.2848002 105.9209528  55.8424616
  52.7235304  69.3516588  73.5986185  53.2415663  69.1428708  72.8212595
  52.0644366  68.6587858  73.6404133  78.8239002  50.7969666  43.1256485
  78.4307575  49.9728966  43.4130144  79.1725254  51.1881828  43.9266729
  86.2519550   4.1662329  30.4438591  87.1943283   4.1015369  30.2889848
  86.1572933   4.9117523  31.0367084  82.4023819  23.3784389  56.0324383
  82.9125023  23.9910507  55.5026054  82.1822071  23.8712406  56.8229485
 100.2666855  35.6631732  27.1808863 100.3990459  36.4763165  27.6682329
 100.2063560  34.9867535  27.8554583 110.1804447  38.3215427  29.3074393
 109.3561077  37.8584433  29.4565606 110.8576393  37.6841354  29.5340443
  14.0487919  35.0515103  68.1039333  13.4114991  34.5378995  67.6076460
  14.1316853  35.8691740  67.6132298  90.6394100   6.5786207  29.4874525
  91.0022545   7.4177116  29.2037296  91.4059162   6.0435593  29.6933699
  65.4071140  11.5691495   6.1126375  66.2693739  11.5732503   5.6970352
  65.5870485  11.7285502   7.0391613  46.5426121  35.6288362  84.5397854
  46.8192349  35.9387970  83.6774445  47.3513661  35.5871654  85.0500965
 105.5330050  74.7644693  90.7739356 106.0277378  74.2936737  90.1032457
 106.0000097  74.5809383  91.5890771  86.7807375  99.8943799  79.4657183
  86.1893641  99.2350685  79.8287868  87.6074301  99.7549712  79.9276495
  13.2636521  62.8685964  88.5710090  13.0522702  61.9424892  88.6888069
  12.9805634  63.2843507  89.3854069  71.7953253  20.9940243  60.6005669
  72.1098042  21.7834163  60.1598883  72.0947695  20.2742457  60.0451517
  73.8786459  23.2869983  30.2772737  73.5319042  24.1765904  30.3453064
  73.1135941  22.7460527  30.0815606  86.2612820  29.0065575  73.3379698
  86.4809036  28.9826488  72.4066114  86.1777401  29.9383473  73.5405111
 102.4944687  37.8196216  51.5466404 103.1220245  37.1066785  51.6654968
 101.6528320  37.3801303  51.4253426  91.9355106  24.1677999  44.8505211
  92.1760082  23.2900572  44.5539427  90.9816837  24.1933560  44.7744465
  78.1310463  45.5023575  14.3010819  78.4961367  45.2948236  13.4409237
  77.5787497  46.2690544  14.1482127  61.8405390  20.1030469  51.3269472
  61.2102985  20.2476501  52.0327234  62.6267624  19.7835195  51.7696571
 106.4146328  14.6996987  54.5241785 107.0266628  15.0510287  53.8774872
 106.6069889  13.7624240  54.5515394   6.7793618   1.2062216  70.0538063
   5.8268128   1.1225703  70.0972462   7.0908032   0.3158937  69.8908520
  89.7087955  17.9023290  73.6167002  90.5063915  18.2689536  73.9983416
  89.4806480  17.1731329  74.1932869   8.5270844  12.7274752  38.9260101
   8.3735810  11.7910564  38.8003564   8.9379654  13.0143797  38.1104755
  74.2145443  25.2004623  58.2722902  73.8558674  26.0398841  57.9842758
  75.0561619  25.1322722  57.8214455  66.1949158  30.5052853  41.9758081
  66.4106035  29.6561551  42.3614120  65.2519226  30.5975008  42.1117830
  33.9939473  93.3394927  94.6026999  34.7991631  93.4304327  94.0931983
  34.2924855  93.2396645  95.5066589  15.3132592  32.2929525  42.8962278
  15.3772126  31.9066906  42.0227623  15.6792317  33.1718278  42.7968407
  86.1115456   2.2802971  66.3062906  86.7220306   2.7439842  66.8794727
  85.4578114   2.9384151  66.0701942  89.1421890  30.0421977  52.5629139
  89.7596455  30.0120020  53.2937145  89.5367813  30.6536317  51.9410801
 110.4237270  52.7322340  18.4115684 110.8512020  53.4450865  17.9368711
 109.5017815  52.9871416  18.4470940  87.7169228  25.9557486  11.5968502
  86.8806934  26.4212656  11.5810180  88.1260681  26.1697078  10.7583666
  81.1365032   4.8620623  40.2876520  81.8297672   5.5141425  40.3896999
  81.6018105   4.0400463  40.1326752  19.4732247  39.2732096  31.3291383
  20.0741444  38.5295391  31.2835526  20.0228749  40.0091267  31.5984654
  90.8659840  20.6468940  50.2930021  91.5080738  20.2719092  49.6902275
  90.6929874  21.5216136  49.9449062  53.7216746 103.5998487  20.4530215
  53.5417067 103.0321526  19.7036445  53.0094801 103.4195077  21.0666108
 113.4022236  45.6409836  33.6919737 112.7753258  45.6592512  32.9688644
 112.8650570  45.7451439  34.4773579  79.2051493  96.0231995  59.0747881
  78.8612925  96.0497307  59.9676991  78.8066565  95.2437007  58.6877298
  74.8716927   2.3082872  48.9882803  74.9393845   1.3975579  48.7015390
  75.5119801   2.7763397  48.4523821 110.9890366  25.2381873  18.1966984
 110.9302425  24.6287417  17.4609339 110.5057144  26.0116625  17.9062343
  88.9672661  51.4129496  32.5611877  89.3648243  50.7116508  32.0450974
  88.1309319  51.5843296  32.1282697  80.9262180  46.0241890  51.9975662
  81.7758465  45.7032204  51.6953516  80.8928871  46.9325972  51.6977024
 114.3017292  64.5306015  63.3481836 114.6672440  64.0761137  64.1071749
 113.6379051  65.1143408  63.7153530  96.1147022  69.2442369  57.9569912
  95.7475853  69.2069864  58.8402033  96.7964458  68.5723448  57.9524517
  93.6754608  53.4766102  34.1027784  93.9099979  52.7117014  34.6282673
  94.0568542  54.2171907  34.5742798  34.0064560   3.4869189  72.9564601
  33.1042038   3.5178418  73.2746106  34.4843231   3.0130048  73.6371094
  61.8491602  38.7743926  50.7424259  61.9128609  37.8197694  50.7718945
  61.8429422  38.9853144  49.8087740 101.2769794  44.6356964  48.7343550
 100.8777618  45.0578165  49.4950628 101.2674427  45.3091860  48.0542469
 108.9578533  49.8377609  38.7123871 108.4753036  49.9425316  37.8923845
 108.9806938  50.7166767  39.0908265 116.0202789  59.3617058  37.0179367
 115.7502365  60.2618313  36.8360639 115.9961319  58.9274740  36.1652398
  90.5817318  47.7099180  65.5494356  89.6913338  47.9606771  65.3033781
  90.8327293  48.3450317  66.2201548 115.1615620  14.9257970  16.8397903
 115.0624752  15.7411456  17.3313379 115.7426548  14.3898451  17.3795307
 108.1493950  50.9267759  54.3323708 109.0488243  50.7075834  54.0890360
 107.8136539  50.1329088  54.7486448  90.8472157  32.2307777  51.8145418
  90.7573318  32.9199195  52.4727488  91.7621708  32.2816157  51.5379524
 104.0194130  34.5275331  12.1296632 104.9736691  34.4909692  12.1951330
 103.7259293  34.7292757  13.0181456  26.1062489  36.9105005  27.6829457
  26.3525925  37.6636124  27.1459460  26.8917809  36.3639379  27.7037096
 108.8628769   3.8986093  17.6465642 108.1141376   3.4173638  17.2943747
 109.6053791   3.6069259  17.1175694  81.1178112  27.6402950  50.1061440
  80.4157734  27.5810003  50.7541084  81.0667515  28.5384750  49.7791958
  99.7190762   0.3372061  73.0807781 100.3020573  -0.1045015  73.6982393
 100.1539326   1.1692444  72.8941154  81.3228989  49.9368620  42.5670004
  80.4277611  50.2055979  42.7737284  81.2927914  48.9801455  42.5713015
 107.5570107  48.4727955  52.1970224 107.8569031  48.9888334  51.4486933
 108.3608818  48.2185268  52.6501989  86.3427067  44.6065903   4.5714539
  86.6076183  44.5409632   3.6539862  85.9241962  45.4647875   4.6391064
  94.3981743   6.5388680  46.9372082  93.8959503   6.1705095  47.6640654
  95.2940083   6.2371892  47.0878887 101.6232872   8.4110528  38.0339742
 102.3619556   8.9120150  37.6880884 101.6732979   7.5682586  37.5829434
  18.1330738  32.0727706  47.0245790  18.2387886  32.9298401  47.4374819
  17.3984108  31.6720390  47.4892330 107.9421711   0.6271030  20.3061676
 107.7083015  -0.2878917  20.4621172 108.4786129   0.6054832  19.5137060
  16.3935147  43.1794548  48.3424568  16.9778691  43.3018970  47.5942802
  16.5536843  42.2795773  48.6267138 110.0862789  40.1248884  22.6591015
 109.2277050  40.4257011  22.9567409 109.8916531  39.4362640  22.0233774
  12.9548798  24.8398328  36.4443016  13.5548935  24.4923639  35.7843900
  13.3963356  24.6783233  37.2781301 100.4970169  14.7615933  38.1452155
 100.7494450  15.4856861  38.7181044 101.2903690  14.2321336  38.0646610
  12.7656517  41.3093662  52.5766897  13.5310612  41.8788910  52.4990749
  12.8690300  40.6716299  51.8704033  92.3301220  28.5323071  61.8611860
  91.9464397  28.3212352  62.7123404  92.5282288  29.4673491  61.9130087
  96.0634327  32.5170040  54.1530895  95.9557438  32.1123219  53.2923508
  96.8260860  33.0872273  54.0559340  13.2883606  23.0428290  64.8135710
  14.2313538  23.1942058  64.7497225  13.1089459  22.3692727  64.1575480
  95.4358006  33.0378270  37.3748636  95.0403690  32.3428798  37.9010868
  95.9788132  32.5753689  36.7365050  79.5094728  54.1654348  45.8344793
  78.5996723  54.3902302  46.0293055  79.9255562  55.0037241  45.6335258
  91.1305987 108.5673141  24.6804023  90.1774489 108.5653739  24.5924091
  91.3752734 107.6422376  24.6559119  96.0517120  56.5228033  67.5215101
  95.6413078  57.2268200  68.0236721  96.5331173  56.9729328  66.8273497
  70.1751757  72.9763412  35.5707765  70.0737906  73.2380247  34.6556401
  70.6597471  72.1517754  35.5318284  85.5104637  30.7400918  61.4755583
  86.1616421  31.1881781  62.0153761  85.6100559  29.8146534  61.6988945
  64.8722553  48.0399561  43.1532669  64.6582603  48.3524370  44.0323544
  64.7875929  48.8140917  42.5966883  88.0787182  28.3549118  29.1484404
  88.3119392  29.0722322  28.5591292  88.8283730  27.7608895  29.1110945
 112.3834324  26.3485265  25.4647899 113.2268143  26.8012190  25.4639339
 112.4739265  25.6747556  26.1386395  97.4952316  19.0484166  70.4432154
  97.4252129  18.8990676  71.3860989  97.7072716  18.1887186  70.0796366
 102.1170521  30.5252314  78.8548374 101.7327499  29.6604109  78.7111998
 102.7324390  30.3969741  79.5766926  87.0909595  19.7196591  59.5353937
  86.1644745  19.5574176  59.7129440  87.1125603  20.6007409  59.1619539
 115.1130104  55.7997465  42.1778011 115.6949329  55.2948046  41.6097927
 114.4953537  55.1546288  42.5221157  37.3335514  26.4058876  44.7185516
  37.2683583  27.1598148  44.1323996  37.4905644  25.6626201  44.1362047
  86.5529156  46.4497519  54.2472887  86.5061855  45.6940937  54.8329782
  86.6598892  47.1998692  54.8321962  86.6081047  88.5764313  28.6459970
  85.7046986  88.7074280  28.9339733  86.5464783  88.4931850  27.6944184
  31.3571583 109.1318810  45.5106878  30.7842528 108.4342679  45.8290386
  30.8018147 109.9114329  45.4994011  76.7303085  23.7654662  53.7171030
  76.9154549  24.4448829  53.0687618  76.3928270  23.0308795  53.2045364
  91.1532402  43.5237360  51.6005611  90.4103088  43.8312817  51.0812283
  91.1614132  44.0949535  52.3685932  15.1371537  52.4401760  46.8855810
  15.3157769  53.3664083  47.0481205  14.3910179  52.4417686  46.2859821
  72.4182367  37.0705414  49.4180965  71.9523048  37.2261930  48.5965633
  71.8130684  36.5443301  49.9406862  90.2098179  40.6190205  49.6593857
  90.3200626  41.3775015  49.0859890  91.0852623  40.2371025  49.7223425
 115.0355053  13.5256612  36.3268256 115.3136063  13.4519422  35.4138875
 114.5316696  14.3389022  36.3588071  76.3746738  27.8172803  49.5445824
  75.8646917  28.0207825  50.3286362  76.9533682  28.5715032  49.4328260
  88.6957741  47.9259157  15.6460702  88.8331127  48.7907267  16.0326827
  87.7589130  47.7616072  15.7534313  87.0162106  30.6389260  44.8614550
  87.3408890  31.2508631  44.2008877  86.0675430  30.6302953  44.7342396
 115.7275677  54.0496588  50.9758329 115.2603531  53.9743996  51.8078613
 116.3575935  54.7561312  51.1179638  94.5631695  23.6212373  50.2755117
  94.1550922  24.3387079  49.7907972  94.1899967  23.6834669  51.1547756
 102.5358868  15.3305495  43.9061832 102.2234058  15.0633538  44.7705841
 102.0942497  14.7377706  43.2980728  84.5937824  16.4182818  38.7000775
  84.0480518  16.9785428  39.2519116  85.1508904  17.0281351  38.2163978
   2.0291958  67.4732065  11.4119911   1.7485485  67.9544830  10.6336319
   2.8183709  67.0080566  11.1343741  75.9912478 106.2398296  26.3091850
  76.7502581 106.1545342  25.7322478  76.3626086 106.2678995  27.1909642
 108.9284515  43.7516165  13.6679828 108.0886364  43.9317751  14.0904629
 108.9382458  44.3239021  12.9007614   6.0802040  50.0435591  57.5027990
   5.2803192  50.5143356  57.2687531   6.6513501  50.1487064  56.7418957
  63.7773609   8.8577002  32.8900957  63.0581570   8.2309335  32.9684711
  64.4688940   8.4995532  33.4466410  94.6659660  47.6968718  66.8689299
  95.1782799  46.9093847  67.0523310  94.6822262  48.1896544  67.6893759
 101.5902138  34.2234159  35.7648873 100.6451797  34.3747306  35.7805920
 101.9027042  34.5733380  36.5992332   1.7721711  57.2520399  15.9335053
   1.0302697  56.7544317  15.5897105   2.5132618  56.6491795  15.8736813
  79.4138670  48.7492275  50.6253147  79.0122509  49.5819044  50.3771496
  79.1677237  48.1461477  49.9239349 107.3571110  50.1474667  42.5224161
 106.8550491  49.4400358  42.1178150 107.0995808  50.9315920  42.0375919
  93.3994961  59.4233513  22.6569891  94.2335987  59.2009830  23.0705881
  93.6277771  59.6212435  21.7487144 106.5677547  29.3801260  31.1058927
 105.7021618  28.9720392  31.0845923 106.9402790  29.1079736  31.9445753
 103.1212902  10.3130329  19.3992960 103.9523792   9.9654919  19.7229278
 102.4682045   9.6717113  19.6793258  89.6967697  34.2804360  43.8804293
  88.8600826  34.4616199  43.4522200  89.6008587  34.6483397  44.7588825
  49.6630274 103.9955931  82.0888042  50.2206789 103.4040015  81.5835571
  49.2131888 104.5229071  81.4286423  94.8184109  44.4146824  61.1371708
  94.3214321  44.8950768  61.7993450  94.9415493  43.5439157  61.5150976
  71.4756966  25.5037093  39.9474573  71.4741039  25.2137327  39.0352392
  71.9716978  24.8297191  40.4121637  84.9547958  22.0631242  56.0522318
  85.5191135  22.3246002  56.7798376  84.2091274  22.6613498  56.1004877
  73.8235474  45.5499268  39.6872306  74.3142605  44.7551680  39.4779754
  74.4955730  46.2188864  39.8180366  11.4058838  36.4940596  16.8293560
  11.2376843  35.9876513  16.0346913  10.6092034  36.3937640  17.3503911
 101.3093662  68.6564827  75.0212097 101.3884926  69.1865635  74.2281246
 100.4955387  68.9539671  75.4279232  96.6398716  36.0741377  26.7687631
  97.4913597  35.7593989  26.4652419  96.1205196  35.2794552  26.8911791
  84.2819023  24.4957781  47.8054523  84.1184330  24.5358062  46.8631649
  84.1897202  25.4008102  48.1031942  95.2637196  33.2159090  61.7325306
  94.9646282  33.1160045  62.6362991  94.7129059  33.9115548  61.3734722
  96.7208195  36.1988020  39.7153163  96.5822792  35.6356072  40.4767942
  95.8451557  36.5084982  39.4839787 106.8948746  23.6431575  37.4432850
 107.0877266  24.2417049  36.7216325 107.3394012  22.8296161  37.2050095
 100.2863979  38.4456849  40.8226395 100.1916885  37.7895474  41.5131044
 100.8747673  38.0400419  40.1858377  98.7339592  41.1560726  18.5526741
  98.0059528  41.7504883  18.3712459  99.2377758  41.1390734  17.7389753
  87.7987766  58.7906837  68.9926720  88.5267353  58.1694078  69.0103054
  87.0533466  58.2959223  69.3329477 116.0153103  64.7132444  48.4393024
 115.7270241  64.5807600  49.3423891 116.2488174  63.8374805  48.1315041
  79.6049500  36.3230968  21.7589355  79.5208406  36.0417676  22.6699853
  79.3231869  37.2378755  21.7637587 106.7136765  44.4023418  30.4518223
 106.3546658  45.2621365  30.6711507 107.3559952  44.2283869  31.1398578
   5.2143441  40.9788609  31.0454082   5.6551896  41.0482216  30.1986074
   4.6220456  41.7304182  31.0693502  94.0128422  31.1094403  38.9484024
  93.3543777  30.8943987  39.6090102  94.5955563  30.3501654  38.9350224
  98.2980824  70.1958513  12.9445112  97.9074192  71.0507774  13.1253970
  99.0771580  70.3936577  12.4247563  25.6147919  10.0087500   2.5091422
  26.4897881  10.2077162   2.1759228  25.1542244   9.6288824   1.7609397
   7.9026566  61.0426807  68.5521746   7.2824154  61.6868305  68.8936424
   7.3541699  60.3184271  68.2507610  93.3687115   3.6068857  18.3729219
  93.4542465   2.9914343  19.1010249  92.4573612   3.5214910  18.0929339
 105.0976562  36.5307474  63.5580730 105.3605747  35.6410527  63.3223867
 105.9228611  37.0031548  63.6680651  92.7402197 101.5547036  53.9726782
  92.2978674 100.8580148  53.4877253  93.4378039 101.1073803  54.4517517
  76.5369511  40.5858183  42.1550369  76.4575863  40.5711126  43.1088257
  76.8284178  39.7034907  41.9253111 105.6475163  48.7958145  40.8055019
 105.1042461  48.2364368  41.3606501 105.0225353  49.3566227  40.3460121
  99.7204304   9.7330397  17.1381283 100.0260830   9.1705871  16.4264703
  98.8712978  10.0579739  16.8387759 110.6504631  20.3400254  20.6661582
 111.0130882  21.0342097  20.1158500 109.7052383  20.3908825  20.5240536
 115.1295185  62.1425772  36.8878031 115.2697182  63.0180120  36.5269899
 114.1939163  61.9806194  36.7667150  88.8459396  54.8517513  56.9001913
  87.9955196  55.1634407  57.2098303  88.6333752  54.1830444  56.2491274
  81.2402630  45.7871389  45.0286722  81.5889168  46.4261293  44.4070911
  80.5216217  45.3637028  44.5591068  25.9628939  79.6261363   1.2884635
  25.7704519  79.6353083   0.3508586  26.9035887  79.7949247   1.3415641
 112.3174953  22.7624464  89.6893501 113.0996132  22.5540709  90.2003384
 112.6422024  23.2874370  88.9577866  30.7228718  32.5002027  37.8067636
  31.2029610  31.8909693  37.2458839  30.5147229  31.9911981  38.5902309
  91.2048435   9.1871530  87.7410126  90.5724812   8.7714159  87.1549129
  92.0549870   9.0178651  87.3350048 116.4624214  42.6536608  28.7269735
 115.7870960  43.3069181  28.5441732 116.4164543  42.0481396  27.9870629
 105.0787926  25.7195711  80.5959225 104.8314476  26.1089849  81.4346123
 105.6508732  26.3703227  80.1891327   4.4709549  38.9631486  35.1990891
   4.5521412  39.8532844  35.5415797   4.3309079  39.0799165  34.2594147
  84.4424534  45.8183956  33.8102889  84.5380974  44.9833584  33.3522534
  85.0785637  45.7742262  34.5241785 115.8511448  30.9877324  34.0976024
 115.2540112  30.6175470  33.4474993 115.4624462  30.7538176  34.9404740
   5.8995209  29.3218637  20.0393534   5.0925122  29.7887731  20.2560663
   5.9340725  28.5995078  20.6664419  93.2624054  33.5001636  71.5364456
  93.2575321  32.5450850  71.4729261  93.7059116  33.7909365  70.7395840
  81.5267467  44.8278856  47.5518322  81.3090515  45.2490520  46.7202854
  80.7033062  44.8214293  48.0398321  15.5486641  58.3141375  57.7167511
  16.2837944  58.5509062  57.1512842  15.6109391  58.9186716  58.4562731
  87.5296593  25.8836126  58.6280584  87.9060078  26.3684750  57.8935480
  86.8648338  26.4710999  58.9873600  73.1558037  63.7879467  55.4899263
  72.3536301  63.3315897  55.2359724  73.2383776  64.4988680  54.8543167
  72.4470377  19.5450974  32.7461290  73.0265999  18.7837040  32.7212262
  72.4378443  19.8686695  31.8453240 101.4551926  14.3834460  34.8838878
 101.0788345  14.1508806  34.0350652 101.2330341  15.3073204  34.9993563
   0.9853516  55.9014988  25.1014829   1.4265786  56.6751432  25.4522300
   0.6873761  55.4240656  25.8757591  81.9250584  37.6621890  56.5420055
  81.6715145  38.5083222  56.9107914  82.0119286  37.0862126  57.3015738
  82.3928356  22.0075893  25.3981113  82.4269772  22.9390383  25.1802325
  82.6616573  21.5634894  24.5939064 107.7256012  62.0009327  52.3238564
 108.1364536  62.8313351  52.0833015 106.8509960  62.2452450  52.6265383
 101.4598751  47.7893734  29.2510247 102.3290539  47.3886490  29.2374301
 101.5284824  48.5306931  28.6493802 100.8557510  44.0732908  17.0273316
 100.0536060  43.7663269  16.6047442 100.6675434  44.9803734  17.2681892
  82.3038197  71.1712360  27.4140048  81.8788910  70.4889584  27.9337764
  81.7024422  71.9146776  27.4571419  18.7952862  61.4187288  68.0501747
  18.0946217  60.8545160  68.3772278  18.6018143  62.2799540  68.4204340
  85.8250713   0.8553810  60.4144382  86.6639996   0.6479327  60.8260155
  85.9675121   0.6881575  59.4827843  57.8452860  99.3564116  29.0811276
  57.2398173  99.4696736  28.3484578  58.4874045 100.0578224  28.9718294
 100.6109715  48.5022354  74.1753101 100.5024719  47.5821543  73.9346647
 100.5672550  48.9740896  73.3436394  14.7051487  44.4057894  19.7359383
  13.8697968  44.3780422  20.2024579  15.1185379  45.2164268  20.0329447
 114.2400360  41.1395597  61.6119576 113.9237595  41.2448502  60.7146788
 113.9213753  40.2772427  61.8785954  56.7286955 108.6567134  63.1095505
  57.5943838 108.9962701  63.3365345  56.6571986 108.7951530  62.1651173
  82.7558613  15.6702363  44.8396301  82.7817535  16.4770746  44.3252659
  83.3380508  15.8395994  45.5803156 115.4661179  47.3356056  45.3152037
 115.2900219  48.2764482  45.3084373 114.6507263  46.9415474  45.6251764
  99.1269112  17.1536028  16.5242672  99.2096806  17.7281260  15.7631469
  98.6672592  16.3820553  16.1931026 115.3840542  59.6527243  60.7364225
 116.2789345  59.6066523  60.3998423 115.4404736  60.2446270  61.4865541
   7.8519402  35.7853103  42.8647709   8.2119999  36.6057324  42.5278807
   8.5999451  35.3418875  43.2648849  12.0832882  75.4536295  42.5118971
  11.9140969  75.6283855  43.4376764  11.6283760  74.6298885  42.3366070
  82.0826244  12.6569867  23.2498384  82.5266933  13.0627036  22.5052428
  81.2725353  12.3037362  22.8821230 113.2126713  62.9704952  76.4064026
 112.6749325  62.2830391  76.7994356 113.1326008  63.7106180  77.0080996
 107.2634602  28.8185573  33.9799118 106.7816257  29.2164493  34.7049975
 108.0978203  28.5507846  34.3651152 101.0447121  60.8595419  65.9215832
 100.1189423  60.8045435  65.6846285 101.5113258  60.6091547  65.1242018
  11.2250576  56.1960316  52.1428156  10.8498154  55.6114388  52.8013611
  11.8543969  55.6514978  51.6698980  96.1915302  44.5676088  69.8166466
  96.0975552  44.9288273  68.9352179  96.3155937  45.3334093  70.3773546
  85.5725765  35.9037733  17.7371156  84.7953892  36.1639166  17.2426105
  86.3072777  36.2318349  17.2186279 107.8165054  11.5205884  51.3625431
 106.8723011  11.3688469  51.4036131 108.1118393  10.9929037  50.6205463
  19.4346009  22.4595237  46.2082529  19.0847359  23.2922864  46.5249968
  19.8158131  22.0491481  46.9844627  98.8737392  32.5137854  19.5197570
  98.9612007  31.7617583  18.9340615  99.6188831  33.0741382  19.3029678
 113.5347080  51.1397791  36.7603350 114.0637589  50.6491804  36.1313343
 113.1256104  50.4674244  37.3051381  70.3958082  26.1158085  31.9478059
  69.8301172  25.4964137  31.4867496  69.8172665  26.8426824  32.1783972
  89.5848274  36.3759637  48.9831448  89.2640305  35.6617594  49.5338106
  89.1566658  37.1579432  49.3315935  96.3981819  17.9208171  40.1687431
  96.8931389  18.7154269  40.3683567  96.3402462  17.4583626  41.0048151
  10.7160530  33.3381128  18.4959483  11.6051255  33.0552292  18.7098503
  10.2850209  33.4358621  19.3449974 115.2840900  56.4360809  60.4717255
 114.7329235  56.9856691  61.0288525 114.7622108  56.2965870  59.6815252
   2.5235234  15.1402152  29.5422101   2.2482548  14.2234898  29.5336533
   2.5277768  15.3803766  30.4687834  14.0898571  56.0002756  62.7156305
  14.3893013  55.6801701  61.8646908  13.9878426  56.9442272  62.5940609
  13.5946713  47.5820160  36.6475987  14.2616997  47.5655174  35.9612775
  12.8478585  47.1198511  36.2669325 113.2992744  29.9930596  18.8524032
 112.8660202  30.8432913  18.9274371 112.7648258  29.4040680  19.3850219
  90.6602001  23.2638097  58.4378052  89.7496700  23.2955265  58.1442690
  91.0774994  22.6287198  57.8557777 110.5550861  20.1068735  17.1026945
 110.9279442  19.6456778  17.8540301 110.0022793  19.4550073  16.6717577
  10.5164585  53.9052248  72.3736572  11.1462269  54.6212196  72.2900867
  11.0568009  53.1205845  72.4663973  90.3565407  29.8618770  41.5334082
  91.1515999  29.4587946  41.1846590  90.6706429  30.4760695  42.1969891
 103.2495117  70.1321459  37.8714299 103.0118847  69.3384647  38.3508492
 103.7543583  70.6490803  38.4992385 101.5324688  43.0594063  23.2107949
 102.1925735  43.7363625  23.0617404 100.8761597  43.4825945  23.7643313
 105.0116634  28.7686348  65.3870153 104.6387577  27.9011536  65.2300358
 105.4224968  28.7003493  66.2488651  10.9420262  49.3923616  32.7972007
  10.9149323  50.0151253  32.0707941  11.3335762  49.8836422  33.5193920
   1.2997589  18.4577644  37.4211955   1.6576920  17.8236115  38.0424547
   0.6822930  18.9762080  37.9371238  14.8402367   2.1982475  35.3206468
  15.2398644   3.0027848  34.9901128  14.0771256   2.4958275  35.8159542
  91.2403202  25.2977896  70.2096224  90.9677696  24.6301651  70.8390856
  90.8956242  24.9911594  69.3709373  11.2110768  59.1194820  62.3828316
  12.1523438  58.9598513  62.4518728  10.8144627  58.4664059  62.9593849
   7.9580651   6.8788093  52.2447300   7.4752102   7.2399747  51.5013361
   7.7888165   7.4912643  52.9606104  84.2064381  17.8029382  53.9967012
  83.9757824  18.2990074  54.7821617  85.1446724  17.6356673  54.0859890
 111.5923500   0.5136638  19.4347119 111.2693882  -0.3839638  19.5133746
 111.7939281   0.7752778  20.3331327 100.6042290  29.0848756  75.5639553
  99.6920013  29.2292690  75.3125095 100.5531502  28.6909938  76.4348602
  77.7520167 107.9313847  51.3846302  78.3190714 107.5453534  50.7170486
  78.3385836 108.1201909  52.1171045   4.3993531  11.1197126  50.3038406
   3.8723812  10.6369805  49.6670485   3.8234101  11.2243140  51.0611868
  99.7504330  40.8591604  35.4072332 100.5458641  40.3311396  35.3385735
  99.4223309  40.9157705  34.5098090   9.9710141  33.9661288  58.3266020
  10.3473530  34.4086790  57.5658464   9.9971829  34.6225595  59.0227652
   5.4486046  59.9172926   8.1308424   5.8954678  60.2674389   7.3601687
   5.8829270  60.3395271   8.8719988  71.9138527  60.9653139  26.1850214
  72.1559620  61.1476183  25.2770686  72.7370691  61.0272884  26.6694856
  22.4344990 107.2253842  84.4714707  21.7471478 106.6652769  84.8321181
  22.0700142 108.1094450  84.5141214  34.6533165  12.6649559  63.5560322
  33.9462052  12.0214617  63.6022806  34.2056618  13.5095596  63.5061979
  99.7875690  33.2083941  65.9015894 100.2415371  32.5637913  66.4443922
 100.4898357  33.7119102  65.4898500  77.2330856  56.7297983   6.9251972
  76.4564419  56.3944530   7.3730868  77.6756668  55.9478045   6.5952808
  97.8592300  83.6493301  47.5682163  97.8537178  83.2635117  48.4441996
  97.0548439  83.3287716  47.1602488 101.2272739  19.5739973  36.9397569
 101.4218330  19.4592261  37.8699207 100.7653236  20.4110551  36.8931913
  85.9025860  10.0378788  65.9038782  85.6571674  10.9548306  65.7805777
  85.0683117   9.5747119  65.9793425 105.2551079  32.9377604  37.9874563
 105.4040718  33.1691313  38.9042473 105.8506870  32.2061825  37.8252435
  24.8101101  42.7876377  60.2587509  25.1416359  42.9572773  59.3769646
  25.2183876  41.9600677  60.5130386  88.7354266  82.7029418  92.6197529
  89.4601904  83.3065128  92.7829933  88.6981283  82.1557187  93.4042168
  98.0941582  29.2990541  44.9558353  98.1865788  28.4519315  44.5198631
  97.7386379  29.8779464  44.2815113  35.4337273  57.4071074  26.6174436
  35.7723484  56.5893841  26.9819880  35.5188046  58.0404186  27.3301196
  88.8583183  34.8031592  46.6701174  88.6033630  34.0640092  47.2222805
  89.3406963  35.3854108  47.2570753  12.6556931  31.7515206  22.1210217
  12.0280991  32.2166371  22.6742172  12.1591053  31.0166049  21.7611217
  19.2444668  24.9286270   2.9333615  18.5596428  25.3719115   2.4326155
  18.9311276  24.0286183   3.0229950  90.9274483  87.0456505  42.0517445
  91.3087654  86.2730598  41.6346979  90.3337669  86.6918850  42.7140284
 103.0409241  13.6206114  57.3383951 103.0445099  12.6707220  57.2203779
 103.1719017  13.7456810  58.2783079  68.7830114  44.5975971  53.9638519
  68.0537891  43.9782906  53.9944315  68.9532280  44.8126459  54.8809195
  92.2540474  10.8768845  59.5517969  92.1863270  10.4998231  60.4289961
  91.3539410  11.1042690  59.3186951  94.1869450  37.9623699  58.6773491
  93.5094929  37.9904771  59.3529940  95.0109482  38.0070662  59.1623735
   6.9895230  31.6373849  52.0977211   6.1774407  31.3917756  52.5409317
   7.0308648  31.0593557  51.3358784  24.3499813  12.1724486  38.1468630
  23.8287411  11.4925277  38.5737729  24.5430718  11.8169212  37.2793698
  72.5268745  12.8793466  39.5562792  72.3578167  13.7707114  39.8614335
  71.8239975  12.7029228  38.9309263  96.1961269  60.4430532  60.1449490
  96.6296005  60.4220915  60.9981155  96.8819904  60.2031040  59.5218563
  18.3196698  53.4216356  86.4524174  17.6590882  53.3539915  87.1418285
  18.8800393  54.1470861  86.7279816  23.3992348  63.1194305  18.2551539
  22.5604592  62.7061462  18.0504942  23.6074219  63.6368704  17.4772418
  71.3425255  37.4354887  22.0384741  71.1928844  38.3636284  21.8584824
  70.5565166  37.1523499  22.5056458  96.9333458  54.9368620  53.5532188
  97.2719479  54.0585279  53.3797169  97.6936722  55.5101824  53.4560394
 100.9056854  40.4495335  22.8721714 100.7992840  40.0407887  23.7311459
 101.2984180  41.3020945  23.0596161  79.4255638  17.2187459  44.3860435
  79.9540138  18.0133772  44.3116236  79.3091536  17.0958817  45.3281593
  87.2438717  11.3988113  51.0861158  87.6972675  11.6037631  51.9038296
  87.9456615  11.2843132  50.4453230  22.5347672  38.6298919  53.2425737
  23.3816395  38.1928849  53.3323860  22.0262871  38.0521584  52.6734495
  99.3718052  52.1463442  37.3285294  99.4176674  51.6899204  36.4884067
 100.2771664  52.1691704  37.6384377   6.5888081  42.6230335  52.7538204
   6.7477570  43.4733248  52.3439741   6.2422810  42.8358603  53.6203432
 109.5354748  69.9821329  54.8118353 108.6607933  69.5937586  54.7937632
 110.0686455  69.3492603  55.2929068   7.8122673  73.3303928  68.2957411
   8.5936795  73.1591940  67.7700853   7.8368721  74.2728043  68.4615374
  98.9433289  40.1525545  51.1977434  99.1422462  39.6249318  51.9712305
  99.6262169  40.8231401  51.1831522 103.1526470  49.5474148  45.9353828
 104.0706444  49.4638109  45.6774616 102.8518295  48.6454630  46.0459280
 107.7875423  66.0058594  28.9125800 107.1749306  65.5978966  28.3006072
 107.6908779  66.9454670  28.7575889  60.4173458   0.9744316   7.0839995
  59.6569240   0.4199844   6.9091338  60.0671757   1.8652349   7.0933360
 109.3917751  23.1432843  48.7253523 110.3395653  23.2760596  48.7423754
 109.0624332  23.6745858  49.4502544  74.2565632  46.1056280  15.0450802
  74.5953035  47.0004463  15.0731182  73.4176779  46.1812353  14.5903409
   8.5214196  61.6558743  58.0487871   9.3931065  61.4208555  58.3668518
   8.1190834  60.8199596  57.8129768  87.8674603   7.0148188  69.0557003
  88.0920696   6.6908407  69.9279499  88.4889317   6.5804183  68.4714890
  93.1867218  47.6827192  64.2623425  92.2467422  47.6647377  64.4421864
  93.5960102  47.5035000  65.1088572 101.8014240  46.7565060  44.2609739
 101.0417938  47.2407293  44.5845795 101.9568062  46.0837555  44.9239159
  98.8517380  53.6687613  25.3338408  97.9676819  53.4802866  25.0189543
  99.1185951  54.4480467  24.8462605  19.1047058  73.6965275  23.4381580
  20.0513134  73.8131618  23.3571434  18.7322865  74.4978285  23.0701184
  96.2972641  27.2982764  24.1379142  96.2579536  27.6467156  25.0285745
  95.6506348  27.8099298  23.6517978  71.8156099  50.8139658  56.1703444
  71.9269705  50.7981443  55.2197790  70.8949471  51.0416126  56.2998867
  18.1131993  56.9306135  44.4674873  18.4544144  56.4097643  43.7404919
  17.1743451  56.9983006  44.2936945  99.3673325  64.5083857  74.2000294
  99.4399452  63.5833406  74.4350910 100.0842190  64.9323702  74.6717739
   2.5698433  46.8602896  85.1507854   2.6427994  45.9897423  84.7595596
   2.9413185  46.7608452  86.0273457  23.9670048  53.1896591  29.4840646
  23.2454834  53.4797287  28.9259362  24.7168980  53.1264257  28.8925481
 104.2274666  29.4550943  61.8798018 104.4131851  30.3877401  61.7706823
 103.7152672  29.4057059  62.6869202  15.7281742   3.3599475  47.1295500
  15.6210289   2.4118385  47.2059679  16.6425381   3.5173881  47.3649120
   8.3650647  38.1701970  28.6035538   7.4249993  38.0089736  28.5228086
   8.4746800  38.5078478  29.4924903  24.0072499  65.7892466  31.0934067
  24.9284420  65.7846212  31.3534498  23.5264264  65.8752394  31.9165993
  66.8935013  67.1971893  48.6830187  67.0666027  67.4769783  49.5818996
  67.4198246  66.4052677  48.5731077  87.6961899  35.0540233  42.0036507
  87.7449322  35.6546283  41.2599277  87.0641899  35.4590583  42.5975847
  32.4813244  88.1592531  90.6527775  32.1796963  88.6583347  89.8937177
  32.4504826  88.7836642  91.3776156  16.0505734  58.1497574  34.0317750
  15.1170788  57.9388380  34.0500402  16.4652596  57.4443769  34.5284677
  12.2663365  54.9183178  40.2432299  11.8720971  55.2457619  41.0516787
  13.1970940  55.1241446  40.3301668  81.9972502  34.5227571  94.7188930
  82.9482256  34.5785279  94.8124659  81.8245779  34.8421998  93.8332417
 107.7627563  28.6523652  19.4990313 107.9568386  29.2488885  18.7760353
 107.9013062  29.1779280  20.2869511  99.7909260  25.6090593  47.9670763
  99.6430206  24.9573135  48.6523390 100.7423687  25.7077384  47.9317331
 110.4007721  31.5034223  67.0398664 109.7954559  32.2254086  67.2088718
 110.2614403  31.2847543  66.1184549  97.0038509  28.5087442  16.6348863
  96.4019966  27.8159404  16.9069564  97.7734852  28.3896208  17.1914065
  76.3234997  75.4318571  71.5242195  75.9697771  76.3199234  71.5736532
  75.5731583  74.8881960  71.2841129 110.2383232  52.0516968  47.9004145
 111.0836029  51.6026020  47.8938627 110.4557991  52.9735518  47.7621698
   7.2073899  31.0274267  64.1425705   7.2313271  31.1173272  63.1899023
   7.8242550  31.6864920  64.4609213  11.9478760  71.3387394  44.6153212
  11.5720139  71.9283342  45.2690315  12.7838288  71.7421198  44.3814373
  92.5780678  21.9211125  29.9922109  92.3924446  21.0460258  30.3327942
  91.7182922  22.2800517  29.7727251 107.7652264  83.9725304  40.6803417
 107.7683258  83.0170250  40.6234837 107.1123219  84.2486191  40.0371313
   2.2907696  40.2039194  58.5812664   1.6619835  40.8589888  58.8841534
   2.0671234  40.0647640  57.6610184   4.6033726  20.8969045  35.3809857
   4.0461693  20.1238680  35.2905774   5.4199944  20.6560111  34.9435854
  21.4353905  66.0137081  29.7189474  22.2356568  65.6388426  30.0867581
  21.1389790  66.6402531  30.3791094  92.4747276  28.1128073  41.4887381
  93.0057526  27.8816152  40.7266426  91.9707012  27.3214722  41.6784239
 112.2310448  54.7767401  49.8726416 112.1093845  54.5656443  48.9469671
 113.0726433  55.2315426  49.9059772  87.5637245  58.5899305  24.8332930
  87.6531982  57.7885151  25.3490019  87.5567245  58.2902479  23.9242435
 105.2270603  26.4424896  35.1372814 106.1279011  26.6296601  35.4012728
 105.2994156  26.1515307  34.2282486 111.5141392  25.5180550  70.3791761
 110.7453918  25.5419731  69.8093653 111.6313076  24.5905089  70.5845118
  22.9735051  93.4753513  45.8418131  22.6701413  94.3523788  46.0763931
  23.6553250  93.2780170  46.4840126 103.6355877  24.2174697  28.3428144
 102.7611160  24.3634462  28.7036896 104.2201042  24.6968222  28.9300084
  38.4896157  94.2725677  95.0225756  39.2189763  93.6581559  95.1047558
  38.8843701  95.0659127  94.6606375  78.9739180  39.1088295  22.6973128
  78.8660431  39.5724893  21.8668842  78.2127953  39.3677378  23.2168221
  31.8163071   9.0734166  72.4313688  31.2826786   8.5211235  71.8600130
  31.3237343   9.1165501  73.2509708  97.6079845  63.9201164  59.5048904
  98.4242821  63.9942598  59.9992418  97.8777218  63.6015749  58.6434937
  84.4195461  47.9794598  49.5901966  84.8551369  47.9758167  50.4425335
  84.9483395  48.5698557  49.0534973  97.4546146  35.6691575  44.2569923
  97.5604916  35.2726936  45.1217699  98.2984924  35.5330944  43.8261890
  86.4872265  27.1740961  36.0694885  87.0594025  27.6888895  36.6385579
  87.0870113  26.6728997  35.5169559 105.9068680  39.0158153  70.2423573
 106.5458107  39.4071031  70.8380795 106.1456585  39.3539429  69.3792963
  83.0687523  57.9664278  52.2618628  83.2805538  58.4134340  51.4423752
  83.5714817  58.4358072  52.9275846 105.2190971  35.5810428  48.2706690
 104.5288372  35.9890151  47.7478552 105.9843445  35.5770016  47.6956844
 106.9060230  11.8101132  26.1723232 107.4465656  11.0862887  25.8559012
 106.0159969  11.5780234  25.9073448  16.7507515  64.2413950  25.6662035
  15.8305893  64.4990730  25.7223248  16.8384323  63.5272932  26.2975526
  70.9113455  33.6724281  21.2663484  70.9433794  32.7300739  21.4311934
  71.2938881  34.0659070  22.0506096  93.1430817  17.1269476   8.2198375
  93.7198067  17.6970410   7.7112913  92.4932098  17.7194130   8.5978264
  36.1192677  97.1132845  89.8712742  35.5087445  97.2627253  89.1493523
  35.7071946  97.5359196  90.6248075 112.2441673  82.5021935  73.2304668
 112.5548935  81.6193295  73.4310532 112.9961205  83.0670261  73.4087086
   7.9062329  83.0853271  74.2678118   8.5824261  82.4137211  74.3569136
   8.2033692  83.6290646  73.5382318  85.7712841  20.4287410  28.1002831
  85.5430984  21.3297892  27.8716373  86.6839504  20.3360820  27.8270054
  14.0315113  74.2827320  61.4110994  13.2802735  74.3058252  60.8183622
  13.9182721  75.0505638  61.9713211  41.7304383  39.3588781  20.5246925
  42.1268521  38.7521768  21.1499977  41.8496380  38.9374280  19.6735752
   2.4836216  36.0200381  56.5290451   2.7896366  36.6173792  57.2115231
   3.0854664  35.2770519  56.5735626  10.1865349  35.0932145  23.1754088
   9.2848168  34.8409104  23.3741069  10.7131157  34.6366143  23.8315010
 103.0692005  45.9566069   9.5931864 103.2662487  46.6868877  10.1797867
 103.7776661  45.9684610   8.9496219 112.0306301  57.0883989  43.8889027
 111.5527153  57.0935106  43.0595589 112.2690201  58.0040741  44.0336037
  99.0546513  24.6484542  29.2844439  99.8670387  24.3283892  28.8922453
  98.3643532  24.3149900  28.7112784  84.8275375  33.1680298  33.6782312
  84.5894814  32.3783255  34.1639543  85.6810760  32.9654789  33.2952428
  15.4761181  56.0120201   6.0953397  16.0341320  56.5049314   6.6969144
  15.2354393  56.6450024   5.4188454  30.6138287  20.5760574  31.4859891
  31.1838875  20.0882268  30.8916140  30.1902256  21.2293673  30.9292293
  91.8345451  49.6920061  23.5162830  91.7632866  49.9921370  22.6101518
  90.9602642  49.3662357  23.7301493 109.8880863  67.7756643  44.0436554
 109.2215061  68.4240580  44.2705727 110.3116989  67.5662565  44.8760843
  93.7190533  50.0804996  32.3801899  94.0315819  50.7790041  31.8051720
  94.4791794  49.8529339  32.9155922  77.0497894  54.7111607  39.1739631
  76.1567116  55.0009108  38.9877033  77.0351028  54.4700527  40.1001835
  92.4758244  72.0200634  92.4111271  92.2882938  72.6343727  91.7014122
  93.1510448  71.4422274  92.0555878 115.2276707  42.5666046  57.1545267
 115.4268646  41.6545153  56.9432306 114.5393753  42.8109741  56.5358448
   0.4462395  66.6428614  46.5744400  -0.0918712  66.0377550  47.0848417
   1.2239514  66.1350250  46.3431311 114.4976139  68.2753468  67.9823923
 115.0829983  69.0285444  68.0615234 113.8953400  68.3614111  68.7213659
  68.2218252  22.2727008  87.9079854  67.4038779  22.5879092  87.5234890
  68.8100516  23.0269427  87.8712302  28.3710251  87.3489571  35.3042221
  28.9138565  86.7653084  34.7742057  28.9224873  88.1163788  35.4565048
  10.7666741  81.9821358  23.8468170  11.3743363  82.7147484  23.9480901
  10.0992546  82.3063755  23.2421255 105.0379562  48.6229753  73.5354280
 104.5994759  47.7761555  73.4525394 104.6700859  49.0062475  74.3316746
 109.2671967  64.0876102  35.5392838 108.9393330  64.7639513  34.9465752
 109.5388031  63.3742046  34.9617743  96.3033676  98.5131359  58.7264109
  97.0508194  99.1059780  58.6483812  95.9031200  98.7414837  59.5653915
  98.0850506   5.8998036  17.7642691  97.3904896   6.4845657  18.0673516
  97.8118515   5.6391263  16.8847013  46.7419195  22.5154495  29.3420506
  46.9511795  23.3719969  29.7145629  47.3223829  21.9070745  29.7994041
  35.4444859  73.5498101  82.3840803  36.3324330  73.4554023  82.0393020
  35.2057240  74.4553811  82.1861726  74.1299915   4.5170489   2.2334427
  74.1175604   4.3852371   3.1814420  73.3085632   4.9704251   2.0438734
  79.6195745   9.0577322  34.2792106  78.6657858   9.1132456  34.2205477
  79.7935390   8.8969469  35.2066350  71.8055617 104.5530879  27.2892427
  72.2798716 105.0180345  27.9785061  72.4725329 104.3534111  26.6323471
  98.6933136  13.2678211  11.7260075  99.4206238  13.2472169  11.1040545
  98.3674431  12.3679638  11.7433655  14.7537861  14.9785852   6.3807482
  15.4496823  14.5223320   5.9076780  14.7915612  14.6195126   7.2672427
  31.9573269  16.7043018  15.8022141  32.2417126  16.6721368  16.7156243
  31.0032616  16.7648447  15.8504009 105.8551884  31.2097740  66.5743065
 105.1921844  30.8883166  65.9633064 105.9592533  30.5012083  67.2093964
  53.5425520  13.5893476  45.6614590  53.8307714  13.8329244  44.7817802
  52.5910139  13.5143006  45.5895329   6.9938527  65.5121994  -0.1022225
   7.5650273  66.0996532  -0.5970924   6.8543492  65.9603357   0.7320105
  65.6439101 107.9217621  17.8060043  66.3520418 107.2783130  17.7786541
  64.8755633 107.4458828  17.4906862  23.8176022  26.9291830  27.4997306
  24.4834195  27.2646475  28.1000566  23.9461956  27.4309778  26.6948104
  37.2889195  15.1010978  33.5613537  37.3596821  15.0177538  32.6104188
  36.7696534  14.3432677  33.8302207  94.4271946  12.8226590  47.2975159
  93.9760971  13.6432910  47.0992565  93.7484169  12.2603226  47.6707029
  99.6918499  87.2897024  58.1236988  99.6754038  88.0827994  57.5880152
  99.5176327  86.5796894  57.5058299  12.8023014  57.2412443  37.3007822
  12.7796898  57.2146606  38.2573438  13.7300263  57.3377657  37.0857239
  27.9533825  14.9346054  46.8706989  27.6108799  15.8282077  46.8906498
  28.2589493  14.8152399  45.9714699  69.2450237  17.0241272  15.6738889
  69.5390749  16.1224020  15.5448258  69.9984550  17.5596464  15.4253066
  41.0589825  99.2648756  49.8301649  41.6551768  98.6833190  49.3583870
  40.5747258  99.7209811  49.1419125  33.5909817  53.0218481  71.1974841
  33.0871937  53.4327758  70.4949409  32.9947732  53.0131952  71.9462830
  88.5449505  27.9827094  47.6105595  89.3679523  28.4206820  47.3936081
  88.0492401  27.9851198  46.7917156   4.5295868   2.6436099  13.7421584
   4.1307316   3.4394938  13.3904266   4.5068703   2.0224619  13.0142224
  87.3816776   9.4041765  63.3525085  86.4367962   9.2520815  63.3355236
  87.4940300  10.1473737  63.9451885  66.2366949 104.8502144  28.4045601
  65.4820906 105.4084572  28.5920882  66.9581496 105.2522083  28.8884425
   1.7409191  19.1036463  47.9333782   2.2079239  18.9552903  47.1111107
   0.8620701  18.7589025  47.7752495  83.8383484   2.4415720  52.9593754
  83.3667183   3.2268083  53.2372189  83.7804604   1.8494989  53.7092590
  95.9547138  49.1168213  33.6759663  95.6796360  48.2229137  33.8796759
  96.9108391  49.0750790  33.6584401  23.4861718  24.6834111  42.8282881
  22.5906334  24.9427199  43.0450869  23.7651406  24.1440678  43.5682297
  45.6391989  85.2829217   9.6865308  45.1230704  84.5398592   9.9991149
  45.7010351  85.8665895  10.4426670  97.6605129  35.2348089  61.6315079
  97.8383636  35.2922535  62.5702858  97.1914577  34.4070053  61.5268135
 115.1258565 101.5355193  11.4250159 114.3658853 102.1162146  11.4633572
 115.1007176 101.0532492  12.2514641 108.7228298  22.2942138  16.5807033
 109.5413208  21.9924927  16.9747508 108.1818676  22.5584483  17.3248613
  72.8821373  17.1179557  12.6118469  71.9500017  16.9179213  12.5261939
  73.2693863  16.3126194  12.9549241  57.0505511 104.8663949  40.8285713
  57.8822027 104.4102668  40.9571266  56.8680750 105.2748274  41.6748095
 100.8834743  28.2095599   1.1011629 101.7458248  28.0545831   0.7157174
 100.9210110  27.7765965   1.9540206  72.2152424  39.0333247  25.7690215
  71.8761349  38.1626177  25.5613971  71.4357758  39.5539641  25.9629250
 113.3045006  10.8140457  27.7288675 114.2145061  10.5599296  27.8822947
 113.2342720  10.8902013  26.7772889  95.0146866   6.4624572  61.8026829
  95.2922058   5.5478019  61.7515326  94.6606350   6.6542476  60.9343004
   1.2155400  35.3268528  25.5150652   2.0839463  34.9502301  25.3727412
   0.6457196  34.8496056  24.9119377   3.1139145  50.9580040  38.5004282
   4.0305386  51.2156963  38.5984778   3.1509838  50.0452518  38.2145166
  81.4167118  21.8352222  49.4088745  80.8493996  22.2146249  50.0800276
  81.0282707  22.1158886  48.5802794  21.6796456   9.9538124  51.5715647
  21.2288723  10.4944992  52.2201729  21.7494450   9.0929580  51.9842243
  77.1222973  31.9412875  31.3512850  77.0989513  32.1954799  30.4287481
  78.0311394  32.0833707  31.6159463  -0.0432052  30.5462933  53.4119081
   0.7823906  30.1635265  53.7087297   0.2153740  31.1965394  52.7588034
  12.2634564  21.7261815  10.3222072  11.6044484  21.0662031  10.5375457
  13.0057774  21.5173483  10.8892787  90.1425552  18.0303645  44.9802399
  89.8987484  17.1574187  44.6724224  89.3946266  18.3170938  45.5042887
 102.1057415  12.2347820  16.2048829 102.5801182  11.4453173  16.4655519
 101.2483692  11.9166517  15.9221542  27.5973187  12.9205883  26.7762876
  28.2425461  13.0431116  27.4726319  27.9540501  13.4043992  26.0313725
   9.9404011  22.5627828  24.6050763   9.5597611  21.7142725  24.8317361
  10.7751332  22.5835228  25.0730681  72.8464018 106.2960219  23.0230999
  72.5131022 107.0716637  22.5719643  72.3371016 106.2523022  23.8323832
   7.2112141  20.4569244  39.0806127   8.0831681  20.5625534  39.4610977
   7.2715817  19.6543145  38.5625339  44.4285857  97.2771918  56.0236883
  43.6827360  97.3535573  55.4286098  45.0290572  96.6785478  55.5795193
  17.6412640  55.7801628  18.1991780  17.3912011  56.1187363  17.3394883
  18.4669552  56.2210798  18.3993292  37.0318947  22.4995065  45.8226156
  36.9411717  22.1857977  44.9228477  37.8267250  23.0327511  45.8113527
  11.7339287  12.4649024  14.0899539  11.6663323  11.6212618  13.6428142
  11.4401970  12.2866666  14.9833691  74.6146475  90.4269921  59.9701405
  74.4791304  90.7427179  60.8635521  73.8372217  90.7172119  59.4930410
  74.8209143  32.5152063  51.4962435  75.1923704  32.8990483  50.7019424
  74.1402674  31.9213390  51.1795855  97.8841305   4.6224612  45.9083080
  97.5900745   5.1101887  46.6776466  97.1983147   4.7671917  45.2564287
   6.7112313  27.5092649  29.5200777   7.6119480  27.2458982  29.7087073
   6.7807827  28.0582285  28.7390304  64.9254118 103.9768218  47.7448225
  65.3007017 104.5951479  48.3717680  64.5374857 104.5294463  47.0663261
  29.0816853  96.8804163  93.6295499  28.9987538  97.8340096  93.6332188
  28.3598302  96.5751070  94.1790421  33.5344086   3.6866185  43.6440325
  33.9748154   4.0900877  42.8960419  34.2469941   3.3921614  44.2112637
  35.2067362 104.8985269   3.9241520  34.4655596 104.9644273   4.5262659
  34.9577318 105.4429742   3.1772882  53.5421740 100.6282901  81.2977886
  54.4570910 100.8699899  81.1538219  53.2614313 100.2469587  80.4659176
  58.2288599  23.6140823  55.9498453  58.9098597  23.4104395  56.5909386
  57.4876356  23.9153028  56.4752817  97.8282629 106.6380995  41.2186289
  97.9994952 106.1398300  42.0177794  97.9617869 106.0081836  40.5103827
  70.0814425   1.1290784  87.1027720  70.8522784   0.5787368  87.2412383
  70.4370390   1.9758792  86.8331295  37.2193502  49.8306142   5.8558101
  37.8863882  50.3458832   6.3094634  37.6249670  48.9730661   5.7280654
  53.1492090  11.1002398  13.7480760  52.7496243  10.5189502  13.1010318
  52.5706482  11.8623209  13.7750554 109.4665909  12.3914611  45.8331585
 109.3792820  11.6450965  45.2402449 109.8969841  13.0658102  45.3075743
  35.5608832 106.8377607  55.6017113  35.8147513 107.1000084  54.7168303
  34.6307980 106.6230952  55.5303431  80.1576328   1.2170640  44.8922443
  79.7091103   1.9878590  44.5444870  79.4763041   0.7342829  45.3601646
  24.6179091 101.8428826  19.3141377  23.9054953 101.3723313  19.7468996
  24.8564135 101.2868404  18.5724068  70.5875956  94.7119772  17.0082235
  70.8880507  94.2847299  17.8103578  70.4623114  93.9944672  16.3871634
 102.6300812  25.9899354  34.7867227 102.3149681  25.1317549  35.0703859
 103.5322475  26.0306859  35.1039886  55.7607638 108.2047442  51.4345503
  55.5575739 107.3606067  51.0315895  55.1956736 108.2440224  52.2061491
  48.3975397 107.9122876  78.1933022  47.8063380 107.5526925  77.5319338
  49.2221342 108.0509815  77.7274275  98.0941963  79.8084974  50.5547047
  98.1172657  79.7659159  49.5987320  97.7976322  78.9397907  50.8260584
   0.2427254  60.7626820  49.9621439   0.5291615  61.3629675  50.6505108
   0.2199993  61.2997866  49.1701651 108.0233669  30.3877306  44.6586752
 108.4722519  29.5985889  44.3553829 107.9121113  30.2532482  45.5998278
  98.9852428   5.9427601  83.8599777  98.8257122   5.6290561  84.7501278
  98.9611053   5.1529431  83.3197498  35.9359703  22.4412274  37.1520495
  36.5879593  22.9366231  37.6477504  35.5335865  23.0880189  36.5724087
 109.8356247   0.2716673  39.3919063 109.5712471  -0.6424776  39.2885923
 110.2801037   0.4865891  38.5718608 109.6408081   7.1620923  30.7258725
 110.4298496   7.5318867  30.3297710 109.9168777   6.3073105  31.0565805
 100.2770138  53.0960417  65.3273630 100.7311821  52.7239084  66.0833359
 100.0162506  53.9719677  65.6119394 113.1057262  26.6620088  40.9272528
 113.5081959  27.1178460  41.6664839 113.4191990  25.7607079  41.0022211
  28.4723912  18.8178539  16.7089939  28.5923634  17.8682435  16.7177570
  27.5229226  18.9393115  16.7079735 105.3708172  21.0216045   9.8334730
 105.7787895  21.8569183  10.0616074 104.4884205  21.2565136   9.5463860
  99.8601341  43.7678194  35.3187943 100.7556629  43.4496164  35.2047181
  99.3141174  42.9883051  35.2165532 108.8337135  29.9442768  36.3494444
 109.5659447  30.3739762  35.9073710 109.2418098  29.2566299  36.8755913
  73.1390905  63.0633688  31.6797209  72.4696255  63.7431431  31.7568994
  73.9186001  63.4483242  32.0802331   3.6538754  24.6326661  31.5173411
   4.1528378  24.6448088  30.7005692   3.6716137  25.5397964  31.8223548
  96.1323261  35.0202990  42.1466637  95.7318687  34.1701150  42.3284531
  96.7613792  35.1455903  42.8571796  89.4388008  12.0912635  40.6220913
  88.5659122  12.2516870  40.2635336  89.3298531  11.3234663  41.1832047
  46.0622666  65.9024829  78.6314946  45.6009171  66.5805466  78.1379145
  46.9891141  66.1146039  78.5210687  85.0261021   4.8087233  34.1916800
  84.1427708   5.0121289  34.4992352  85.6001472   5.3394496  34.7439742
  73.6108671 103.4534632  40.1312256  74.4960772 103.1378209  40.3129148
  73.5025297 104.2086893  40.7092667  51.9460093 107.7884931  17.9602802
  52.3254191 106.9629284  18.2614839  51.7983328 108.2907032  18.7616575
   1.4576493  61.0996819  61.4455605   1.7700062  61.1039162  62.3503542
   1.3986359  62.0251131  61.2082195  -0.0333442  18.0359995  41.3419914
   0.2848587  17.7138484  42.1853113   0.7491932  18.3672857  40.9014130
   0.5717621  40.7759619  75.5180836   0.8113919  40.0218678  76.0567331
  -0.1453437  40.4596186  74.9686050 108.1913567  34.2869878  14.4870520
 108.7445927  33.5365725  14.2701685 108.4628487  34.5374346  15.3701162
 102.1669865  23.3817196  24.5165849 102.0697403  22.9504728  25.3655839
 103.0397606  23.1270671  24.2171717  74.1584539  42.0304108  36.8844843
  74.1059399  42.8590918  37.3606849  73.2726955  41.6706133  36.9314861
  91.4878737  52.4212169  47.8262854  90.5461680  52.5858449  47.8743887
  91.6994749  52.5105714  46.8970537 105.4794216   6.5658635  58.5724258
 105.9941769   6.2877750  57.8148460 105.5093575   7.5221831  58.5443449
  95.7542992  45.9710836  56.3983679  95.7444096  45.4785347  57.2190571
  95.3895569  45.3667068  55.7518959  69.6669006  27.2268271  16.9237161
  69.4729996  28.0696130  17.3340154  69.0562868  27.1721935  16.1885989
  80.9672070  29.3989491   4.3969178  80.8348656  28.7675571   5.1040703
  81.7992687  29.1423583   3.9993319 116.4264297  59.0696716   8.0771005
 116.5650177  59.0557480   7.1300882 115.6209373  59.5734167   8.1939089
   0.4927311  37.3733997  42.4845743   1.0640679  37.8486419  41.8812847
  -0.2753391  37.9364705  42.5807714 109.4819927   3.3441603  27.3170018
 109.9779987   2.8121972  27.9392791 110.0201035   4.1250750  27.1872401
  77.1720934  37.3237705  26.5813994  76.2926531  37.6968026  26.5208793
  77.3188305  36.9166064  25.7276320  40.2006804   1.3890643  77.8449696
  40.1527964   2.3437686  77.8948098  39.5678459   1.1525865  77.1668619
  92.3901844  49.5494318  51.5208912  93.3017159  49.8209810  51.4131832
  91.9497490  50.3230906  51.8726158 108.4910583  42.3108435  29.0218115
 107.7659416  41.7656803  28.7164593 109.1980648  42.1394491  28.3997154
   6.8540726  27.4340820  25.9330106   6.9257126  28.3126044  26.3062334
   6.2286435  27.5292921  25.2146769  61.3832331  32.0180869  33.4522605
  61.0248518  32.9053283  33.4277987  60.6551933  31.4738870  33.7523127
 108.6814785  22.8558922  59.6399307 107.8442574  22.9329205  60.0974798
 108.4736347  22.3733902  58.8397884  81.5767561 108.1828081  24.7986746
  81.4819704 109.0085009  24.3238282  81.1659895 108.3462422  25.6476688
  84.0833855  40.8834648  17.7046490  84.2741108  40.2928066  18.4333301
  84.9318123  41.2627363  17.4753988  18.6662159  12.8615999  11.8379164
  17.9568825  13.1563842  11.2667966  18.4200154  11.9702256  12.0850372
 102.2853374  40.5951834   9.5103520 101.6922855  40.9296608   8.8375604
 102.1811008  41.2009287  10.2441359 111.7638397  49.3146181  37.4709558
 111.0021114  48.7444115  37.5751781 112.4927330  48.7143135  37.3142171
  87.9869461  52.4203682  42.9996204  87.4488544  52.9601765  42.4205780
  88.2122517  53.0004358  43.7269449 111.6312218  46.6779184  26.5320492
 111.8872929  45.9921217  27.1487665 112.4430180  46.9096565  26.0809255
  90.6669222 109.4051912  21.8081713  90.6376444 108.4767944  22.0393729
  91.5984045 109.6253588  21.8186092  89.1901875  67.2570181  54.6320438
  89.9467278  66.6882896  54.7749567  89.5580673  68.0530977  54.2484426
 101.1880112  59.2257977  22.7508330 102.1117878  59.2234278  23.0015612
 101.1525154  58.6845684  21.9621372  94.1198921  15.4196763  63.7577629
  94.2414856  14.6189010  63.2476568  93.4638882  15.9172988  63.2696533
  95.8313274  47.2682095  16.1272049  96.6905308  47.1472502  15.7230210
  95.2662754  46.6365623  15.6822693  50.7521317  81.1485071  81.9088429
  51.3552163  81.7149157  81.4274817  50.6967328  81.5425772  82.7794009
  49.8950455  77.5409169  77.9956001  50.8188317  77.7899761  77.9667610
  49.6281312  77.7149267  78.8982123 100.2414608   2.6199487  33.4277725
  99.4601631   2.5780043  33.9791751 100.3044224   1.7493284  33.0349755
  95.9856796  46.3272333  27.4448490  95.1536942  46.7913866  27.3521590
  96.2971497  46.5659618  28.3179045  20.6658993  26.4091659  24.1696095
  20.1896534  25.9623384  23.4697771  20.0018940  26.5864801  24.8358583
  33.4553681  31.6440511  56.0485888  33.2953892  31.3866663  55.1406288
  32.7230797  32.2206116  56.2666750  71.6772066  95.7055473  57.8898144
  72.4385439  95.6067085  57.3181295  70.9253012  95.6353699  57.3016405
   4.5502148  65.6382608  40.7739782   4.6581612  65.8187437  41.7077875
   3.8845597  64.9513483  40.7381821  87.8901291  21.9637799  41.4055872
  86.9857597  22.1610999  41.6493082  87.8537941  21.0764194  41.0485125
 101.4337444  12.1585989  25.6565785 101.7829323  12.3047864  24.7774172
 101.3467216  11.2077987  25.7246900  12.6667176  27.4538422  37.8092480
  13.0682812  26.9168496  38.4923410  12.7906857  26.9501495  37.0047879
 109.9924850  34.1037750  26.3817310 109.2011166  34.0421414  26.9166803
 110.6273937  33.5433006  26.8278217  53.3435509  52.2966227  94.2810991
  53.6278031  51.3870118  94.1914087  53.7281487  52.7432174  93.5268630
  90.8525658  11.6585922  45.3859329  90.2761555  11.2981009  46.0597420
  90.7021523  12.6031971  45.4223776   9.1902218  52.6230192  18.5731924
   8.6080418  52.4971914  19.3225062   9.1543541  51.7918491  18.0997968
 111.5371513  41.2023354  53.9997864 111.0223103  40.7138157  54.6420622
 111.2434483  40.8673239  53.1525946   6.4324627  43.8805532  14.4206393
   6.7401944  43.0012035  14.2009211   5.4847489  43.7857771  14.5160401
  85.0501823  22.7487040   4.6959260  85.9667301  22.4727225   4.6970829
  85.0844002  23.6924171   4.5395130 113.0402470   9.6180159  46.5950394
 113.7474918   9.2755485  46.0484648 113.0523968   9.0653616  47.3764849
 100.9855652  21.9723487  64.8071003 100.5317974  22.7958536  64.9864388
 101.2405014  22.0348859  63.8865948  76.5161215  98.2077503  43.6732912
  77.3604952  98.0463528  44.0942621  76.5481745  97.6928853  42.8669930
 115.7109451   7.9480428  50.8710146 115.6897640   6.9953758  50.9616137
 116.5687561   8.1332690  50.4888010  99.0479755   8.2542950  53.0498505
  98.5355091   8.7063414  52.3795843  98.3996582   7.9624248  53.6907339
 111.8538666  41.5474319  37.0881557 111.8586826  40.6899643  36.6627669
 111.2417316  42.0689297  36.5689588  49.2849026  30.1300478  55.7972622
  48.5897885  30.5591774  55.2983570  49.0788136  29.1969705  55.7413435
 100.4795456   7.4883652  15.6633043  99.6012592   7.1305615  15.7930303
 101.0676193   6.7690670  15.8935428 107.4434948  40.3780508  23.5344911
 107.3833561  39.4487953  23.7560749 107.3026371  40.8319998  24.3653464
   7.1601639  43.5466623  55.9087038   6.2851391  43.6993790  55.5520010
   7.1463166  42.6331615  56.1942816  -0.0475254  31.4454746  46.6332769
  -0.1650371  30.6424904  46.1256933   0.7360897  31.8509436  46.2620926
   4.2102490   5.2594793  36.6966653   3.4262715   5.5169630  37.1817541
   4.2965756   5.9224516  36.0116482  68.5257006  44.6072865  26.6410351
  67.8825998  44.6003580  25.9320879  68.2199478  45.2927494  27.2350764
 114.6120453  37.3725533  30.6242776 115.3760242  36.7971063  30.5864739
 114.4248962  37.4610996  31.5588188  90.5823790  94.2594086  42.3012257
  90.4241930  93.3605754  42.5898552  90.8884417  94.1707682  41.3986158
 110.9329319  17.2363591  45.9925365 110.9536266  17.1878600  45.0367928
 111.2016201  16.3645923  46.2824678 114.5764732  14.4533885  31.2682915
 114.4301128  15.0285435  30.5172873 114.4291401  15.0129414  32.0308065
  47.8385411  15.0118470  44.3501472  47.9248677  15.8590972  44.7871256
  47.4671612  14.4348788  45.0175381  23.9994488  23.6297226  26.3293123
  24.5155201  23.8093781  25.5434155  24.1341839  22.6968741  26.4962554
  71.4494371  65.0959778  31.7588830  71.9752312  65.6093550  31.1455202
  71.4424610  65.6163692  32.5622368 101.6856384  37.7475023  55.6994247
 101.9597816  36.8361115  55.5972242 100.8824825  37.6993275  56.2179279
   6.1566315  38.6886930  41.8096399   7.1127377  38.6545157  41.8400288
   5.9140358  39.2588305  42.5392389   7.7875862  65.8455372  32.3306823
   8.1045018  65.0746202  32.8012991   8.5163651  66.4650249  32.3675561
  98.2987883  22.9564238  85.5184460  98.4732225  23.2396460  84.6208954
  97.3649337  22.7464509  85.5261230  32.1562172 100.1106553  12.3347682
  31.5142168 100.2378182  13.0332679  32.7096386  99.3941932  12.6456470
 106.2523784  42.0112705  52.9106903 105.3966679  42.3608589  53.1592464
 106.2059142  41.0819817  53.1353903  13.3962667  29.2067695  78.4037638
  13.7027001  29.8419833  77.7565908  13.9788890  29.3285394  79.1534042
  66.5442276 100.5309296  71.4525938  65.8272219 100.7775879  72.0367956
  67.1772099 100.0932693  72.0218229  40.4057654 106.8885474   5.0329989
  40.1816903 106.4701180   4.2017669  41.2625582 107.2860770   4.8777312
  77.9364972  53.9447981  18.6694640  77.2006206  53.3333116  18.6412066
  77.5580520  54.7599226  18.9989966  13.3254886  82.9599667  38.4850335
  12.4112344  83.0878639  38.2320237  13.6600089  83.8450527  38.6297894
  48.4392912 104.2696147  12.4984187  48.4437020 104.9151139  13.2052058
  47.7957512 103.6168961  12.7741927 106.1372532  58.4936714  65.7067251
 106.7342319  58.9181185  65.0905323 106.0824611  57.5879812  65.4018450
  73.3246983  89.0253286  17.7274341  74.0460290  89.5123033  18.1258983
  73.7318720  88.5367398  17.0120830  91.6416802  49.5626545  69.2550325
  91.4617433  49.6529198  68.3192396  92.2317447  48.8112783  69.3140888
 109.2759146  39.9821520  94.0705490 109.6490194  40.8630991  94.1014099
 108.7509539  39.9722743  93.2702065  75.6446569  10.1320320   2.1949309
  75.5661938   9.2602354   1.8075675  76.5130406  10.1379543   2.5975532
  18.2319486  48.0632973  68.3636713  17.8166831  47.3083448  68.7806082
  17.6698017  48.2627487  67.6150465 103.9849760  33.3148866   5.1010531
 104.0769722  32.8970724   5.9573287 103.1497099  33.7798315   5.1499099
  99.3506005  25.7638269  36.8284816  99.2092612  26.6712766  36.5586871
  99.4286611  25.2790552  36.0068149  39.8418498  60.8704615  87.6737118
  39.1459036  61.2085581  87.1101665  40.6363916  61.3002872  87.3571873
  79.6136727  73.4788895  89.8126888  80.3888311  72.9424667  89.9788475
  79.1159691  73.4400511  90.6293964  59.9061216 102.8707747  19.5134181
  60.0234760 102.0379167  19.0564555  60.7954110 103.2004933  19.6425551
  84.6681865  22.9403310  30.0167102  85.3509560  22.3461919  30.3282470
  84.9542149  23.1948953  29.1394252  11.7321193   7.6715761  11.5285605
  10.9250629   7.3319727  11.9152945  11.5897024   7.6095205  10.5840510
   3.3348700  83.5455322  75.9634209   4.2074791  83.5189915  76.3559532
   3.4775242  83.9012241  75.0862885 111.2289019  62.1275616  64.6627569
 110.3314837  62.0621157  64.9892378 111.5864344  62.9012585  65.0984097
  63.4610761 109.2995076   4.3257922  62.7920808 109.1210370   4.9867171
  62.9740275 109.3690782   3.5047072  74.3193879   0.8457475   4.7864455
  73.4085044   0.5620151   4.7088641  74.8296540   0.1053529   4.4583053
 115.0164676  26.1306143  60.8844280 115.3768288  26.9445753  61.2363338
 114.2917155  26.4113641  60.3257322  16.4771354   0.5878645   0.3377074
  16.5390051   1.5062957   0.6001872  17.0924413   0.5049997  -0.3908235
  14.7369432  55.4051352  77.1886444  15.5827546  55.8479595  77.2575045
  14.8425889  54.7997475  76.4547682   1.6000627  48.4210587  91.8588924
   2.1273658  48.1533241  91.1062241   1.8850963  47.8448963  92.5681305
  98.7767365  51.7696428  59.1999817  99.6383335  52.0470715  59.5112991
  98.1669905  52.3918200  59.5966434  62.3022164  54.6340841   4.5487327
  61.7157949  54.6938216   5.3028983  62.7293767  53.7828315   4.6443194
  86.2838545  40.6535154   4.4723147  87.0968213  40.3493601   4.8758048
  86.5695962  41.1926943   3.7348384  61.4457930 102.4703412  16.3268012
  61.4278735 102.6830249  15.3936976  61.2074221 101.5441232  16.3659591
  88.9860537  34.2523103  14.9192733  89.1246512  33.9215952  15.8067721
  88.1191661  34.6572309  14.9472255 112.9492327  53.8509321  81.9953918
 113.2269563  53.8009596  82.9100513 113.6208793  53.3674479  81.5143871
  10.2170050  34.9671245  91.8675613   9.4746709  34.4364905  92.1567059
   9.8436266  35.8336067  91.7062283  73.1407298 107.8911023  27.3159236
  73.9369954 107.5379853  26.9190616  73.0581416 107.4213748  28.1458491
  21.9767356  80.9252834  56.7416668  21.6948485  81.4783478  57.4702930
  21.1976433  80.8370018  56.1926174 107.1553596  48.2407379  89.5637608
 107.8858938  47.7147150  89.8891068 107.0426031  48.9268589  90.2216053
  73.2917594   6.3163143  24.6134013  73.6434063   5.4837757  24.2980403
  72.4872198   6.0774952  25.0737399  34.3002645  97.3189979  22.4270267
  34.9190376  98.0242734  22.2374553  34.7852881  96.5166001  22.2343081
  94.9720111  21.3883358  10.4222030  95.2225604  20.9282213  11.2232989
  94.0315750  21.5394550  10.5169505  56.6286708 106.1100106  43.2403296
  57.3933483 106.3393979  43.7684173  56.5494622 106.8259339  42.6099223
  51.3497187  94.8999553  29.9032229  51.6468502  94.0164332  29.6856708
  50.9531141  94.8126273  30.7700080   2.8103283  59.9658203  90.9573460
   2.0842043  59.6850967  91.5142727   2.5460070  59.7119236  90.0730896
   0.8886540   0.2898174  27.0067615   1.1260999   1.0624176  26.4939898
   0.0749600  -0.0205178  26.6094893  13.7169492  22.2496372  15.0512237
  13.9249075  23.1745153  15.1838607  14.3198622  21.9646698  14.3645495
   1.4925608  40.3782129  83.7521839   2.4158093  40.4014111  84.0037918
   1.1031547  39.7222447  84.3303680  56.7422750   1.9580751  35.4941768
  57.1945717   1.5473324  34.7573203  55.9581067   2.3472315  35.1070422
  88.7494054  38.4203439  41.1776084  88.6851504  37.6905161  40.5616111
  89.6805360  38.4699827  41.3938540  73.6867393 107.5919728  31.4033812
  74.3211497 108.2923799  31.5556544  73.5565151 107.1953349  32.2647494
  26.0113181  99.6395640  13.4752768  25.1851906  99.9002461  13.0681056
  26.1433662 100.2760415  14.1779155  36.1740756  63.8845444  89.7147751
  36.7727923  63.1497574  89.5811272  35.8724594  63.7865257  90.6179142
  80.2711739   2.5422912  16.4648360  81.2044796   2.6722818  16.6329783
  79.9381367   2.1352392  17.2645968  98.8084152  15.7519823   5.0792331
  98.6247971  16.6708570   4.8838252  97.9551079  15.3790432   5.3006190
 108.8293680  97.0893192  94.7452736 108.8818338  97.8202820  94.1294956
 108.8462528  97.5019264  95.6088066  98.5156216  41.7691994  86.5611839
  98.4625878  40.9342623  87.0262623  97.9585662  41.6506338  85.7918549
  31.9873739 101.2705760   2.2365684  32.2620745 102.1162467   1.8821544
  31.5027566 101.4903455   3.0322284  77.1873654  91.7345147  43.3847541
  76.6286577  91.9888358  42.6503200  77.9748691  91.3774352  42.9741878
  78.0546542  22.2001081   2.9972190  78.9684816  22.4793249   2.9407519
  77.7901096  22.4251991   3.8891715  62.4108161  91.0394578   0.0613517
  61.4680232  91.2026815   0.0342673  62.4954618  90.1982813   0.5102271
 108.8303234  14.3195778   3.7530536 108.7260368  14.3861299   4.7022265
 108.1757357  13.6747652   3.4848041 114.6971967  17.9238325  81.2813300
 114.1220524  18.6504989  81.0417479 114.1049006  17.2486931  81.6123885
  49.8329247 103.1286292  29.1939849  50.1142217 103.1612210  30.1083297
  48.9213980 103.4201436  29.2132777  63.3118595  96.7116170  42.2299499
  63.8073767  97.4939065  41.9876403  63.9807237  96.0544162  42.4221629
  96.6128459  64.2658043  93.2569695  96.4701404  63.3224010  93.1804752
  95.9236183  64.5649910  93.8500023  46.8724705  98.1307321  39.6915835
  47.3867173  98.5834460  39.0231246  47.0540423  97.2023396  39.5454806
  87.2935989  15.1043611  40.2045650  86.8250366  15.2847486  41.0195178
  86.6122308  14.8239284  39.5935649 109.8593380  63.4205008  78.6717796
 109.1755166  62.9305267  79.1284466 110.3509369  63.8530445  79.3699694
  83.6318650  74.7220802  82.4349785  83.1714954  74.8130703  83.2692528
  84.1888823  75.4987669  82.3828411  77.8528671  36.1044126   0.4261989
  78.5596280  35.8392053  -0.1623422  77.0894090  35.6153494   0.1193160
  19.3326843  89.5039749  79.5281982  19.5614779  90.2788830  79.0149689
  19.1277885  88.8355827  78.8743687 111.9537308  69.5636606  87.9736805
 111.2273850  70.0099373  87.5383759 111.7110675  69.5581436  88.8995934
  16.1558259  74.6041346  90.2838898  15.3734982  74.1812849  89.9297810
  16.3775027  75.2760601  89.6392155  63.0495394  84.9293117  12.9323977
  63.5382546  84.3016820  12.3999709  63.5805954  85.0389843  13.7211818
  88.4765687  56.3837385  75.9920311  87.6016154  56.3739872  75.6039619
  88.4668078  57.1343422  76.5859461  21.1577238  96.9581418  10.6061286
  21.4999319  97.8508477  10.6530494  20.9541739  96.8280415   9.6799106
  15.3889143  16.2951040  87.4163055  15.8869255  15.5522573  87.7574730
  15.3463352  16.1416948  86.4724350  98.6935761   9.3323427   4.0912074
  98.0935075  10.0738817   4.1703814  99.2387035   9.3804508   4.8765487
  55.5990852 102.1898274   3.9366836  56.1277069 101.7689042   4.6146316
  55.1878179 101.4634471   3.4682101 110.4060491  42.3926020  94.7803307
 110.8345749  43.1779718  94.4400501 109.9804910  42.6824951  95.5872345
  88.9745846  24.5341163  17.1402282  88.3110883  24.0313392  17.6126880
  88.6985781  25.4455095  17.2372455 114.2452594  58.7677526  78.3536148
 114.5873815  57.9962301  77.9020166 113.4615119  59.0069485  77.8588820
 106.0245838  31.1773896  92.5768566 105.9048202  30.4683089  91.9451141
 106.0388519  31.9726896  92.0443821  34.5185251 104.3860965  36.1137313
  34.4459264 104.9714045  35.3598231  33.6616201 104.4340568  36.5375728
  59.3659748  98.3060317  10.7902640  58.8545860  97.4970345  10.8058757
  60.1436557  98.0879121  10.2765769  12.1398890  64.5115852  94.6068954
  12.8270030  64.4311857  95.2684402  12.3901176  63.8884830  93.9247131
   8.0508208  70.8473635  85.3363991   8.7820035  70.5683088  84.7852802
   8.2800716  71.7366648  85.6062508   6.5700042  14.8194700  10.2457828
   5.7893217  14.4241625   9.8578376   6.2298668  15.4224020  10.9068507
   2.3322428   1.0750871  11.2292785   2.7691734   0.5064398  10.5952758
   2.4536407   1.9587570  10.8819694 112.3355572  84.0188789  83.3180237
 113.2899906  83.9941692  83.3864212 112.1654784  84.1430187  82.3842716
 107.6827290  28.7249761  27.6290816 107.9671767  29.1641336  28.4306258
 108.4298851  28.1834703  27.3745936  34.8933072 109.7555881  32.1704787
  35.8321596 109.7119479  32.3518199  34.4804392 109.7102504  33.0328673
  11.5787923 108.0593967  86.2475109  12.4818289 107.8290081  86.0291576
  11.0456944 107.4606991  85.7244396  63.3402348  72.3387480  92.1971989
  63.3994389  72.1214533  93.1275272  64.0486097  72.9659700  92.0521927
  94.6627238  38.8895422   3.1506938  95.2245810  38.8228899   3.9227790
  94.0436902  38.1651407   3.2417029  16.7836988  17.2478967  30.8897990
  16.7304933  17.9525333  31.5354651  15.8950794  16.8946891  30.8469600
  28.2016158  49.8956203  79.7538424  27.6858807  49.0981150  79.6345043
  28.5739112  50.0716305  78.8897514 114.3691804   8.7274748  18.2892627
 115.0895216   8.1490999  18.5399074 114.7532203   9.3235117  17.6462382
 105.6084993  28.6367899  14.5912093 105.2142193  29.5044141  14.5016879
 106.5365865  28.8105303  14.7483844  70.0684931  31.6825872  27.2399444
  69.2996427  32.2462087  27.3261756  70.4636165  31.9421678  26.4076442
 116.4277174   4.7822481  23.9002532 115.6463673   5.2258211  23.5701484
 116.4596536   3.9590030  23.4129256  34.1876149  73.9531708  70.1558018
  34.8917294  73.3115816  70.0619078  34.3817735  74.6199846  69.4970942
  93.0318394  37.8042703  20.5958098  92.9602411  38.1115251  21.4995307
  93.9355388  37.9989820  20.3475207 108.8785317   7.6658350  26.9904155
 108.6974194   8.4137636  26.4211863 108.1477001   7.6526981  27.6084346
  70.5878373  24.4296938   2.1105212  70.4069337  25.0687795   1.4212626
  70.3513374  23.5867267   1.7236060  97.2177293  18.5800749  23.1659144
  96.2910678  18.6236196  22.9300422  97.5041785  17.7216392  22.8540343
  95.2866545  22.7175861  13.1931704  95.3166225  21.7615753  13.1560248
  94.3670609  22.9219728  13.3628959 106.9455650  22.6358991  25.4683227
 107.8455069  22.3286205  25.3591556 106.5389230  22.4947982  24.6133536
  22.6606417  43.1062269  87.7547741  22.0248890  43.7542915  87.4513626
  23.1763768  42.8941536  86.9767857   6.6170663  54.7569942  85.7462883
   6.8737960  54.9903393  84.8541737   7.3474312  55.0514030  86.2904644
  17.3295772  11.8674808  30.2597827  17.5076711  10.9296327  30.3301925
  17.5167024  12.2129970  31.1326140  15.0160921  93.0431175  94.7212887
  14.2801857  92.9003429  95.3165054  14.7287762  92.6649952  93.8901997
  24.7880304  16.0684257  64.0187472  24.6831739  17.0194965  63.9922446
  25.4891002  15.9223610  64.6538848 109.3604829  45.3526407  25.7631988
 110.1182034  45.8288103  26.1028403 108.9304879  44.9997812  26.5421885
  81.8854328  14.8746544   2.2667903  81.1739089  14.4301420   1.8059558
  82.6628806  14.6935945   1.7385596  13.0984295  48.4268957  22.4048537
  13.0649793  49.3834215  22.4179286  13.8808763  48.2076650  22.9107589
   6.5955675  38.6927324  14.1452998   6.4202869  38.5397630  15.0737971
   5.9906757  38.1086260  13.6879558   0.7707285  57.6063442  94.7508240
   0.0766745  57.4663258  95.3949642   1.3396671  56.8419695  94.8417759
  66.7218054 108.5612063  23.4089202  66.5771116 107.7694468  22.8908462
  66.1215104 109.2057185  23.0341166  46.7341852  69.1491270  72.9546070
  47.4931955  69.5250130  73.4005260  46.0867834  69.8541546  72.9481363
  92.1099939  69.6839809  82.9119778  92.6892986  70.1502275  83.5146904
  92.6953854  69.1239357  82.4021816 108.5839441   5.3209787  22.2338122
 108.2063153   4.4474798  22.3368758 109.4042709   5.1732689  21.7631930
 105.0621464   7.5351959   6.7448539 105.9044268   7.7761989   6.3592166
 105.1368406   7.7930504   7.6636428  19.6061885  55.1776838  93.7774944
  18.7296748  55.0573826  94.1428471  20.1795936  54.6826744  94.3626499
  24.8813844  83.8926601  91.9457817  25.7533956  83.8160610  91.5585327
  24.3209815  84.1700077  91.2210274  20.9328115  47.7497678  35.7434482
  21.4724434  47.3746782  36.4394015  21.5320909  47.8511148  35.0039786
  88.7858882   3.9792400  34.1823405  88.4508779   4.5083194  33.4584159
  88.0113842   3.5454851  34.5404357  93.6760809  24.8704296  16.5707416
  93.0415895  25.4417329  16.1380023  93.1686141  24.1008859  16.8286342
  78.5805548  91.3070898  10.1387614  77.9604567  91.6552477  10.7794684
  78.0307831  90.9782724   9.4275207  31.4598371   9.7823573  85.0055027
  32.1305860  10.1102019  84.4064617  31.8736370   9.8126078  85.8681011
  38.0841041  78.0923700  59.2786646  37.9577756  77.7957582  60.1799345
  37.4393225  78.7904072  59.1636372 102.1967699  24.7507959   1.8218631
 101.8494823  23.9842706   2.2780055 102.8967574  25.0712400   2.3907012
  85.8034994  19.8305040   8.1621856  85.7653268  20.7823187   8.2561320
  85.8634617  19.5034462   9.0597743   5.0339163  14.2734533  62.7282733
   5.5715740  13.6281257  63.1873054   4.5875347  13.7716633  62.0462245
 108.3090141  47.7662664  28.7932223 107.8788855  47.6109033  27.9523391
 108.2160404  48.7076479  28.9394874  21.8605221 102.8119235  11.5975589
  22.6016082 102.5872521  11.0349292  21.2299265 103.2266192  11.0088271
   8.3584821  30.0007444  53.7929553   8.1250751  30.7613283  53.2607287
   7.6509893  29.3746095  53.6391944  95.0304391   2.4259096   5.2458209
  95.2041581   3.3068662   4.9141997  95.8983304   2.0481687   5.3883189
 105.0621846   3.7972456   4.4627971 104.4844129   4.4879013   4.7874660
 104.5686176   2.9884678   4.5988006  62.5143040  96.0836129  18.0518168
  61.8556584  96.4145045  18.6624927  62.0241011  95.8893495  17.2529429
  99.7718729 103.5373073  14.6136588 100.0625576 103.2769971  13.7396068
  99.8658479 104.4898276  14.6235389  94.0885749  29.0253740  28.8164443
  93.4609237  29.3783765  29.4470614  94.3720665  28.1953245  29.1996879
  47.9931010  95.4652553  37.5165957  47.9009796  94.5149879  37.4477595
  48.8405706  95.6535678  37.1134013  81.5322553  38.7403398   6.5362948
  82.1680524  39.1321855   5.9375876  81.8113541  39.0296846   7.4049777
  83.9345559  11.0697942   2.7676314  84.5224025  11.7938429   2.5521678
  84.4080635  10.2858835   2.4892348  70.0132772  48.7904554   8.7586802
  70.0596061  47.9153257   9.1436786  69.1837587  48.7984186   8.2811183
  27.9938449  94.3461328  23.0101985  27.4238242  93.9976554  22.3247260
  27.4235417  94.9108415  23.5318202   0.9755504  10.9892898   7.2331733
   0.5208195  11.8029028   7.0152587   0.8420837  10.4282909   6.4691752
  67.8959986  13.8329607  17.3903579  68.6444821  13.8838487  17.9848403
  67.1316614  13.9250570  17.9591578   8.1486881  43.0022192  94.5151329
   7.8952527  43.8447428  94.1380978   7.8796577  42.3567009  93.8615513
  90.8868410  15.3259807  57.4460238  91.8224051  15.1837545  57.3020667
  90.6134357  15.8797126  56.7146796  35.2095699  68.3733988  73.4734964
  34.2733026  68.2696819  73.6434317  35.3103995  69.2971277  73.2437181
 101.3385680  15.8668333  30.2305812 101.5557840  16.6092640  29.6668071
 101.7439988  16.0780292  31.0715598  18.1874645  26.2505918  40.4072589
  18.1653774  26.2154489  41.3635558  18.9223659  26.8298631  40.2057857
  47.2427511  59.6705866  82.3015118  47.6148748  60.5408239  82.1585178
  47.9003668  59.2118406  82.8243160  97.0055106  22.2294145   0.7137889
  97.0728221  23.1035476   1.0979671  96.5059247  21.7238384   1.3549060
  49.5829630  62.5892162  84.0311432  50.5328608  62.4730015  84.0516949
  49.2676878  62.1218204  84.8046970  20.2024841  97.0756912  50.2332115
  20.3106904  96.1577225  49.9844885  20.0691462  97.5344658  49.4037628
   7.1003425  55.7412534  43.2434386   6.2337816  55.3353124  43.2206267
   7.2798956  55.8703905  44.1747397   7.9977703  66.7326593  81.0259056
   7.0792234  66.5968466  81.2584114   8.3912110  67.1081924  81.8135738
  54.2516435  93.7339835   6.7060393  54.4410027  92.8711300   6.3374442
  53.3778716  93.6453252   7.0866794  34.8242950  68.4597158  69.9655199
  34.3402433  68.8342285  70.7014990  35.6535292  68.1707525  70.3464460
   4.7698892 108.5429244  35.2727813   4.2922939 109.3192534  34.9804610
   5.5610312 108.5314755  34.7340888  80.2087041  15.6626898  22.5772494
  79.4591922  15.3171735  22.0923919  80.4200920  14.9776464  23.2114905
 114.5508864   0.3402668  19.5111007 113.6382892   0.3318077  19.2224425
 114.6284201   1.1363750  20.0368709  73.6307849   2.3432112  89.0743828
  74.1128124   2.7330733  89.8036957  72.7400888   2.2335482  89.4073486
  49.5228947 109.1850095   5.3449458  49.5233430 109.6043878   6.2053794
  49.9756349 108.3531432   5.4837150  27.6714695  16.5059763  20.6976241
  27.1125400  15.7554155  20.4963893  27.1236074  17.2688823  20.5130977
  17.6951778  42.8759294  18.5114116  16.7571771  43.0535322  18.4418029
  17.9039896  43.0477815  19.4296187  96.9329348   0.2674442   2.8751105
  96.1185720  -0.0476546   3.2672328  97.1338298   1.0716015   3.3538646
  23.2399106  71.0904741  81.5828800  23.3346128  71.2906742  82.5141048
  23.4560108  70.1604843  81.5146446  88.4904649  17.4503904   0.4411048
  87.5775506  17.7375847   0.4227275  88.7754991  17.4997812  -0.4713326
 116.2872460  49.9043279   8.4978408 117.0752551  49.7405058   9.0159530
 115.9274676  49.0338617   8.3273047  70.3229585  34.6204477  33.4072513
  69.8776975  35.4239278  33.1382007  70.0667461  33.9731508  32.7502936
   6.2231720  10.2719122  45.3844470   5.8176458  10.2034574  44.5201034
   5.5661381   9.9212127  45.9857291 104.8544111  52.9726696  88.0566978
 105.1702442  52.0703506  88.1046963 104.2467465  52.9747152  87.3171234
 111.4105823  15.7446199  25.6025523 112.1932127  16.0355955  26.0705775
 111.6546347  14.8965126  25.2318877  57.6816667 105.6206756  32.9357451
  57.3860825 106.4315228  32.5217456  58.4285189 105.8845715  33.4731502
   9.6069956  77.8284931  89.8372936  10.0194192  78.6442900  89.5533752
   8.6675042  77.9993391  89.7709656  19.8887909   3.4375196   1.6392631
  19.7007978   2.8800111   2.3942965  20.3433979   2.8621870   1.0239905
   8.3912301  57.9827833  88.9259434   8.7060779  57.1523190  88.5689640
   7.4865353  58.0473566  88.6200237  98.0414655  90.2755356  92.5662708
  97.8411748  91.1838245  92.3401642  97.3452046  89.7663021  92.1513748
  58.4063984 109.2299943  19.1046924  59.0056385 108.6266379  18.6652488
  58.4474577 110.0311189  18.5824412  67.8859938  96.4979606   6.0762137
  67.0444168  96.0652547   6.2202567  68.1438316  96.8145184   6.9419688
  21.4161682  59.3877411  94.9926758  21.2833118  58.6402035  94.4097710
  22.3575974  59.3922234  95.1656628  71.9504204  23.4727388   6.9075221
  72.2057750  23.6396843   6.0002440  71.9867881  22.5202566   6.9951934
  59.1515125  89.2957478  27.8092021  58.3817495  89.6879249  27.3970145
  59.8080267  89.9922876  27.8020877 111.0321357  10.0156170   2.3534507
 110.1100447   9.8734241   2.1395320 111.1904242   9.4568115   3.1143111
 104.8207953  37.3487001  11.8361396 105.4830077  37.3172002  12.5265807
 104.4007208  36.4891821  11.8677825  39.9773955  27.8655982  92.7977848
  39.7812366  28.4094405  93.5606670  40.7710934  27.3890591  93.0410576
 103.2515457   2.6626354  16.6328734 104.0458848   2.3128896  17.0365161
 103.0537059   2.0506435  15.9239596  58.4711983  29.1851240  12.6431102
  57.6218798  29.4277006  12.2742671  58.3228578  28.3279997  13.0425567
  98.5049595 105.2627902  79.6519202  99.1916193 105.7294373  79.1755027
  98.9716304 104.5875363  80.1443404  32.2889924  67.6379585  68.4932947
  32.0804071  66.8563890  69.0050268  33.1876993  67.8542042  68.7418795
 112.1332528   0.9559065   6.8391150 112.7168252   1.5211301   7.3452777
 112.0885136   0.1441007   7.3442859  87.9720081  94.5321660  45.9880370
  87.2585214  94.2063336  45.4394073  87.8349603  95.4788976  46.0218829
  21.1580265  20.0019556  58.5516280  21.2825954  19.0716320  58.7392730
  21.5720880  20.4523092  59.2878169 101.8269231   6.3247924  28.7855834
 102.0283248   5.7846933  28.0214042 101.2666895   5.7709938  29.3293494
  83.6102941  39.7775274  10.4113025  84.3789294  40.0150209  10.9299773
  83.8311961  38.9272218  10.0312823  84.1689790  94.6032720  57.5825328
  84.1241182  94.8823409  56.6680068  83.4760393  93.9483933  57.6673717
 113.5447906  76.4867544  70.7814503 112.8938877  77.1869326  70.7333994
 113.4907364  76.0507107  69.9310541  86.2277170   2.0650821   2.1205825
  85.3990998   2.4032598   1.7810840  86.0768922   1.9607406   3.0600566
  88.4426072  17.7833610  19.2343158  88.1892111  18.4811121  19.8386020
  89.1923978  18.1397491  18.7578315   8.9462888  41.8794828  30.2187366
   8.5949314  41.1270147  30.6947345   9.7413719  42.1152692  30.6967277
 110.1928957  76.7792416  84.6998787 110.7066627  77.4496555  84.2495251
 109.2844530  76.9858599  84.4801712  40.3709984 102.5520515  93.9792156
  40.1365852 102.2171783  94.8447418  41.3258028 102.6170444  93.9980698
  79.1208562  10.1265579  14.0306777  79.5984439  10.0651317  13.2034129
  79.7832864  10.3863102  14.6709460  31.7482127  91.2867384  29.7666663
  31.6503472  91.9243960  30.4738063  32.6215453  90.9171038  29.8966426
  91.6591074  29.0077215  17.1023673  92.2970393  28.3914762  16.7424888
  90.8459856  28.8092237  16.6379756  94.1223491 107.9641633  37.8053111
  93.4206976 108.6128144  37.7490539  93.8622631 107.3919969  38.5272616
  90.9411361  46.5680986  20.6210155  91.1795523  47.0583635  21.4077968
  91.7473104  46.1204248  20.3642863  41.5159893  99.1196537  87.2509098
  41.5225935  98.8388824  88.1659794  42.4268246  99.0370274  86.9684410
  40.8424568  67.5945807  60.9913588  41.2147760  67.0806217  61.7079210
  40.4105663  68.3310890  61.4240789   8.1074465  11.8251138  35.3256244
   7.8276575  10.9408432  35.0889415   8.8895500  11.9787841  34.7956008
  99.1470029  18.6176019  25.1515120  99.1872599  19.5275121  25.4459208
  98.4736850  18.6155658  24.4711703 115.7550480   9.0734487  13.1776542
 115.8560755   9.9363952  13.5793323 116.4892008   9.0059953  12.5671596
  50.3813995 100.4643254  39.3092174  50.2111138  99.9307828  40.0854701
  51.3235260 100.6314855  39.3354434  78.1568570  34.5237451  10.2999228
  77.8965315  35.4175668  10.0773353  78.5229557  34.5934301  11.1815948
  96.1982705  32.9238039  29.6708793  95.2727392  33.0144888  29.4441718
  96.2715616  32.0391660  30.0290507  42.7561809  91.9662957  39.2935676
  42.8163109  92.1922188  38.3653563  41.9127978  91.5214758  39.3776530
  87.2494277  53.8283544  31.0393161  87.5084361  53.1488615  30.4168815
  86.3931116  53.5454660  31.3601417  18.8851202  43.5004526  26.9757670
  19.0463054  42.7753645  27.5795001  19.2591942  44.2647558  27.4141139
 114.9046662  23.7171989  11.3461131 114.2654111  23.9786249  10.6833571
 115.6674793  23.4313160  10.8434981  93.7084308  49.0561491   8.6432094
  94.4519904  49.1315752   9.2412585  93.8942554  48.2712560   8.1278151
  15.1573253  83.0703068  94.8345089  14.8701203  82.9167366  93.9344215
  14.3460393  83.1142616  95.3405857  30.4525876  85.9745216  72.1500826
  30.5314279  85.2471733  72.7673197  30.8689857  85.6554317  71.3494444
   2.3309675  73.2786655  89.2179775   2.2973980  74.0719366  89.7526073
   2.5416985  73.5914946  88.3382225  12.0695389   0.4988771  26.9687289
  11.6290462   1.2788540  26.6313380  11.3605297  -0.1201910  27.1427554
  86.2959196   5.0625520  16.0295314  87.0517322   5.3837782  15.5378074
  85.6259920   5.7348447  15.9052295  14.6726740   8.3297210  21.8102569
  15.0160492   8.5712057  20.9500236  13.7842071   8.6856991  21.8220538
  60.0379146 109.0640502   5.1149768  59.1416539 109.3415933   4.9254722
  60.3093947 109.6156554   5.8486480  97.2156157  34.9467855   1.3500804
  97.7521088  34.3839842   0.7918185  96.4036658  35.0683122   0.8579463
  29.3960464  57.1895033  23.5338325  30.2183378  57.4152380  23.0989570
  29.5020044  56.2719732  23.7851066 107.3230913  55.2416616  39.1418857
 107.9179933  55.9217363  38.8259334 107.4809959  55.2046877  40.0852412
  92.4232067   5.8432532  94.6710396  92.4380506   6.5669680  94.0447426
  91.5206732   5.5252219  94.6482086 110.3440192   3.9760023  37.7852649
 110.1916196   4.6267896  37.1000785 110.6717517   3.2079130  37.3174304
  13.0179536  92.1558952  68.0607843  13.7656522  91.6120434  67.8129864
  13.0783963  92.2264671  69.0134668   3.0956304  31.2178426  29.8716182
   3.7652576  31.8229681  29.5527858   3.5546863  30.6634527  30.5026072
  91.1125674  41.7687231  12.8628749  90.7337406  42.1444421  12.0681685
  90.3585758  41.5799337  13.4215182  86.1411121  41.7397600  11.5643233
  86.1191507  42.2462755  12.3762340  86.2077316  42.3983293  10.8728904
  69.0359534  13.6850501  87.0704174  69.6185244  14.4440890  87.0439529
  68.6175288  13.6741496  86.2095833  38.6736631  89.9394989  87.8805351
  38.0787110  89.5342064  88.5114098  38.1549621  90.6336403  87.4739075
   7.4821413   5.3302675  30.4278487   8.2285440   5.7763963  30.0277442
   7.8583324   4.5469146  30.8291835  38.6979318 109.6323776  85.5399513
  39.1694975 108.9182949  85.1110554  38.4542632 110.2214050  84.8258781
  94.3831434  28.3155351   4.9972934  93.9366116  28.5061365   4.1723556
  95.2904262  28.5799890   4.8452014 105.9376480  53.7148290  34.9678153
 106.6585877  53.5602861  35.5782241 106.2091162  54.4835573  34.4662208
  18.9189518  27.0417219  26.1466617  18.7229622  27.9782587  26.1200446
  19.4188488  26.9245058  26.9545001  80.5432906  18.5765796  55.0594825
  80.1866560  19.3237262  55.5399055  80.7054796  18.9136940  54.1784114
 112.9559185  28.6352163   2.2779769 112.2233727  29.0737730   2.7107257
 113.6612632  29.2822462   2.2864646  19.6027839  33.0698209   7.8095168
  19.8063076  33.8826185   7.3467273  20.3296554  32.9541879   8.4214896
  59.6482385  15.4072142  77.8110790  59.4427670  16.2473059  78.2212687
  59.1110457  14.7718478  78.2843351   7.1539772  53.6747842  15.0229186
   6.8743122  54.4544035  14.5431155   7.9933107  53.9210420  15.4116458
  18.5572851  13.7415462  35.8475417  18.1000698  14.0665823  36.6231269
  18.3303249  12.8125053  35.8074969 101.9405616  93.6511617  10.6181544
 101.5851129  94.3660097  10.0900668 101.3674654  93.6110954  11.3837928
  51.3448597  16.8801356  69.9582767  52.0873417  17.3807097  70.2964735
  50.8496822  16.6296817  70.7382154  27.0445955  55.5428320  31.9636077
  27.7668560  54.9260145  31.8448657  26.9103706  55.5749899  32.9108066
  55.8211792  17.1971088  22.5374907  55.2165401  16.7231851  21.9664973
  55.7303703  18.1130939  22.2749061  42.7299452  63.0971241  70.2174330
  41.8450117  62.7728510  70.3846741  42.7948570  63.8964796  70.7399750
   4.2143034   2.7007342  77.7826405   4.4290041   2.7705432  78.7128353
   4.4974302   1.8199969  77.5369167 113.6013820  33.9137846   7.4695319
 112.9704001  34.1090589   6.7767352 114.4550302  33.9796358   7.0415324
  16.9270849 109.3564892  62.3474598  17.0599794 108.9061928  61.5133095
  16.0424781 109.1078663  62.6155806  65.3621912  74.4626617  79.4095802
  65.2949572  74.4179249  78.4557915  65.3041124  73.5514116  79.6967840
   9.7489393  39.8674112  16.5052432   9.3103445  40.7176977  16.5347404
  10.1630676  39.8413187  15.6426639  51.1814381  96.8922334   2.8810138
  50.3047372  97.0667796   2.5387210  51.3140548  97.5614696   3.5524005
  70.6274618   5.2402735  55.4400969  70.8908023   5.6578398  54.6200228
  71.3455023   4.6415091  55.6453562   6.0973442  12.8535753  12.7602595
   5.2887714  12.3573023  12.8873366   5.8778703  13.5017543  12.0909900
   4.5139826  44.1035371  36.6464728   4.3854273  43.9078241  37.5745887
   4.1138494  44.9646478  36.5256137   5.8969820  68.1134802  14.8592204
   5.4187763  68.8576036  14.4933909   5.2199161  67.4646764  15.0512237
  86.6057863  42.0773225  17.2302264  87.0358684  42.8464513  16.8564719
  87.3238709  41.5410906  17.5664538  35.9050644  68.8926035   3.4698791
  35.4324472  68.1096941   3.7525767  35.6799448  69.5566278   4.1215056
  44.6771259  12.4856997  77.9869318  45.2140922  11.9011450  78.5219049
  43.8176690  12.0650817  77.9614449  97.3224714  65.4213720  51.8478316
  97.7121475  64.5987993  52.1440715  97.1135273  65.2691751  50.9261912
  17.1333110  57.6885128  73.2538509  17.6502430  57.9354334  74.0206909
  16.6812170  58.4932899  73.0005121  56.5984058  93.8607979  89.8703384
  56.1380243  94.5291901  89.3628597  56.7750263  93.1615829  89.2409515
 107.4071100  21.2924581  29.1134471 106.8084957  21.6199022  28.4421271
 107.7505138  22.0810896  29.5334071   7.1428526  43.9747720  32.9195518
   7.7444875  44.3559747  33.5590476   7.0227087  43.0714708  33.2125396
 115.6580885  87.6037216  67.2616053 114.8634154  87.4120045  66.7636395
 116.1875700  88.1393147  66.6708279 114.7924211  48.2707506  13.9999026
 114.4516113  48.6005026  14.8313731 115.7298067  48.1541353  14.1546458
  94.4071534  49.8146730  16.6687125  94.7307160  48.9498239  16.4165706
  94.9894192  50.0913149  17.3762912  13.1513250  57.8130537   8.6149043
  13.0460203  58.2046228   7.7478332  14.0507829  58.0239874   8.8653296
   2.2536648   4.6364265  32.3297614   2.2911299   5.5884844  32.2380465
   3.0345714   4.3210655  31.8748397  90.2403512   2.7769714  20.1967448
  89.8961427   3.2011610  19.4107360  89.4641974   2.4513393  20.6525821
  15.7848299  22.5483757  13.2812137  15.6744087  21.8568521  12.6286620
  15.1494634  23.2186704  13.0297393  97.7449491  35.1844888  30.3648585
  98.6090019  35.0360685  29.9806422  97.3051300  34.3367963  30.2998942
 113.9887216  29.8259645  32.5460929 113.9428975  28.8702875  32.5175017
 113.5460403  30.1109987  31.7467040 103.6157944  47.3744875  42.3160285
 102.9640820  47.1277147  42.9722327 103.1008961  47.7001959  41.5777701
  47.1713161  76.0701418  93.7322712  47.1830606  75.1237631  93.8753128
  47.3781395  76.4444017  94.5886517  18.4821594  34.7553163  30.5345077
  18.7594688  34.1127210  29.8815173  18.0251777  35.4279619  30.0295848
  40.4782665  21.4742284  12.9371947  39.7494686  21.4648300  12.3167151
  41.1699188  20.9759241  12.5018329   0.1305187  46.8751436   9.1150874
   0.7674301  46.8706709   8.4005469  -0.0576579  45.9501653   9.2739886
  12.9599703  56.3658624  13.1698817  12.8837240  56.9383722  13.9331931
  12.1021211  56.4137178  12.7479476 103.7676599  43.3214861  15.0114364
 104.5813134  43.6618334  14.6394652 103.1311133  44.0237909  14.8779792
 101.4313486  44.9006372  62.9889983 100.7577732  44.3271928  63.3546370
 101.6779497  44.4841963  62.1631640   7.1485222  68.6629587  57.5347156
   7.6801574  69.0261656  58.2430095   6.2528932  68.6854940  57.8717250
  16.0575903  43.4024816   3.4061545  16.0004461  43.2446104   2.4637908
  15.8835924  42.5489622   3.8029784  16.3126934  42.0697599  32.4675387
  16.5336025  42.2616964  31.5561694  15.8740795  42.8613096  32.7794761
   4.5861948  37.8844743  39.3390197   4.5512617  38.6592394  38.7779922
   5.2300823  38.1049829  40.0120849  51.2181593 109.0006499  21.9382304
  51.0103728 109.8765759  22.2635097  51.8811942 109.1467671  21.2634963
  61.0197772 104.9229722  13.6360091  60.4666198 104.1424851  13.6690539
  61.9043149 104.5839887  13.4984797 115.9822228  44.7407060  38.5752696
 115.6718757  44.1343980  37.9027289 115.5312660  44.4646078  39.3731612
  72.3063799  53.1598383  12.5524348  71.9417300  52.2766119  12.6087302
  73.0594438  53.0712705  11.9682425  21.5231455  32.8258711  13.6665839
  20.9417475  32.2165781  13.2116431  21.0351551  33.0838876  14.4485873
 106.5948012  84.5505911  26.1985892 106.2496045  84.8771196  27.0295257
 107.2314718  83.8815408  26.4500922 113.9902093  50.7159429  30.4908961
 114.6236565  51.1239248  31.0812682 113.1462171  51.0822015  30.7550448
   2.8798616  15.6608635  16.4401740   3.4763086  16.3476711  16.1422175
   2.2166574  15.6045633  15.7522601 112.9947784  65.4159170  21.8554133
 113.6068442  65.7932382  21.2235564 112.4645140  66.1573988  22.1473903
 104.4604566  22.5331550  23.4334201 105.0025966  23.2290941  23.0619544
 104.8092224  21.7279392  23.0510253 105.1171734  15.3389412   4.1354388
 105.5139520  14.7052580   3.5377425 105.6756165  16.1134725   4.0685576
  20.7833708  58.5071092   4.4511718  21.4995992  58.7511354   3.8649196
  20.4873932  59.3366724   4.8259467  36.0069394  95.0112057  64.4466591
  35.5317163  94.7346973  63.6631155  35.3504014  95.4605865  64.9788666
 110.4696085  10.9559446  14.8647899 110.9998038  11.7396789  15.0093001
 110.9996083  10.2402025  15.2155704  83.9266720  35.3730303  14.6221847
  83.8950779  35.9303194  15.3997821  84.5128527  35.8331400  14.0214175
  73.6455160  54.8919397  23.2574672  73.1018808  54.1485887  23.5184783
  74.0213247  55.2132898  24.0770549  82.8298386  26.8988424   9.7834510
  82.0320981  26.4243227  10.0172824  82.5253715  27.7719789   9.5361632
   0.6082595  21.2043100  22.4472636   0.1684630  22.0432573  22.3095054
   0.5386794  20.7561546  21.6043204  99.4695356  24.1244894  19.8531741
 100.2364995  24.2408758  19.2924136  98.7307241  24.3938499  19.3074340
 108.3462670  34.8272043  23.8408584 109.1525175  34.5307451  24.2631167
 107.6925042  34.1726785  24.0866679  14.1734147 109.7474289  93.0949688
  13.5308838 110.4147434  93.3359623  14.0844607 109.0744877  93.7698555
  97.0429864  50.7314401  24.6901530  97.7903321  51.0235601  24.1682548
  96.3267734  51.3095861  24.4274348  26.2508476  32.6021391  18.5820884
  26.6146457  31.7988592  18.2097548  26.8047750  33.3002954  18.2328338
  81.7924281  58.6104303  28.7895411  82.0875879  59.0897184  28.0153388
  81.6719132  57.7115923  28.4832782  55.6503963 108.2422256  73.2719469
  56.2138510 107.6016998  72.8378010  55.3742504 107.8095913  74.0799093
   4.2510975  66.6402536   7.6837081   4.2723263  65.7698255   7.2860450
   4.4584692  67.2371679   6.9647426 103.1784966  11.8697124  32.7801150
 103.7250855  12.3011738  32.1233672 102.3087814  12.2493320  32.6547641
  65.7579459   2.3424674  90.7157803  65.9200014   2.3508216  89.7724342
  64.8751725   2.7002383  90.8103275   0.2860582  15.1259571  22.9071826
  -0.3395760  15.5293708  22.3054618   0.9050238  15.8261781  23.1140727
  84.3361159  42.3603540  14.8048514  83.7820723  42.5243860  15.5679816
  85.2093532  42.6416021  15.0779647  50.6491041  61.2509537  92.4531174
  51.5526724  61.4877415  92.2440052  50.5617142  60.3475904  92.1489239
   4.9361265  44.1941839  23.9676494   4.6328342  43.6364561  23.2512778
   5.3591478  44.9343210  23.5323447  81.4031931  58.8965707  10.8907336
  81.5181323  59.5778757  10.2282924  82.2755065  58.7784677  11.2667006
   0.5407012  22.2622781   7.4402637   0.1678098  22.6764970   6.6620559
   0.4410088  21.3233810   7.2828883 111.8075898  21.2764173   0.8208961
 112.1371295  20.4617172   0.4415626 111.3264658  21.6954523   0.1073474
  58.4296406   7.2269107  94.5842457  59.1835536   6.7293215  94.2676258
  57.8404618   7.2740699  93.8313389 104.7646453  43.5024076  39.5542068
 105.5505803  43.7306505  39.0577716 104.1148689  44.1520982  39.2860240
  42.9829586  47.8518015  11.2516898  42.6486004  47.0533758  11.6602916
  42.3086727  48.0970960  10.6181354  98.8440516  39.9714571  61.4943904
  98.9677884  40.9002405  61.2987346  98.9333608  39.5343214  60.6475371
  40.2369442   2.8652907  83.5016537  40.5523117   2.0326281  83.8529873
  40.1238799   2.7026606  82.5651741  82.3210063  45.8133417  21.3428420
  82.1323439  45.5800062  20.4338950  82.7643599  45.0440889  21.7005176
  32.0425308  35.5589681   9.6972007  31.9995058  35.5444723   8.7410754
  32.4752128  34.7374921   9.9299735  38.5149670  84.7954369  70.3773880
  37.9904032  85.4386044  70.8542633  39.4208241  85.0637627  70.5311823
  20.8002270  26.7823702  15.8340949  21.2689197  26.6450506  16.6573256
  19.8881948  26.9084364  16.0958880  28.1567514  41.8120008  12.5038070
  27.2264087  41.7097479  12.7044028  28.1819093  42.4786192  11.8173617
  77.2876419  13.2657481  92.6130581  78.2315172  13.4219504  92.6436234
  77.1079935  13.0632640  91.6949272  11.0742188  83.3024311  72.9988432
  10.8250618  83.9228439  72.3138285  11.0911143  82.4529552  72.5580120
 110.3188779  59.2704778   3.1790370 109.9177005  60.1379781   3.1267566
 110.9483149  59.2538362   2.4580878  40.4572857  46.4032083  18.2372970
  40.5806434  45.7036215  18.8788623  39.7360361  46.9255739  18.5882491
  41.7817772  30.8031374  24.3448276  41.6168106  30.0622850  23.7615985
  42.5614918  31.2240415  23.9827174  93.2116380  13.9246994  24.4658202
  93.7583949  13.6391073  23.7338943  93.8209476  14.3530374  25.0670737
 102.1812441  20.9754091  26.0274619 102.9907730  20.9428459  26.5372104
 102.3120119  20.3340345  25.3290576  35.7511652  51.8139177  18.3382815
  35.0977934  51.9693380  17.6562327  36.2937534  51.1049276  17.9930800
  37.2576702  32.7804571  15.8495063  36.9239843  32.2691065  16.5866679
  36.8366230  33.6352163  15.9408301  32.2476721  48.0761623  86.9292164
  33.0232120  47.7775526  86.4542484  31.5193820  47.6159048  86.5120983
  10.3470266  26.1627393   2.2004050  10.0788582  26.0621172   1.2870711
  10.4952324  25.2679830   2.5064868  62.6879168  70.7781935  80.8824635
  62.1182299  71.4297199  80.4735565  62.3231030  69.9362612  80.6099033
   4.3182838  49.3425661  32.2823733   4.5644081  49.9567896  32.9740352
   4.0995300  48.5344415  32.7463931  44.9907351  61.5075207  89.2096710
  44.2358017  62.0879173  89.1124916  44.6681643  60.6477261  88.9396095
  29.9512410  70.2188206  94.9900532  30.1422858  71.0528469  95.4191685
  29.3909526  70.4529762  94.2501354  26.1470449  17.4983555   6.1157721
  26.3320959  17.3442751   5.1893538  25.2371776  17.7951866   6.1321277
  96.7991629  38.2096773  44.6354693  97.0427790  37.2888475  44.5408267
  95.8431246  38.2009512  44.6818179  53.2359398  54.7723585  18.6397952
  52.3605812  54.8812776  18.2681674  53.3777321  53.8257318  18.6452884
  45.4128170  80.6821346  94.0412998  45.0946951  80.2424431  94.8297882
  45.8458710  79.9912119  93.5399818  72.8321303   2.4620391  67.3778868
  73.3984507   2.1843482  66.6578913  73.3659400   2.3404742  68.1630659
 102.3418453  23.3398967  31.5748996 102.6856329  22.9462486  32.3768252
 101.6777184  22.7215677  31.2702006  35.2069080  38.8382154  20.4215735
  35.7122743  38.0521780  20.6289214  35.6032264  39.5258432  20.9566707
  99.7688773  27.8296381  39.3544120 100.6381633  28.2289987  39.3215484
  99.5403936  27.8293997  40.2839488  16.2812650  50.1611429  31.4742583
  17.1657503  50.0420671  31.8202991  15.7825363  50.5179125  32.2092551
  27.5094008  84.5508099  76.1666346  27.2996330  84.8769569  75.2915049
  28.4286070  84.7846889  76.2954378  38.3124042  75.7186031  93.3068562
  38.8952303  75.7740736  94.0641308  38.3290577  76.5970278  92.9269505
  20.7214296  89.3798929  35.6901187  20.4082477  90.2760416  35.8128089
  20.2145756  88.8613706  36.3149947  34.9130762  57.5407701   0.9801215
  34.7858274  57.9320627   0.1158732  35.7377422  57.0604234   0.9064979
  99.2332675  43.5773283  11.2882251  99.4797614  43.5219007  12.2114772
  99.1134169  42.6671320  11.0172671  92.3033584  19.0184928  54.5529890
  92.0275797  19.4990016  53.7724113  93.0734028  19.4927550  54.8665762
 107.9394247  26.4660841  12.1628779 107.1358826  26.9848829  12.1254748
 108.6421087  27.1150881  12.1983832   5.6297529  28.7862211   7.5344676
   5.0582969  28.0846124   7.8465766   6.3381851  28.8218885   8.1771869
  17.9440784  82.0105362  89.7015476  17.9031789  81.2056351  89.1851330
  17.1718371  81.9725609  90.2658463 108.8888981  26.3085180  20.3391761
 108.1247690  26.0663229  20.8623237 108.6013892  27.0681196  19.8326510
  28.5981262  34.0358263  20.8774585  27.8328979  34.2339426  20.3376311
  28.2339847  33.6762911  21.6863841 109.5984604  39.8454004  32.9133624
 109.9724986  39.5846086  32.0717544 108.6861493  40.0564485  32.7149123
  81.1053814   9.2487097  83.8412571  82.0335449   9.0240622  83.9066315
  81.0011448   9.5789195  82.9488850  45.9752406   4.4116545  73.5372496
  46.3563259   4.4627333  72.6606655  45.6859536   5.3045607  73.7250519
 101.2560871  41.2751489   7.1201724 100.3500321  41.0622793   6.8966025
 101.7768958  40.6135755   6.6648692  31.0965860  64.3648248   3.6155623
  31.3458622  64.4096857   2.6924819  30.2777231  63.8691621   3.6187095
  92.8445890  25.3949838  29.6026725  93.6520448  25.9014517  29.5147628
  93.0890443  24.5072132  29.3412513  88.4842552   0.5544520  87.4545383
  88.0846227   1.2250472  88.0084419  87.9161943   0.5093051  86.6854477
  37.2929180  63.1879812   1.3990802  37.7592027  63.4445673   0.6034774
  36.9833219  64.0133959   1.7719954  79.9240787  13.8980013  12.5443095
  79.4688363  14.4352823  13.1926269  80.1629677  14.5118051  11.8497485
  96.5371015  16.5778356  30.7655162  96.7995694  15.9795099  30.0659770
  96.3477912  17.4021011  30.3172034  71.4125551  13.2231189  68.9974356
  70.9276642  13.8233901  69.5638180  72.2105778  13.7003184  68.7701082
  35.9740389  60.5770975   8.2029170  35.1586664  60.9390741   8.5498733
  36.2640322  61.2186056   7.5543803  51.7191875  52.1598058   9.9926013
  52.2238434  51.3645559  10.1632995  51.2617195  51.9814211   9.1709346
  14.1744459  38.4589868   1.5555781  13.2915247  38.8073641   1.6793460
  14.3881786  38.6658006   0.6457538  21.5121591  50.0133997   5.7093162
  20.7320059  49.4607931   5.6621570  21.2088049  50.8797174   5.4378432
  77.7215481  90.9469318  92.1252632  77.0283747  90.9719563  92.7848911
  78.3556509  90.3170872  92.4679375  36.8861675  90.9496021  93.4587765
  36.5145230  91.8103695  93.2659245  37.5240564  91.1142540  94.1531944
 116.0699870  29.6937471  50.3388518 115.3969648  29.5788103  49.6679896
 115.6356575  30.1924329  51.0308761  11.4722049  39.2727380   1.9925040
  10.7548940  39.2997080   1.3592833  11.5167225  40.1627260   2.3420352
 108.1045916  25.9921175  45.6723041 107.4155190  25.8782011  46.3268489
 107.7997115  25.4934126  44.9142951  60.5795373   9.9013758  88.3343029
  60.9920300   9.4614077  87.5909901  60.9036149  10.8009673  88.2901096
  39.4379306  96.0117531  87.1707916  39.3658829  96.8261814  87.6685333
  38.5351348  95.7894421  86.9432640 100.5187371  58.9494901   8.4033507
 100.2553060  58.5432153   9.2290515  99.7920182  59.5310598   8.1800002
  18.3095634  57.3500734   4.5327777  18.0020464  57.3165327   5.4386157
  19.1608942  57.7845388   4.5847911  39.5939279  91.6540432  80.0252819
  40.1478052  91.2626839  79.3497896  40.2107334  91.9931030  80.6739902
  28.5489023  45.0028997  27.1508712  29.1156709  45.7386022  27.3827189
  27.6664579  45.3736501  27.1427554 104.4237722  86.5754609  16.1497325
 104.3659939  86.8097239  17.0760173 104.9421514  85.7708602  16.1380500
 110.4162719  77.6318937   0.9224147 110.5030610  77.1795183   0.0833243
 111.2681367  77.5196462   1.3442630  97.8232063   1.5768195  91.0511017
  97.1841015   2.0120860  90.4868889  97.8412164   0.6720877  90.7390785
  88.5751308  10.4141284  70.6867170  88.4709085  10.3859187  69.7356272
  88.2644237   9.5600653  70.9871483  62.7106918 104.0233235   8.6059398
  63.2517899 104.7555261   8.3104438  62.9603447 103.8950448   9.5210666
  92.3494294  52.2496801   2.7714175  91.7650070  51.7683511   3.3570880
  92.4107435  53.1228548   3.1587619  23.6450994  35.0107389  24.4234008
  24.0927828  35.7795053  24.0701217  22.7325046  35.1213747  24.1566390
  79.3717148  64.6796137  36.7727775  78.9019733  64.1033941  37.3757285
  79.4334763  65.5138975  37.2379512 112.7268293  52.3213392   1.5969104
 112.7613833  52.1722608   2.5417918 113.0160978  53.2270914   1.4865989
  55.8080339  77.9111433  56.6395855  55.7482100  77.0560408  56.2136078
  56.6225338  78.2880592  56.3067722  22.3984897  42.7841764   0.9273166
  22.2196663  41.8574911   0.7675857  23.3455026  42.8259283   1.0601729
  95.4222610  76.6255098  40.2211112  95.4886045  76.4971643  39.2748755
  96.2456121  77.0491796  40.4636592  66.8604149   6.8313647  47.9941750
  66.0358394   7.1830321  47.6585674  66.6441692   6.5065242  48.8682222
  31.2362289  99.1094971  86.0771370  30.2865791  99.2271137  86.0534000
  31.3692045  98.3477974  86.6413784  17.1267021  67.0418077   0.0446528
  16.5267360  67.3192793  -0.6476480  16.6945780  67.3069482   0.8565635
 106.3622917   5.1224185  72.2520304 106.7685236   4.4475413  72.7958632
 105.9429182   5.7135344  72.8772831  12.4713362  17.6172357  10.1918429
  12.6262987  17.8786617   9.2841643  11.7684639  18.1942373  10.4906100
 114.2435219  62.6558023  13.3223361 114.3518212  61.7087751  13.2348746
 113.3144858  62.7733331  13.5206050   3.2961738  62.6748663  46.7861384
   3.6406219  62.1642976  47.5188750   3.8623274  62.4473768  46.0486049
  10.9553134  80.7977581  67.9714394  11.6275704  80.2860069  68.4213352
  11.2152565  80.7775402  67.0504332 107.5905540  74.6697431   2.6760787
 108.4703281  74.4151216   2.9542750 107.6387765  75.6197076   2.5689620
  39.5291555  23.9772134  51.9148749  39.2463434  24.4459730  51.1296863
  38.7970436  23.3972316  52.1243018  22.7910984  43.6696630  29.8464126
  23.6611593  43.7928110  30.2259749  22.2401941  44.3092447  30.2977199
  13.7555540  43.9394766  14.1717833  14.4955671  43.7802416  13.5859031
  14.0783966  43.6917883  15.0381869  96.5470209  24.5508772  11.2505931
  95.7072999  24.7434192  10.8334273  96.3422265  23.8814836  11.9034404
 110.2431681  53.8345056  56.3039321 110.1870062  54.7899919  56.3154143
 110.9712412  53.6444669  55.7123107 104.2713560   7.6108695  85.9403133
 104.2612089   7.4095965  86.8760586 103.7632765   6.9062949  85.5382442
  14.7463787  33.9069944  52.3847217  14.1925705  33.2819467  52.8525371
  14.3683756  33.9513593  51.5064448  40.2390862  80.0035954  74.4447136
  39.8317194  80.7564735  74.8730373  41.0241556  80.3602791  74.0291643
 107.5872710  35.7512384  10.2561969 108.5119798  35.5098539  10.2025241
 107.4485996  36.3355070   9.5107955   4.4548738  63.3716303   6.7286605
   3.7584150  63.1490331   7.3464221   5.0368583  62.6117616   6.7398662
  46.8295050  79.0333509  75.1956463  45.9672976  79.4148874  75.0305462
  46.6599035  78.0980921  75.3086233  55.8473087  13.1229640  90.0274086
  54.9670006  13.4180308  89.7945404  55.7486571  12.1862555  90.1979637
   9.5202625  35.9987455  34.7252387   8.8008392  36.1677652  35.3335875
   9.5322788  35.0466638  34.6271152  87.9559460  28.2712179  79.0776748
  88.3629146  28.8469797  78.4303016  88.6017635  27.5797849  79.2228431
 112.1587899  71.0310274  21.5777606 112.9302552  71.4906316  21.9091815
 112.3982861  70.7718282  20.6879920   8.4172857  37.0789629  20.6751079
   8.0155790  37.0888048  21.5438861   9.3489015  37.2239309  20.8403415
  84.0361309  92.7102757  87.8894138  83.3919716  93.3202648  87.5299835
  83.9557552  91.9279861  87.3437023  75.1879419  17.9585028  53.1679010
  74.5249523  18.2230616  52.5301838  76.0207976  18.0805636  52.7121782
  16.1094225   6.2657028  39.8945540  16.5347851   6.6456848  39.1258449
  15.3277529   6.8024212  40.0255698 112.8616121  42.2543245   7.3001403
 112.8349330  42.6408487   6.4248485 112.7175786  42.9923921   7.8923720
  11.9561470  54.9629980  17.7793807  12.8527630  55.2954107  17.7367515
  11.8757332  54.6035009  18.6628551  15.9530247  42.6856237  23.8092727
  15.0043333  42.6766401  23.9362926  16.2481725  43.4741693  24.2645949
   0.3033825  59.8099995  68.9365959   0.4621838  60.6029129  69.4487524
   1.1430679  59.3504906  68.9400053  16.6025579  44.8343187  15.8779353
  15.7462442  44.5860010  16.2262076  16.8864811  45.5593401  16.4346808
   8.8372314  32.8883463   2.7412147   9.3903482  32.4784475   3.4062499
   7.9507196  32.5967699   2.9540748  34.8422599  69.1987991  91.4072990
  34.4430494  69.2590427  92.2751904  34.5794225  68.3377934  91.0820103
  81.9430053  66.1772257  10.5251712  81.2947929  65.6919294  11.0355967
  81.5281189  66.3068109   9.6723479 115.8140328  29.6477991  28.4193820
 115.2686145  28.9343172  28.7505836 116.0109594  30.1772791  29.1921157
  13.3836115  34.5738226  26.7389602  14.1833389  34.2637354  26.3140983
  13.3636892  35.5130773  26.5555400  29.2458057 104.1313171  79.9207783
  29.3583012 104.7903919  79.2358017  30.1365590 103.8538647  80.1348114
   1.0567010  33.3859354  23.2164687   0.5331981  33.0941969  23.9628333
   0.5487216  33.1212907  22.4495524  57.4273539 101.0396290  79.1338968
  58.2726812 100.9393311  78.6961842  57.6147270 100.8730888  80.0576878
 116.0584738  57.7123838  30.8451861 115.3165915  57.9676538  30.2968425
 116.8070032  58.1716257  30.4643458 111.2000229  58.7773996  24.6095389
 110.3928497  58.2808691  24.4747657 111.8043592  58.4355360  23.9506453
  63.5012579  69.7551489  91.4768600  62.6343918  69.4899797  91.1695004
  63.3856106  70.6593609  91.7688370 115.6676162  21.8755389  82.2078609
 115.7012571  22.4181128  82.9957104 114.9474109  22.2423316  81.6950226
 110.6151345  53.9177232   8.2444018 109.6655395  53.8061052   8.2896155
 110.8245733  54.4891267   8.9832324  17.7396597  72.8461938   4.7392291
  16.9088448  72.6126509   5.1532763  17.7131976  73.8005738   4.6707362
 111.9819094 101.6939955  89.4845772 112.4399186 102.0405673  88.7188435
 111.1636783 102.1895289  89.5188427  25.8894038  24.5239472  81.1865997
  25.6575489  24.1074562  80.3565311  26.7679334  24.1975236  81.3811874
 104.4489469  12.7907670  66.4144087 104.0373125  13.6484063  66.5204430
 104.9599232  12.6697540  67.2147179  38.8019061  36.3963032  55.9752035
  39.2533731  37.2219229  55.7998180  37.8905582  36.5663552  55.7369614
  25.9698296  51.1674452  82.4126148  26.3720417  50.3286648  82.6382446
  25.0405931  50.9656668  82.3028946  19.9452901  59.2374468  45.3440952
  19.5996189  58.3720827  45.5629206  19.2255986  59.8385048  45.5364656
  41.7925678  87.1208267  17.1681422  42.1422137  87.3801212  16.3156527
  40.8499077  87.2705488  17.0959872  98.3388676  57.2337055  79.3215227
  97.5717380  56.6802359  79.1751814  98.0021777  57.9858208  79.8085451
 108.6221625  57.0785284  77.1627617 107.7558627  56.7944956  77.4544477
 109.2330696  56.5739727  77.6998329  21.8985963  58.0967426  84.3533230
  22.0399451  58.2102776  83.4134483  21.5848279  57.1967268  84.4413376
  25.2782989   8.6462045  70.2543116  24.5536351   9.1360241  70.6431198
  24.9082780   8.2613885  69.4598103 102.7828243   9.5498663  16.9352263
 102.7280619   8.5946470  16.9070548 102.8197625   9.7602373  17.8682918
 109.3107577  28.6311817  93.8292313 109.9681290  29.2667365  93.5460949
 108.5670348  29.1645908  94.1095543  45.3573275 107.2518551  89.2145061
  45.4358197 107.4317228  88.2776356  44.4678141 107.5263069  89.4373798
   7.6441270  61.6210556  89.9036598   6.7878872  61.2824535  90.1652622
   7.9808664  62.0530701  90.6886482  26.6985822  44.9776745  93.0615234
  27.4527550  45.1154995  93.6346436  25.9506750  45.2904940  93.5704517
  94.2317595  48.8402128  78.7839937  93.7106194  48.7141132  79.5769262
  95.0019421  49.3264151  79.0783739  48.9008904  24.4968700  76.5487766
  49.7120714  24.9547720  76.3284445  48.3291721  25.1787353  76.9015217
  44.1816558  98.6639838   5.5096930  43.2277245  98.6279635   5.5800456
  44.4967927  98.2149653   6.2941092  39.5508122  31.2914228  86.2255573
  39.3953967  31.3949609  87.1643639  39.8839498  30.3986502  86.1349678
 113.9261784  38.1060743  94.7733974 114.3926235  37.2992516  94.5549965
 113.0424275  37.9719925  94.4309998  78.7212170  79.8006349   0.9639567
  79.4737114  80.2561574   0.5864924  78.1131304  80.5000906   1.2031764
   9.1764665  55.6589746  87.7705669   9.9169594  55.0818491  87.5839520
   8.5506821  55.1031303  88.2349586 106.8009617  51.6506386  84.8323250
 107.0843317  51.4469290  83.9410210 106.2869181  50.8889151  85.1002121
  93.9085998  63.5358238  65.2698755  93.0809440  63.4744358  64.7929621
  93.6738934  63.9380932  66.1061335  12.5535655   1.1951963  88.7141323
  11.8581021   1.7911330  88.4358788  12.4039066   1.0735969  89.6517086
  82.0453514  83.8123040  23.8197631  82.6205124  83.5062485  24.5210093
  81.3323177  83.1740384  23.7990874  76.4950432  72.7335005   8.6938018
  76.4105929  73.2939081   7.9224128  76.6574539  73.3415716   9.4149798
 104.5573952  21.4222055  17.0747489 104.4848874  21.3965183  16.1206454
 103.7210753  21.0776048  17.3878783   7.0903617  43.4133291  90.6030846
   7.7755541  42.7465010  90.5574799   7.2386539  43.9621735  89.8330116
  54.9789799  60.6965314   7.3071212  54.7392381  60.1547395   6.5553111
  55.7034017  61.2368475   6.9916743  40.1049591 109.4988160   3.3370704
  39.8779719 110.2611690   3.8695449  40.0875985 108.7643533   3.9506644
  95.1864900  21.5817833  87.4342442  94.2894878  21.5982985  87.7679348
  95.6332125  20.9346819  87.9800701  43.9231920  51.1769342  49.9372149
  43.4634733  51.5964699  49.2099714  44.8072386  51.5424776  49.9044991
  17.9777777  52.8527069  82.3394203  18.6791945  52.9268265  81.6923046
  17.1798217  53.0582190  81.8523216   3.8430819  36.1644077  79.2102289
   3.3214277  36.0860300  80.0089550   4.7344577  36.3229990  79.5209217
   1.6706628  41.5666008  64.9377537   1.5730618  40.8287907  65.5397034
   2.1915066  41.2181234  64.2142105  24.4999933  45.1421261  85.1263428
  23.8719845  45.7916451  85.4425144  25.3498054  45.4648972  85.4261303
  60.9365524  56.5944220   2.6271361  61.3030184  56.8632999   3.4695357
  60.1787485  57.1657214   2.5023002  54.1746629  93.4254293  19.7188205
  53.8011039  93.1363111  18.8862914  53.4185649  93.6972575  20.2390689
  97.6018824  43.8515568  73.6047363  98.3648564  43.3250093  73.8431692
  97.2210981  44.1146088  74.4426155  25.9196711  28.9471197  61.1806107
  26.1214209  29.7865605  60.7672453  26.6347671  28.3700943  60.9124470
  44.0853357  16.1507630  90.1586437  43.6299324  16.7397499  90.7602596
  44.8246098  15.8151996  90.6656933  65.2521100   0.8477407  19.0071410
  65.8591475   0.1096159  18.9531821  65.1156225   0.9774833  19.9456328
 111.9847872  21.7194271  93.9830112 111.9684034  22.5289512  93.4724903
 112.6825019  21.1991119  93.5846424  40.1637263  76.7033510   2.3469848
  41.0791038  76.4572148   2.2138232  40.2029727  77.4752312   2.9116935
  99.6282663  38.3055472  68.4272718  99.3044343  37.7016878  69.0956450
  99.5002558  37.8394151  67.6010990  17.6685047   3.7617022  61.3035727
  17.5311697   3.8429427  62.2473764  17.2953165   2.9091388  61.0797453
   5.6116325  49.2965364  60.1331568   5.1762635  49.7760296  60.8379745
   5.5866349  49.8941708  59.3858671  42.3459196  61.1927891  83.1700897
  42.1296358  62.1068764  82.9859638  43.0504847  60.9850645  82.5563622
 109.1401871  19.8556864  76.8828440 108.8172497  20.0990152  76.0152435
 109.7694053  19.1539037  76.7160606 113.3509781  62.7058411  70.8786011
 113.9997064  62.8114796  71.5744638 113.4194865  61.7853928  70.6250048
   4.2103070  54.4966316  79.2795610   4.7590730  54.9781227  78.6604834
   3.5787407  54.0331221  78.7295485 111.6456535   3.6578184  24.4806117
 111.2453272   4.4986778  24.7017974 111.2695506   3.4297424  23.6304587
 115.1165048  49.7576427  77.4106407 115.0223528  48.8929224  77.0111084
 114.3062421  50.2149248  77.1856976  51.6122818  46.3347626  85.4388428
  51.7634583  46.2231970  86.3774204  52.4888992  46.3444996  85.0545406
  47.5171579 104.0188508  30.6964606  47.5524778 104.6840482  31.3838405
  47.2152783 103.2281737  31.1436004  84.8256267  80.1141767  19.9550456
  84.3714203  80.8611994  19.5653266  85.5846561  79.9735193  19.3890780
  51.2216724 104.1503911  22.6474589  51.2343622 104.0152030  23.5949820
  50.3149654 104.3862586  22.4512977   4.5434284  60.7073307  48.7639427
   5.0336242  60.0237608  48.3071327   3.8149670  60.2440405  49.1773844
 108.8810333  29.9502683  90.3039455 109.6278866  29.3627501  90.4191208
 108.1151815  29.3971658  90.4581547  70.4830278 109.6655612  14.2208308
  71.2985982 109.1889625  14.3755168  70.6333793 110.1381545  13.4021205
  17.4083543  44.8649025  93.8190842  17.1412909  45.7136583  94.1719532
  18.3470500  44.9577761  93.6564255   7.6560916  87.1566801   7.9425353
   7.0674361  87.8128629   8.3155555   7.7479423  87.4115758   7.0244807
  95.6094434   4.5010667  14.1162223  94.9971022   5.2192693  14.2757434
  95.3864446   3.8450342  14.7766131 102.1635082  14.0459018  27.2880286
 102.1196868  14.8075109  26.7098731 102.0073058  13.2980877  26.7113131
  52.2487296  99.0986972   5.3619975  52.4183084  99.3158727   6.2786883
  51.9056059  99.9082046   4.9835986 113.7668814  75.1818848  85.9961987
 113.4117850  76.0483789  86.1945057 114.5050763  75.3536272  85.4115582
  14.0509951  63.2368660  68.9213610  14.9867320  63.4274006  68.8555861
  13.7703383  63.0996275  68.0165815   2.0045632  25.2195787  67.1047688
   2.1274745  25.8398604  66.3861752   1.1857274  24.7700787  66.8957472
   2.2059114  26.4742041  69.9325180   2.2863467  26.1044836  69.0532732
   2.0998198  27.4144912  69.7881699 103.4246638  21.7575555   0.5542392
 103.5789349  20.9464842   0.0698966 102.6821401  21.5584236   1.1245364
  63.6580563  64.1394901  95.1941013  63.3029938  63.2931471  94.9223232
  64.2554617  64.3864441  94.4881630  34.1052341  24.8387957  79.4034338
  33.5842037  25.0555634  78.6302757  33.5095572  24.3383694  79.9610806
  36.1140442  34.7432709  84.3371773  36.3825178  34.1476965  83.6375713
  36.4135838  34.3188357  85.1411438  71.9188393  88.8032846  21.9359225
  71.6348423  89.1741066  21.1004180  71.9465579  89.5510845  22.5327987
  50.9141352   3.7764126   6.6960258  51.1741593   4.6469026   6.9974631
  51.7406537   3.3126550   6.5617484  45.7597215 106.5035109  15.8204860
  46.0585238 106.9893556  16.5891856  46.5550907 106.3486962  15.3109282
 105.7853522  30.9498835  79.4533253 106.6735544  31.2962651  79.5390463
 105.8962562  30.1171827  78.9944792  37.6406163 106.4181714  21.7371387
  37.5108975 105.8016353  22.4577540  38.5133548 106.2138324  21.4012736
  19.6615554 100.4471927  21.1066836  19.4471050  99.5398002  20.8901805
  19.4540478 100.5267386  22.0377273   8.1889588  33.4878325  82.7345848
   7.8653610  32.6356411  83.0266190   8.8235182  33.2807899  82.0485020
  24.1705370  48.9033031  80.7575417  23.6372280  48.3334589  80.2033806
  23.6057615  49.6534491  80.9433937  94.7776069  59.6020651  77.7232409
  95.0227632  60.3935099  77.2439194  94.5342507  59.9153519  78.5943651
  80.9762903   9.1246658   4.7927684  80.6108236   8.2630497   4.9934691
  81.2136420   9.0743833   3.8668269  14.3403734  81.8387179  12.1908397
  13.7084998  81.2738280  12.6356620  15.1315440  81.3045030  12.1208877
  65.8002056  87.6033072  15.5939406  65.3662480  88.4127526  15.3242892
  66.7347897  87.8021531  15.5370063   5.9523190 108.6579280  30.1347465
   5.0214018 108.7650018  30.3300971   6.0518135 109.0015941  29.2469233
  43.4841136  71.0307364   2.9137725  42.8368277  71.6996353   3.1369895
  42.9691369  70.2358179   2.7754516   8.4036154  25.8283091  86.4543629
   8.6144805  24.9379778  86.1731625   9.1453272  26.3553452  86.1571598
 114.8319287  27.2704124  72.4061346 115.6457027  26.8170094  72.1860695
 114.8945541  27.4315000  73.3476019  88.4496727   0.5114084   2.9301852
  87.7409508   1.1303716   2.7546042  88.4506132   0.4121643   3.8822288
 115.7348352  35.8034492  84.9828529 115.0797032  36.3092399  85.4636955
 116.4840442  35.7560325  85.5767155  16.3383973  67.8141880  92.9535675
  17.0011950  68.4316921  93.2627869  16.7854202  67.2996330  92.2815323
  94.7199287  35.0706315  93.8563347  93.8934054  34.6957779  94.1605949
  95.0245943  34.4632578  93.1821632  31.3848437 107.5564485  12.8443164
  31.0086919 107.8376536  12.0102519  31.9848688 106.8484597  12.6098842
  16.8850708  55.2692461  83.7881947  17.4624574  54.5243359  83.9554405
  16.3443184  55.3345919  84.5753098  69.9003137  53.3399225   3.1556434
  70.1562155  54.1400677   3.6144561  69.9115385  52.6622342   3.8315410
  89.7131862  54.6045351  87.0030308  89.9056019  53.6695004  86.9329166
  89.4456377  54.7263622  87.9139614  91.1486377  87.3327637  93.4782124
  91.3611927  87.6416874  94.3589020  91.9922032  87.0803070  93.1028557
  98.4467377  57.4387074  74.5815372  98.6603703  57.6794434  73.6800718
  97.4899437  57.4239206  74.6051645  35.5939187 100.8607869  10.9821815
  35.8757318 100.3490691  11.7404384  35.4185111 100.2079682  10.3044623
   7.1984738  19.6869791  78.2239914   6.9737709  19.6196771  79.1520071
   6.8520987  20.5377316  77.9547787  39.2384122  97.3207574  13.0115527
  39.1077640  97.2854094  12.0639724  38.3683921  97.1655087  13.3792418
  66.6923059 100.8971171   0.4071158  66.6890324 101.8533378   0.4502219
  67.1474065 100.6230216   1.2033481  34.2961335  54.1790009  79.7005415
  34.0667629  53.2849073  79.9539518  35.2251363  54.1330338  79.4745445
  12.4672055  90.9593678  81.7059803  12.6570094  91.4853764  82.4828434
  12.1219695  90.1365280  82.0523548  31.1712718  51.3205481  69.4255686
  30.9573603  51.0888147  70.3293276  30.3489828  51.2086010  68.9485598
  34.8724134 105.0167470   0.8039588  34.7383932 105.7599263   0.2157706
  35.8030720 104.8093801   0.7196635  53.7397541 101.4537911   6.8983001
  54.2428423 100.6584458   7.0731086  54.3867017 102.1584945   6.9311923
  16.0246074  58.8196182  41.6954803  15.8127785  57.8969717  41.8372011
  15.7824218  59.2496777  42.5156212  16.8544936  57.0104980  93.2544041
  16.1814976  57.6442766  93.5026646  16.7471004  56.2910271  93.8765430
  15.1029170  45.1727772  92.2513771  15.8596635  44.9436522  92.7908897
  14.4085860  44.5860338  92.5511646 109.0065434  18.1530243  15.7696837
 108.2735541  17.5622135  15.9426040 108.7488081  18.6299282  14.9807853
  37.5437689  70.0287580  77.0706272  37.4607873  69.7910070  77.9941082
  36.6769528  70.3546095  76.8283701  87.3025515  25.6232362  42.5085086
  87.8923848  26.3770490  42.5180644  87.8686931  24.8786932  42.3051089
  74.9537553 106.9653039   5.2449340  74.8670090 107.9137187   5.3409499
  75.1530803 106.8356757   4.3177337  48.7456369  41.7458582  94.4382572
  48.9712334  42.6416302  94.1874027  48.0528641  41.4934492  93.8278484
  39.2400861  20.7206559  75.1981926  38.9026213  20.9614348  76.0609627
  39.6395659  21.5239739  74.8645353  54.0317347  43.9316374   6.2374896
  54.2947986  44.6348386   6.8312377  53.0789831  44.0069395   6.1843127
  45.3587580  30.7673597  75.6422853  44.8716688  30.0807095  75.1867771
  44.9729443  30.7940745  76.5178823  15.5840325  42.8858805  88.6782837
  16.5021086  42.8921747  88.4074879  15.4706919  43.7054110  89.1596889
  39.4108593  92.4508529  13.6501903  40.1227547  92.7906208  13.1079787
  39.4425530  92.9807715  14.4466895  11.9352138  44.9721914  12.5402183
  12.5895822  44.4026762  12.9447955  11.1563194  44.8680597  13.0867595
 109.0458079  71.8493891  82.6586914 109.0767040  72.8060913  82.6570702
 109.6277364  71.5897560  81.9444180  37.1519876  88.8036919  68.3020210
  37.3395944  89.5496559  68.8717318  37.9514480  88.2777977  68.3249426
  14.4176495  55.4081249  94.3994045  14.5130658  54.5292807  94.0323067
  13.4889114  55.4755735  94.6210575  62.5115813  97.5326638   6.7260474
  62.8705038  97.0185809   6.0027713  61.8994344  98.1386332   6.3085479
  40.1504887  97.7178054  25.3014201  39.2128962  97.5817590  25.4379672
  40.3140935  97.3884635  24.4176787  49.6861924 107.2491078   8.9021319
  49.1775156 107.1143012   9.7017020  49.5939280 106.4283471   8.4183234
  70.4809631  91.4586287   2.0542258  71.3057126  91.9157200   2.2188014
  70.7153405  90.7498937   1.4550609   1.2322557   5.5047613   6.5567321
   1.9844139   5.6433826   5.9811706   1.0482443   4.5678621   6.4889354
  38.6755056  88.2438569  31.5236014  38.1593725  88.1019335  32.3171348
  39.2833237  88.9459710  31.7556018  73.7583340  99.1282754  32.9627055
  74.3451012  99.2358308  32.2141284  74.0112699  99.8257976  33.5674495
  34.8859985  89.8837047  32.9808063  34.1090791  89.4327741  33.3113975
  35.5176969  89.8294883  33.6979217  18.9987695  58.7350178  86.0164452
  18.8745165  58.9759207  85.0984192  18.1851017  58.9994335  86.4456940
  82.5690759  55.6668470   0.2624148  81.7485393  55.3045448  -0.0717813
  82.3509563  55.9858603   1.1381263  75.6259073  96.9283776   4.5518702
  76.2596334  96.6388373   5.2082175  76.0642828  96.7802243   3.7139529
  46.0698986  39.4298959  89.6044350  45.9456205  38.6746740  89.0296078
  46.2479877  40.1576185  89.0086651   7.2174877  38.4408259  86.1882687
   6.9166178  39.0445518  86.8674088   7.6810217  38.9967132  85.5618858
  34.1432941   1.8063026  21.3970202  33.5070646   2.3430925  20.9244746
  34.1360700   2.1552663  22.2883147 101.9689812  17.2591913  84.1986561
 102.7021529  17.7741838  84.5355129 101.1934521  17.7773285  84.4138813
 101.7795398  25.6091123  14.8697585 102.4979284  25.9404569  15.4086131
 101.6031148  24.7347885  15.2171344   9.6154362   9.6518821  76.7685938
   9.2985082  10.1331711  76.0043001  10.5690253   9.7113305  76.7105722
  76.9109405  72.4997179   0.5892486  76.2838234  73.0130117   1.0986442
  77.2311820  71.8370109   1.2012023  13.0760312  78.8791704  94.1064358
  12.7368999  78.0075359  93.9027882  13.8759804  78.9525652  93.5859299
  55.8784676  31.3119674  93.2463264  55.0872946  30.7753563  93.2945156
  56.1366510  31.2758279  92.3253155  93.0893005  63.2255750  15.0398177
  92.4484028  62.5195854  15.1238364  92.5706638  64.0280120  15.0976390
  22.7972210   9.6521431   4.3542689  22.9672086   9.1840988   3.5367888
  21.8515384   9.5763641   4.4814509  50.3886032  80.5942535  87.8836632
  50.3209066  81.5101910  88.1533051  49.5246887  80.3845596  87.5288200
  27.4461389  37.5937414  59.8503065  28.1970692  38.1251168  60.1148415
  27.2712398  37.0331550  60.6062078  55.3321578  23.3819872  22.3737163
  55.0202992  23.4234672  21.4696902  56.1021831  22.8146749  22.3356456
 115.2765705  13.5707193  24.6456355 115.5963781  13.9761739  25.4515952
 115.6710150  14.0887933  23.9440364  78.7072409  95.8866315  37.3473948
  78.0153979  95.2290587  37.2753829  78.5195578  96.5096288  36.6453475
  85.5418218  72.3634891  -0.1581841  84.6334566  72.0812886  -0.0511056
  86.0003246  71.9846361   0.5917949  47.0025947  16.0871988  26.5408915
  47.2332361  15.3640133  25.9577674  47.6424267  16.0357242  27.2509593
  54.1562439  97.4702411   4.0444678  53.2927288  97.6421838   4.4199771
  54.0868748  97.7688699   3.1376857  52.8547157  84.1469912   7.4696559
  52.4143280  84.8526864   6.9960612  53.2143964  84.5698743   8.2494182
  34.6827316  69.5125866  85.5760098  34.8951554  70.4373407  85.7022762
  33.9168715  69.5189905  85.0018597  46.1875010  42.5207853  89.1444302
  46.7395163  43.1973314  88.7522602  45.7714367  42.0889235  88.3983612
  26.2087226  70.4724407  81.6233063  26.8836904  69.9405956  81.2016487
  25.9652281  69.9753571  82.4042320  73.5371674 101.2393002  42.8363151
  74.4150747 101.4162688  42.4983901  73.5894812 101.4600043  43.7662524
  85.5096104   0.4241234  28.8294524  84.9249145   1.0838705  28.4564990
  86.1919858   0.3076654  28.1683654  15.9532428  16.5728009  57.1102238
  16.3066351  17.1628690  57.7759314  15.4361796  17.1396410  56.5378857
  25.9984112  66.4848852  79.4159365  25.3933311  66.1730671  78.7429714
  26.5349126  65.7210970  79.6281242  67.8148426  96.9752841  22.9796523
  68.0674232  97.8883700  23.1164187  67.8052844  96.5952640  23.8581294
 112.4951460  25.7690530   4.0899581 111.7372467  25.3743082   4.5212382
 112.3751380  25.5665689   3.1621474  56.1465169  69.3723731  10.4375190
  56.3282813  68.7769453  11.1646098  57.0094670  69.5921211  10.0864428
 102.1131481  98.3410220  20.0810260 102.3533453  97.7863221  20.8232135
 101.1785091  98.5095363  20.2005500 107.2372695  15.7051921  81.8894768
 107.1169980  16.6205931  82.1420765 107.0589366  15.6907964  80.9491444
  37.9828827  98.8076787   6.8103808  37.9732849  98.8525109   5.8542842
  38.8890087  98.5920100   7.0309657  44.3373632  66.7277479  66.9717646
  44.3692398  67.2492981  66.1697674  43.6588907  67.1454334  67.5022840
  51.3408184  79.9614382  71.1876774  51.9986963  79.6102238  71.7877436
  50.5084610  79.8315430  71.6421366  48.1311811 106.3470273   3.0583686
  48.9854671 106.7743115   3.1204909  48.2524784 105.5043511   3.4958762
 105.2550294  29.6654707   3.4137839 105.3277781  28.7946802   3.0230540
 105.2460554  30.2633863   2.6663608  12.1892440  42.4547958  70.4714584
  12.7477109  41.6850567  70.3626013  11.3491774  42.1968031  70.0920391
  15.8836341  61.8893766  87.7829647  16.4325237  62.3609114  88.4095478
  15.0008512  62.2256851  87.9373074 101.4311650   5.3376489  24.8824615
 102.0219710   6.0702520  25.0570125 101.0879996   5.5103498  24.0057296
  13.6195934  27.8851515   8.7531299  14.2400635  28.2257181   8.1087226
  12.9968059  28.5996252   8.8868541 108.2527204  37.2208691  51.3548660
 108.8650467  36.4853525  51.3722897 107.4076106  36.8240070  51.1438656
  27.8786111  17.3495913  85.5651665  27.6303363  16.4473999  85.7667542
  27.1893859  17.6624501  84.9792290  28.8909340  41.3633060  94.0566063
  29.0583849  41.0582781  94.9483109  28.7862039  42.3108053  94.1432762
  24.2357004   7.5980812  17.3965854  23.7148941   6.7953258  17.3726195
  23.7349737   8.2241445  16.8735713  11.2069309   6.8383508   2.2747916
  10.3390634   6.4846330   2.0800513  11.6322315   6.9133096   1.4205474
  66.7721274  25.0084787  29.5885867  66.6338613  24.0615755  29.6106547
  67.6552584  25.1133924  29.2346019  36.8817067   7.7762008  67.9992628
  36.4664626   8.5155368  68.4433222  37.1791267   7.2069001  68.7089634
  29.8619199  35.8703780  79.7031641  29.1819191  35.9594107  80.3709221
  29.9296141  36.7416477  79.3126059  40.8528147 110.0692944   0.6278724
  41.3035074 109.4402270   0.0645083  40.6311176 109.5706420   1.4142722
   2.5299776   8.3829694  25.5338782   2.9364813   9.0668541  25.0016326
   2.1371115   7.7858024  24.8972625  94.6660378  51.8904596  24.1058845
  94.5305600  51.8335729  23.1600303  93.9029624  51.4533239  24.4838542
  67.1218599 101.2601476  68.6215705  66.6840042 101.0930781  69.4562072
  67.3274959 102.1947770  68.6418456  52.1926500  87.9360490  15.2404136
  52.3721291  88.1993608  14.3378180  51.5909446  87.1960907  15.1589030
  43.3467288  80.0340300   8.9641494  42.4546076  80.2006798   8.6598796
  43.2643284  79.9519138   9.9142474 101.0948517  33.8342672  29.1551036
 100.5094912  33.3254820  28.5940951 101.6150572  33.1768995  29.6171493
  41.3993931  80.0721645  91.5072250  42.2141552  80.5668831  91.5946770
  41.0873032  79.9639177  92.4056244  93.6215032  92.6207690  17.4587745
  92.9926981  92.6806288  16.7395705  94.3166746  92.0550756  17.1226710
   7.2244108  19.2053800  10.2992553   7.1681917  19.0427499  11.2408656
   7.1403110  20.1551300  10.2147883  64.2092527 108.2500367  12.2825259
  64.8785485 108.1843095  11.6013831  64.6354116 107.9126172  13.0704135
  38.8180661  53.6190319  82.5356960  38.7971401  52.6987219  82.7980423
  39.5679069  53.6824608  81.9441319  86.6342510  96.3148599   4.1579837
  86.7400230  96.6853528   3.2817573  86.3058628  95.4288058   4.0053386
   0.7686223  72.0898771  78.6337757   0.6650905  71.1942291  78.3123302
  -0.0283016  72.5390768  78.3520603  25.6776023  47.0772982  89.2624855
  24.9278927  47.4881554  88.8319492  25.3784394  46.1923885  89.4714642
  85.7483568   6.8936353  28.7780971  85.1954522   6.1222988  28.9028567
  86.6357371   6.5426641  28.7032145  15.1411843  38.9600611  90.1147270
  15.6049418  38.7675953  89.2997932  14.3186474  39.3606782  89.8333454
  54.1246475  83.4443741  20.8795566  54.6408094  84.1893392  20.5715960
  54.1130913  82.8383760  20.1387042   9.8743213 101.7874532   3.1819362
   9.6857561 102.3774962   2.4521846  10.3662122 101.0675626   2.7869243
  93.3001246   3.1665807  37.2245044  93.9254274   3.8884788  37.1605414
  92.4790885   3.5308653  36.8937034  17.5273085  58.2115650  66.9379044
  18.4216309  58.0516386  67.2393036  17.1217918  57.3446846  66.9205236
  99.2241695  16.8166738  32.9990691  98.3515122  16.5039354  32.7605456
  99.7120335  16.8165498  32.1755332   6.3091350  44.3674946  72.7279091
   5.8855528  43.6483145  72.2593069   7.0575541  44.6027946  72.1795177
  30.7642932  74.3189030   3.2559508  29.8877091  74.1696005   3.6102694
  30.7869996  73.8051789   2.4486083   5.5423105  27.0499139  12.8094882
   4.8665035  27.7217680  12.7193183   5.5065859  26.5622907  11.9865817
   9.7108459  54.8553896  90.5727386   9.4676769  54.2226601  89.8968983
   8.9073282  55.3479815  90.7398987 105.7817807  46.0719442  82.6984692
 106.2734344  45.6274700  82.0078564 105.7255497  46.9813490  82.4051285
  60.2775134  91.1132221   6.2739867  60.4491128  90.1816564   6.4117164
  60.3895320  91.2406783   5.3319472 108.8320949  13.1592327   1.2414187
 109.6457221  13.2958418   1.7267913 108.5611441  14.0380579   0.9759253
  88.5848107   0.3782325  17.0495433  88.7250330   0.5504947  17.9806155
  88.8729432   1.1791855  16.6117209  83.4992517  92.2109656   4.3316001
  82.7804769  92.8402429   4.2715758  83.2784380  91.6665034   5.0872630
   6.9112879  78.1037664  93.0531788   7.7402717  77.8407240  92.6533985
   6.4643753  77.2787952  93.2427311  99.4399454   8.1612974  27.4272555
 100.1944711   7.7308231  27.8292674  98.7590124   7.4886852  27.4147624
  28.3275485   5.7228637  93.2213974  28.5485029   4.9622709  92.6838970
  28.3220577   5.3887963  94.1183949 100.7998170  45.1589108  80.0129318
 101.2488403  46.0036421  80.0451374 100.4614391  45.0335741  80.8995056
 110.7250383  15.7389360  32.6745147 110.5812099  15.8584552  33.6132735
 111.2083199  14.9152857  32.6092071  21.5762520  65.2716923  82.2174454
  20.7629895  65.7756805  82.2462749  21.9518471  65.3728437  83.0920410
  16.2214446  49.4993591  91.6044807  17.0514488  49.2051268  91.9796562
  16.4667583  49.9193621  90.7800770  78.1239260  88.7559633  34.5451850
  77.3038901  89.1869979  34.3043918  78.6836113  89.4653349  34.8610610
  76.3494553   2.8324466   9.2275733  76.1586887   2.0850044   8.6608619
  76.4138991   3.5765939   8.6289710   3.4527472  63.9662313  79.3682194
   2.5346476  63.8243484  79.1375780   3.9417166  63.6588955  78.6048794
 103.4145453  12.2026813  92.3342228 102.5734331  12.1431804  91.8812084
 103.3176591  12.9521143  92.9217625  90.8060791   1.6537147   1.9484252
  90.0541606   1.1156183   2.1960277  90.4304411   2.5094610   1.7414969
  33.5730071  78.6747723  12.3987216  33.7059690  79.2122822  11.6179294
  32.9735101  77.9845576  12.1151084  32.6134396  69.2437172  83.8568687
  32.8018546  68.3268213  83.6567974  32.5026274  69.6577454  83.0009842
  87.9482425  86.0015707   0.7985229  87.6994432  85.7916408  -0.1016217
  87.3368133  86.6893725   1.0618037  39.0497720   0.7233244  31.3345450
  39.9013651   0.2895218  31.2813109  38.7664306   0.5846983  32.2382754
  15.9290875 103.3277039   8.1178397  15.2257932 103.2515769   7.4730033
  15.7710327 104.1688590   8.5464496  79.0007175  86.1150556  38.5121554
  79.6879209  86.3175278  39.1469687  78.8362659  86.9449120  38.0643481
 106.1232843  40.5142307  77.1281004 106.5694149  41.0085917  76.4404917
 106.2821760  41.0176659  77.9265594  19.4534063  25.9520531  53.9888525
  19.5617473  25.9394383  53.0378914  18.8155711  25.2607775  54.1664362
  41.8493843  59.6343613  70.1171637  41.5141439  58.7754440  70.3742790
  41.0667372  60.1753950  70.0123930  13.3852780  53.8473272  89.6043491
  12.9005063  53.3372211  90.2532101  14.0484369  54.3137598  90.1131630
  70.4669417 103.7878947  13.9787787  69.7258486 104.2970090  13.6504191
  71.2388862 104.2578845  13.6634368   8.9518523  45.7283974  83.7117958
   8.0504012  45.6239605  83.4073162   8.8791579  46.2798071  84.4908333
  33.3579278  36.6917324  86.8872643  32.4786639  36.9332790  87.1784401
  33.2124376  36.0422325  86.1993599  13.8923192  66.5268803  90.2048779
  14.3266344  65.7291794  90.5069923  13.7165701  67.0216990  91.0051918
   7.5675476  50.9976530  90.3647900   7.9054248  51.7692900  89.9102020
   8.3197963  50.6558371  90.8480263  21.5440273  50.8032036  63.4982109
  21.4669919  49.9808979  63.9820576  21.8668437  50.5439520  62.6351833
 107.2872754  56.0929728  71.4276361 106.6790887  56.6050100  71.9606972
 107.2959681  55.2282715  71.8380642  93.7787464  41.4013200   2.8779048
  94.5074716  41.9129949   2.5266475  94.0973797  40.4987055   2.8767985
  14.3573940  31.5969186  17.3262805  13.8407696  31.0584169  16.7268199
  14.6410692  32.3412996  16.7955607 101.8835904   1.9056230   1.4056510
 102.3225500   1.6374260   0.5984229 102.3493006   2.6954370   1.6804904
  15.6409788  89.4904041  76.2233782  16.3919997  89.4632530  75.6305361
  14.9243164  89.1042233  75.7199049  22.9643750  45.3670073  91.7632866
  23.7171841  45.1052904  91.2331772  23.2452130  46.1729336  92.1966934
  40.8580351  34.4387221  92.8487206  40.1376581  35.0603890  92.9527664
  41.5786076  34.8211098  93.3495045  96.5434685  41.0131937   8.1397742
  95.8022942  40.4164034   8.2433909  96.1476591  41.8843179   8.1132716
 111.6590865  37.9543281  50.1239777 111.2421825  37.0983148  50.0256634
 111.7553728  38.2781196  49.2283678  86.7827524  71.4072590   9.9673194
  86.5195478  70.9594135  10.7713050  86.9579662  70.7006042   9.3458957
  33.4093471 106.4332204   9.0505809  33.5674847 105.8628516   8.2983130
  33.9796318 106.0875993   9.7372836  82.7411934   3.2943111  17.8315658
  83.2897802   3.2423978  18.6142463  83.3125588   3.0075269  17.1191520
  84.6899279   7.4608713  25.5288524  84.0596726   7.9292970  26.0761947
  85.4033162   7.2341829  26.1254424  25.5799055  28.1486869  86.7743206
  25.6443024  27.1944547  86.8134117  25.8469820  28.4426498  87.6452255
  50.8182610  99.2076497  12.1449107  50.6306626  98.7771087  12.9789752
  50.6984402 100.1401906  12.3244590  44.9120858  10.7308632  12.4293155
  45.3076818  11.5511995  12.1347350  44.0654542  10.9902197  12.7928752
   3.0802381   0.7784801  15.4039306   3.6690223   0.6689888  16.1506385
   3.5523403   1.3623529  14.8102588  33.3351564  60.1632071  87.4642944
  34.2509270  60.4196882  87.5729847  32.8367424  60.9345484  87.7342033
 102.5621369  11.6433864  64.6437758 102.8539112  10.7529598  64.4482249
 103.0947044  11.9108730  65.3928107  56.2693406  83.8871579   9.0601558
  55.9517540  84.7337227   8.7459964  55.5422319  83.2849793   8.9022655
 110.9133304 106.4814286  25.9045142 111.1882700 106.3480000  24.9974078
 110.9135498 105.6037192  26.2864322  25.1598787  51.6735840  76.2454128
  24.3056989  51.3576078  76.5399742  25.2456117  51.3361692  75.3537655
  75.9527087   2.1344906  22.8528518  75.7435001   1.6110140  23.6264438
  76.9076567   2.1998268  22.8589648 103.8258328  43.6475849  83.0479431
 104.7240677  43.7183666  82.7248383 103.7096765  42.7151251  83.2303143
  40.9994042  95.9760671  38.7937564  40.5894507  95.2607779  39.2801017
  40.2693702  96.5373187  38.5324592   1.1749603  39.1265249  90.9077168
   1.0849313  38.2351685  91.2447739   2.0391056  39.4095135  91.2067127
   9.7354424  17.1094286  79.1493607   8.9974189  16.9544029  79.7388697
  10.3716660  16.4320874  79.3788433  48.8945341  57.4240923  77.8789186
  48.4870338  57.1890688  78.7125492  49.7957468  57.1109056  77.9561424
  43.6174870  48.6205816  93.9184856  43.2598066  48.2090378  93.1317711
  44.0184498  47.9000139  94.4045448  14.1973055   1.4845234   2.4584216
  13.9297331   0.7185322   1.9505900  14.2723835   2.1862894   1.8117923
 115.7488744  59.2684460  86.4017296 116.0100958  59.5333576  85.5197906
 114.9069875  58.8294125  86.2804508  32.4347067  27.2089100  81.0763741
  31.8893433  27.9947543  81.1118698  33.2390261  27.4949169  80.6433582
 110.9278586  25.8469396   9.5542163 111.2288620  26.5007978   8.9232558
 110.2526381  26.2970358  10.0618762  93.0927910  89.1287427  20.0959128
  92.4076713  89.5322900  20.6288260  93.9096512  89.3725495  20.5312652
  85.2124418  90.2571182  20.4264850  84.9656595  89.3911271  20.1018542
  85.9007324  90.0848584  21.0689944  65.1074923  22.8252058  14.8462886
  65.7400359  22.3771911  14.2846793  65.6072057  23.5334854  15.2523154
  45.3229380  53.3185101  79.5717096  46.1410093  53.6774874  79.9154139
  44.9122810  52.8943300  80.3251457  65.4672183  69.4972949  10.6588096
  65.0748051  69.3463366   9.7988910  65.7133807  70.4222648  10.6507033
  66.0237421 107.9780440  37.0181865  66.2677969 108.7965350  36.5860385
  65.2648939 108.2074361  37.5546187  26.9591022  52.8203964  62.0266294
  26.2587810  52.7998495  62.6788235  26.5066767  52.9521179  61.1934471
  82.8193439  99.7034173  14.8499507  81.9132866  99.5298963  14.5946330
  82.8387321  99.5368009  15.7923430 106.8008258  12.1788221   3.4811229
 106.3296511  11.6314607   4.1093081 107.5715783  11.6628175   3.2446593
  17.6041543  62.8554201  89.7364330  18.4242201  62.4187613  89.5061111
  17.4136865  62.5541592  90.6247997  17.5629604  34.3815637  70.9821224
  17.9949439  34.9818039  70.3743935  18.1762278  33.6525488  71.0752535
  83.6058773  80.2329211  48.5557765  84.3587078  80.7635980  48.8162917
  83.8521255  79.8690395  47.7053756  23.9941835  65.5837059  77.5092459
  23.6726475  66.4020157  77.1308041  24.4008374  65.1237154  76.7748976
 115.1403939  34.8151970  88.8807297 115.9392096  35.3332114  88.7818050
 114.4310654  35.4552102  88.8218403  15.5991042  55.4618549  72.5715780
  16.0114503  56.3139009  72.7137661  15.8868182  55.1994705  71.6971588
   4.7944933  32.8488517  93.3418751   4.0021992  33.2457948  92.9800224
   4.9459502  33.3203244  94.1610241  19.9104345  33.0314469  71.6563416
  20.4260659  32.4939799  72.2575760  20.4602003  33.7966275  71.4875603
  14.9584949  45.5012369  79.5718527  14.8764980  46.4495182  79.4705296
  14.4990981  45.1388073  78.8143396  34.3793486 104.9282460  18.1352443
  33.9250315 105.3522925  17.4072284  34.5049114 104.0246396  17.8454799
   2.0549226   9.7808892  82.8445530   3.0017832   9.8437458  82.7191067
   1.7140019   9.5464647  81.9813919 110.5613735  18.6224847   4.8431319
 109.9209406  19.2353111   4.4818515 111.4028408  18.9279705   4.5042438
  88.2610943   0.6796652  28.0777186  88.9556053   0.6514555  28.7358111
  88.7229707   0.7903343  27.2466582  50.5962230 103.1159310  31.8587703
  50.5585076 103.7169843  32.6027793  49.9521435 102.4385886  32.0651740
   5.7054299  51.3822174  78.9667940   6.4278662  51.4139986  78.3396530
   4.9334535  51.6245365  78.4553623  88.8116993  61.9764905  28.8598365
  88.0951704  61.4412146  28.5188216  89.3220628  61.3756936  29.4028014
  29.1637421  53.4675121  76.7602730  29.3445444  53.7383080  77.6603889
  29.9207401  53.7743139  76.2612152  91.5901722  93.4381967   5.1204413
  92.3676933  93.0970006   5.5623454  91.8962206  94.2263465   4.6716804
  80.7647718  66.8216197   8.2619494  79.9906553  66.3652437   7.9322547
  81.4971174  66.4187138   7.7955073  62.1758856 103.8040929  21.9713801
  62.6503290 104.5106940  21.5333766  61.2663735 104.1018681  21.9900054
   7.6178539   8.0176645   9.3311328   7.4184931   7.9703813   8.3961219
   8.4642637   7.5791794   9.4180411 106.3209250  24.0218931  15.4670066
 106.9662502  24.7126871  15.6173057 105.8926489  23.9055734  16.3151187
  55.2605642  98.8669448   6.0179061  55.9174813  98.1909947   5.8512134
  54.5006098  98.5943608   5.5037135  64.4886221  98.4951835  35.8773059
  65.1575268  98.9299445  36.4062518  64.3268360  99.0988498  35.1522941
  87.4460281 108.4955649   5.1905841  86.9536556 107.8721099   5.7245368
  87.2332872 108.2582860   4.2879886  26.0407710  41.8316603  95.3058243
  26.9426179  41.9011450  94.9926472  25.5063677  42.1006489  94.5586300
   4.4436926  22.9736829  85.0197220   4.4423026  22.9762554  85.9769249
   4.7922945  23.8318658  84.7784138  67.3676290   2.4148517  18.3242053
  66.5286782   1.9544845  18.3028716  67.5221159   2.6734119  17.4156207
  84.4616421  10.7068592  10.3022212  83.5789438  10.6372553   9.9385852
  84.4797125  11.5657144  10.7244414 111.6205313  31.6273313   1.0934276
 112.5107291  31.3431459   1.3008327 111.7329767  32.4807554   0.6747836
  14.1470373  24.7353512  13.0137462  14.4665277  25.3208738  13.7002772
  13.9085520  25.3186804  12.2932738  46.3091850  66.0883951  90.4673004
  47.0377159  66.2536907  89.8688412  45.5538177  66.4957094  90.0433350
  82.0834840  99.1643290   3.0052299  82.1171201  98.3185391   3.4521598
  82.2588075  99.8060422   3.6934871  47.7772040  86.4822345   4.4557685
  47.3411072  85.9019976   3.8317698  48.6151124  86.6914706   4.0430182
  37.6234770  61.6502476  89.4715309  38.2970834  61.5781403  88.7952995
  37.0853925  60.8667755  89.3581104  38.8318014  51.3970852  76.1234188
  38.0960965  50.9665442  76.5588522  38.5650396  51.4577103  75.2061415
  14.1523015  58.1520128  93.7282467  14.1736901  57.2550726  94.0618229
  13.3053684  58.4939337  94.0146446   2.6353348   6.0209947  21.1701030
   3.3169210   6.6699749  20.9954757   1.8403566   6.4024120  20.7975787
  55.0273132  46.6339016  85.9427452  55.8593225  46.8918800  85.5459499
  54.6351814  46.0339975  85.3082561   6.8061912  35.3596025   1.9579619
   6.8820369  35.1383691   2.8861541   7.5930345  35.8706766   1.7684859
  37.1836329  46.2011051  58.7312126  36.5101814  46.6406679  58.2120991
  38.0093098  46.4652300  58.3253431  52.1049833  32.9241014  81.1742687
  52.5557089  32.9050660  80.3300381  51.3268900  33.4593487  81.0183430
  46.8527412  56.4845514  79.9719477  47.0948982  55.7871246  80.5811977
  46.6905212  57.2448254  80.5304241   3.7891233  11.9894272   7.2579783
   2.8989637  11.6452509   7.3313350   4.1273058  11.6081911   6.4477271
 103.1159093  61.2873464  10.8556956 102.9490545  60.7674413  11.6418761
 103.2814433  60.6394773  10.1707858  81.8213826  14.4383722  25.1345843
  82.5973596  14.9871164  25.2484721  82.0843922  13.7827116  24.4886989
  38.9573288  92.0062923  84.0968609  39.0740752  92.2204018  85.0224781
  39.7105217  92.4058151  83.6617661  34.4081903  58.5303164  73.6926746
  33.9039183  57.8042507  74.0597868  33.8609433  58.8675451  72.9834270
  43.1704950  71.4064789  79.2989111  42.8587341  71.3194370  78.3980989
  43.5477924  72.2853184  79.3379164  45.9210587  95.0282097  69.3441916
  45.6833124  95.8886719  69.6895933  45.0967932  94.6632290  69.0223122
  40.8405526 104.1892390  27.0652694  41.5069468 104.2896466  27.7450198
  40.4954929 105.0726418  26.9357890 111.2779869  78.9054637  23.5354060
 110.3438295  79.0473752  23.6884994 111.3196100  78.0744820  23.0621547
  27.8914332  43.8224125  84.9160290  27.4636388  44.6781588  84.9463367
  28.8141203  44.0213966  84.7570229  34.0072036  70.0795412  94.2508125
  33.2408381  70.2375269  94.8021412  34.6967435  70.6180096  94.6391678
 113.6440852  19.3918138  24.5132846 113.9554884  18.8299995  23.8036269
 112.7672722  19.6604400  24.2389316  10.5348957  79.6462631  87.5793839
  11.1734998  78.9932537  87.2930336   9.7886485  79.5249939  86.9923210
  55.9730030 101.1233907  12.6028079  56.2215151 100.2302461  12.8410644
  55.4302980 101.0205321  11.8210620  10.4086483  12.5218588  24.0672130
   9.9779022  13.2293420  23.5874671  11.3413561  12.7307325  24.0156764
   5.4879773  27.1553421  86.9757843   5.4259485  26.6941953  87.8122807
   6.4066523  27.0678425  86.7215919 106.7590656  72.2527266  84.0197849
 107.7147575  72.2038317  83.9975739 106.4724608  71.6522646  83.3316422
  48.1617880  28.8717175  73.6499882  48.5646057  28.3239222  74.3237019
  47.2910309  28.4947681  73.5238266  97.0265307  25.1729971  27.5499553
  96.1322560  24.8342806  27.5921363  97.4585905  24.6272951  26.8928641
  29.1636086  74.6775675  87.9630470  29.0632224  73.9515734  87.3473549
  28.5577941  74.4730330  88.6753559 105.9222367  27.7020174  25.1086635
 105.5379655  27.6983553  24.2319888 106.3277676  26.8393808  25.1960200
 100.1322629  32.3243147  43.2477874  99.8870423  31.9675070  44.1014689
  99.7885420  31.6923433  42.6163501  23.7648773  84.8454571  88.7340927
  24.2340612  85.6338024  88.4609318  23.2391906  84.6033287  87.9716873
  82.5390400  81.9849186  14.7059936  81.9414629  82.7097969  14.8895282
  81.9728149  81.2832098  14.3847007  15.4752898  55.4942608  91.0166073
  14.8200810  55.1939917  91.6464996  16.1580575  55.8956146  91.5541649
   7.7133978  10.7674032   9.9127406   7.2452057  11.3321119   9.2978114
   7.6590479   9.8939996   9.5248717  92.3859646  42.8449827   5.5344504
  93.0360439  43.5210901   5.7255191  92.4874868  42.6728254   4.5983428
  10.3956688   1.1922222  13.5024089  10.0433481   0.3022772  13.5124129
  11.3453663   1.0736757  13.4865207  21.4252079  21.0823446  11.4730281
  20.6026066  21.3282352  11.8962306  21.8539369  21.9161516  11.2801856
  58.9819659 105.6026607   0.6698245  58.9251221 106.5340524   0.4564780
  59.9015416 105.3795676   0.5254573  90.7917776  67.4000931  93.3268738
  90.2154936  68.1626940  93.2761860  91.2219514  67.3677397  92.4723911
  99.5221736  10.2978044  19.7948569  99.6399357  10.3417307  18.8459414
  98.5821488  10.1617675  19.9135035  98.0262759  15.9324747  12.0196837
  98.7645008  16.1015278  11.4342994  98.2057001  15.0672680  12.3877353
  42.6293325  70.3304291  87.4964523  43.2499027  69.7357321  87.9177189
  41.7854643  70.1176834  87.8950214  24.8311973  64.6815205  92.0063305
  24.7233129  65.1548004  91.1813545  24.0100574  64.8282957  92.4758148
  28.3178639  99.3990612  92.5481987  27.4572229  99.0017223  92.6810551
  28.3101201  99.6876717  91.6355801  32.5468659  51.8383837  79.6023846
  31.9390249  51.2168980  80.0030231  32.0003796  52.5863600  79.3613148
  60.9275426 104.5783048  37.0817679  61.3011278 105.4051595  37.3866767
  61.4663280 103.9046245  37.4966163  76.1752809 107.9125552  20.9874553
  76.1133445 108.7141042  20.4679126  75.4613317 107.3624473  20.6651324
  24.5479536  47.1527958  82.7143764  24.3644428  46.2490511  82.4578571
  24.4021821  47.6623201  81.9172764  34.6789646  60.0771952  95.0567722
  34.0722752  60.7319784  95.4023361  34.2130899  59.6852160  94.3181610
  81.7470325  92.2698812  22.0728415  82.3943103  92.3216109  22.7761096
  81.9944109  91.4896612  21.5765590  43.0618906  69.1500807  95.3116608
  42.6909876  68.5899353  94.6298218  43.4286499  69.8954248  94.8360729
  22.2266090   8.2885223   1.7712993  22.1203935   8.5570055   0.8586806
  21.4098203   7.8374391   1.9848651  37.7351117  61.7659521  65.8374023
  38.4264040  62.4044418  65.6622505  37.0410466  62.2736740  66.2577868
   2.4156041  78.6494684  92.9668713   2.2344480  78.0261469  93.6703491
   1.7685209  78.4438562  92.2921562  96.7847874  46.5357691  24.7246188
  97.2212484  47.3783022  24.5986480  96.2560227  46.6555315  25.5134791
  13.6303604  40.2364969  70.4414558  14.4734359  39.8933625  70.7376242
  13.0134284  39.9806929  71.1271620  39.2891312  68.5065413  73.0832005
  39.1121316  69.2399406  73.6722994  39.5317316  67.7856827  73.6643553
  64.5665073  69.6109724  59.7120762  64.7736979  68.7004042  59.5019007
  64.8715019  69.7243643  60.6122732   4.8345512  65.2693319  68.9595652
   5.2168739  65.1512671  68.0900097   3.9200824  65.0058079  68.8569260
  14.9650778  95.4957538  11.4563292  14.4195093  95.7401614  10.7087630
  15.7042206  95.0260119  11.0700053 112.7819898   6.5431076   2.8803176
 112.6481511   7.2056204   3.5581035 111.9037177   6.2124019   2.6919002
  56.3361359  93.0956650  86.8240452  57.1306038  92.8098869  87.2750282
  56.6229820  93.2857895  85.9308434  35.8567619  72.1181631  84.8690414
  35.5361295  72.6204062  84.1199207  35.3148866  72.4095011  85.6023407
  29.2855680   7.0774131  13.9763373  28.7181700   7.0811849  13.2054347
  28.7932909   7.5627142  14.6384353  20.2489114  64.2827368  94.6928501
  20.2781749  63.3307266  94.7879696  20.8961058  64.4756699  94.0145111
  -0.1041972  32.6950937   9.5168132   0.2210129  33.5375791   9.1994781
   0.6048548  32.0794016   9.3313426  30.8905101  81.6401100  82.0641232
  30.7649350  82.2470951  82.7935314  31.1794281  80.8262157  82.4768448
  50.5515909  68.5915661  91.2046909  51.0227060  67.8799868  91.6382122
  50.1440334  69.0797615  91.9200897   9.0463853  63.0034542  91.8918991
   8.8470620  62.9713964  92.8275681   9.5143074  63.8302517  91.7748833
  36.2412904  97.2244458  14.5187205  35.6831850  97.1000390  15.2863616
  36.9457408  97.7956681  14.8248023 104.7839811  10.1494842  26.6132373
 104.1524842  10.2511697  27.3253554 105.5806353   9.8373132  27.0423430
  18.3794248  79.7763014  78.1020880  18.3886266  80.7175827  78.2756901
  19.2615056  79.5826292  77.7848244  58.5242319  88.3370304  84.9553204
  58.9986134  89.1447353  85.1523018  57.6383162  88.4938049  85.2821350
  13.4614313   3.8902097  10.6803626  13.7791574   4.1357952   9.8114699
  14.0987385   4.2706590  11.2847823   2.0656431   8.3992153   2.0345134
   1.2501133   8.5349041   2.5169295   1.7856491   8.0908447   1.1726874
  52.8639936  54.8406029  87.5536919  53.0878258  53.9099598  87.5475883
  53.7088490  55.2900028  87.5758743  42.6931791  94.7954636  26.1233062
  42.9578460  94.5054989  26.9962901  42.9287742  95.7228522  26.0972995
  98.9667323  13.4514814   6.9177550  99.2043879  12.9032093   7.6655120
  98.4292986  14.1488748   7.2933024  95.9427574  14.8732906   6.4388389
  95.4023340  15.5879312   6.7756766  95.8022013  14.1552787   7.0560378
  82.2838035  15.3571563   8.8734454  82.0737731  15.9587103   8.1591338
  83.1208142  15.6727701   9.2140788  45.6599998  61.0405064  77.3244429
  45.4990578  61.9711304  77.4802256  44.7869921  60.6502533  77.2821236
  24.8525810  95.1178360  69.5660830  25.2953720  95.6749535  70.2062321
  24.7518611  94.2759609  70.0102997  19.7535145  38.4914422  69.8098135
  19.7426331  39.4454455  69.8872185  19.8213470  38.1787038  70.7119322
 108.8528677  88.6193085  69.2862606 108.9873459  89.4132328  69.8037767
 108.5229911  88.9348316  68.4449196  36.7232108  51.3160706  65.4402685
  36.0581088  51.7919588  64.9428701  36.8554568  50.5054188  64.9487591
 109.2250135  73.3925729  33.5469836 109.3917396  72.4500662  33.5577888
 108.2708743  73.4668165  33.5285586  20.8374107   0.7510811  11.2719077
  20.0412071   0.3786665  11.6508502  20.8275736   1.6678005  11.5471572
  25.3781629  92.0578289  94.4989872  25.9241056  91.5627670  95.1097965
  26.0027885  92.5138092  93.9349270   4.8284715  36.6333985  85.3941727
   4.5958105  37.1020222  84.5926189   5.6468958  37.0392942  85.6799412
  43.4269524  59.8100615  76.7374754  42.4993849  59.9789953  76.5722227
  43.8021469  59.6636343  75.8691311   8.0815810  82.2422218  85.4770756
   8.7227321  82.3162460  86.1839485   7.7264661  83.1260490  85.3822899
  62.0009804  85.1211262  92.2522736  61.7386246  85.3779316  93.1362724
  62.3360348  85.9266090  91.8583679   3.7196768   6.5131670   2.2662467
   4.1708410   6.9237619   1.5286178   2.8810680   6.9715887   2.3193091
  71.9055720   2.9645115  17.4227065  71.3424834   2.9337698  18.1961555
  72.7492400   2.6302534  17.7272243   6.4058828  35.4784536  88.6323261
   7.0251417  35.6771588  87.9299927   6.1838251  34.5565152  88.5021210
  74.2714097  39.7977453   7.7805060  73.4796917  39.4475847   8.1889171
  74.9685439  39.6088892   8.4086532   3.1880492  82.3663521  92.5707150
   3.3045122  81.6526604  93.1978512   2.5496900  82.0304966  91.9414806
  23.6326361  62.0863628  90.9061146  23.1202912  62.5652742  90.2546692
  24.2563772  62.7305555  91.2410641 110.5463579  17.2357851  11.5007991
 110.4992225  17.0803457  10.5574817 111.0418680  16.4911752  11.8417663
 102.4033692  19.0274006  24.1272849 101.9717266  19.5619207  23.4608001
 103.0418470  18.5066086  23.6400908 110.5862954  24.1967254   5.1950664
 110.0290944  24.1741281   5.9730453 110.3772333  23.3882719   4.7271651
  67.7525104   8.7497473  74.0112019  68.5682000   9.2402220  73.9096403
  67.1262420   9.2077685  73.4506321  98.2824482  72.5700252   3.3482284
  97.6138557  72.2381656   2.7489966  98.0358232  73.4822350   3.5008067
 110.0444105  28.6441522  11.4668864 110.6933715  29.1349130  10.9626693
 109.3093994  28.5299783  10.8644313  45.8146573 105.5381827  22.1502608
  45.2943958 106.2784390  21.8378848  45.8199168 104.9227958  21.4171142
  48.3109331  68.0684090  89.0421963  48.8988161  68.1052208  88.2876968
  48.8801336  67.8451347  89.7786713 110.2718737  36.8373876  55.5231112
 111.1765292  36.8400198  55.2103442 110.2881124  36.2761789  56.2983626
  12.2581172  45.4516745  75.0420284  11.3036132  45.4652452  75.1125288
  12.4426377  44.7438955  74.4245911  15.2615178  79.3901062  92.4462223
  15.5837274  79.2883968  91.5506363  16.0502613  79.3706322  92.9881954
  88.0543197 107.9658322  16.3891524  87.6166500 108.3913856  15.6518764
  88.5911478 107.2828345  15.9872073  75.8066429 102.0465236   3.6371440
  75.1334394 102.7068715   3.4729117  76.6222180 102.4606423   3.3550471
  39.5563006  70.9421110  84.9561977  39.5931983  69.9918222  85.0649357
  38.7492132  71.0958290  84.4650650  41.8907356  90.9561634  78.6878252
  42.3062849  90.2248192  78.2310009  42.5957966  91.3486767  79.2026567
  26.4600658  58.2824945  69.4861984  26.6333985  58.1580734  70.4193163
  27.0414233  57.6599503  69.0495062 102.8972342   1.8691879  20.2911586
 102.1730711   2.1362596  19.7250384 103.4604981   1.3403230  19.7261161
   4.0615165  19.1291195  22.4226207   3.8672436  19.8573166  21.8325252
   4.6686113  18.5769611  21.9298858  47.0048237  71.5862417  60.2028227
  47.7914238  72.0826817  59.9768877  47.1619463  70.7125330  59.8448086
  19.2267872  87.0267491  32.0058364  20.0202681  87.4078255  32.3818702
  19.1692973  86.1562185  32.3996753  20.9954262  65.8139610  75.4017496
  20.8822513  65.2045202  76.1311340  20.8328438  65.2853251  74.6204996
 110.6907137  25.8820200  87.5620365 111.2357022  26.6109228  87.2655201
 111.1815067  25.0990224  87.3124981 115.1499861  76.0179663  89.5392132
 114.9781421  75.5678654  88.7121010 114.2891932  76.1024952  89.9492455
  48.9450645  80.0677395  94.6815205  48.1513786  79.7442865  94.2552853
  49.6536589  79.5617437  94.2839146 104.3962910   8.3100372  15.0230807
 103.9321639   8.4146171  14.1924876 103.9943077   8.9550739  15.6049460
  46.1161518  58.6804581  92.9226589  46.4916611  57.8006601  92.8882790
  46.5291452  59.1457462  92.1952152   3.3388492  81.4075279  72.0437193
   3.3956701  81.6367912  71.1161184   4.1903102  81.6550922  72.4042177
  84.6343216  19.5273357  16.7417830  83.7084713  19.3316608  16.5977496
  85.0470396  18.6699205  16.8453711  19.7073531  82.2792912  84.8732853
  20.1559734  82.0503521  84.0593052  20.0024056  81.6212082  85.5026531
  82.3262705   6.3002063  71.7807388  82.0410598   5.8135844  72.5541019
  82.7043403   7.1067286  72.1312046  63.2540655  69.9872828  56.7407084
  63.0847359  69.6908617  57.6349640  63.9152384  70.6727409  56.8367386
  29.4288874  69.8368311  88.0942917  30.2938294  70.0193977  87.7271748
  28.8500214  69.7931290  87.3332214   9.0920854  58.0942965  79.9565363
   9.5077693  57.2977972  79.6263504   9.8132098  58.6072350  80.3213692
  79.3216194 100.5186419   2.4085254  79.9517358 100.3658776   3.1126899
  78.9226879 101.3619332   2.6228732  42.0221233  19.9487364  84.5755863
  42.3225355  20.8144736  84.8521519  41.8751907  19.4736338  85.3934574
  86.5650251  22.8730207   1.7959136  86.9890215  23.5957390   2.2586555
  85.6445988  22.9318004   2.0520228  71.2944592  91.1503344  18.0372161
  71.9518174  91.1925225  17.3427218  71.4480103  90.3060966  18.4613818
  22.6665378  72.2589302  90.7719707  22.5504327  71.8457747  91.6275692
  21.9577789  71.9030762  90.2360058  16.6495609  36.2322879  92.4008942
  15.9231246  36.8284822  92.2190380  17.3139644  36.7834401  92.8144455
  79.9617590 107.7605491  26.8974132  79.1640533 108.2444005  27.1113986
  80.5586065 107.9506211  27.6212043  40.2311659  85.5650043  81.7026329
  40.0721025  86.4460945  82.0411873  39.8591876  84.9830151  82.3653221
  53.4602512 106.5367084   5.2762431  54.2468322 106.0038857   5.1595324
  53.7858249 107.4349933   5.3338546 106.3224604  22.4653917  18.8675040
 105.8899691  23.2104259  19.2847747 105.6823685  22.1408373  18.2341212
  81.0000719  98.2553201  22.5237578  80.3474201  98.6126237  23.1259269
  81.1482347  97.3619037  22.8337306  17.2898233  54.5763593   1.5155429
  18.1001365  55.0232034   1.2706965  16.6026342  55.0560098   1.0530013
 105.4016354  14.9880605  41.7450732 104.7228076  14.5232969  41.2557620
 105.8481219  14.3039661  42.2439593 104.0519740   0.7127052   6.9170493
 104.4669845   1.1339575   6.1643619 103.1159379   0.8704239   6.7938060
  37.3935008  49.3128014  63.7482929  38.0898499  49.9236584  63.5070848
  37.2597146  48.7803793  62.9641628  33.2077622  78.9754057  90.6352806
  33.7411904  78.9875126  89.8405933  32.5413132  78.3094358  90.4662800
  28.3391547  49.4859552  92.6953316  28.8544703  49.0316200  93.3618641
  27.6963496  48.8380814  92.4067307  15.5354750  35.6328893  77.0948124
  15.2603805  36.1619425  77.8435850  14.9226296  34.8976946  77.0829344
  35.9758520  74.0933037  95.0833607  36.1951590  73.2128954  95.3883553
  36.7848277  74.4183302  94.6882057  11.8592501  82.2382069  49.9252892
  12.0972586  82.3352909  50.8473301  11.4446306  81.3769627  49.8743582
 104.1865470  12.0112997  -0.0172883 103.4152796  12.3422199   0.4430026
 104.0418460  11.0671192  -0.0790292 101.1721160  25.0401645  22.7140063
 100.2759626  24.8000675  22.4784297 101.5028431  24.2843538  23.1993979
  92.0704998  85.3205733  13.0123347  92.1445574  85.8498459  12.2182197
  92.4455227  85.8689146  13.7014693  97.1699419  18.8594633   4.5748824
  97.2736170  18.8158184   3.6243171  96.2974503  18.5008722   4.7373694
 108.9257862  11.0863167  28.1795043 108.4275534  11.8656402  27.9332274
 108.3030608  10.3651386  28.0881137  91.9941583  33.2439237  19.3119735
  92.1709707  32.6767831  18.5614318  91.1584880  33.6621004  19.1045684
  96.3556638  26.0434061  16.4409942  96.6153433  26.0667616  15.5199832
  95.4970577  25.6203085  16.4371032  29.3870831  64.8684359  68.4141254
  29.8391056  64.7947836  67.5735998  28.6253929  64.2952394  68.3274794
  26.2290085  13.1714206  15.9350986  25.6225813  12.7046829  15.3600806
  27.0475948  13.2085519  15.4403514  75.3441415  45.2238756  17.8978366
  74.6942290  44.9207788  18.5318583  74.8823579  45.2166563  17.0594233
  27.3756063  14.5304208  17.9635447  27.2883642  13.8979870  17.2503489
  26.4856470  14.6367841  18.2995433  21.0138631  59.6651077  69.1605568
  21.3942981  59.7482347  68.2861471  21.4733076  58.9222050  69.5520115
  86.2522806  85.6477170  12.2515029  87.0631994  85.4897504  12.7349109
  86.2840570  85.0290709  11.5217799  14.0294874   3.0477863   7.8866595
  13.2202280   3.4393268   7.5579852  13.8522136   2.1072393   7.9002303
   9.5761097   5.0470644   6.2853545   8.9938677   5.7875162   6.4555282
   9.3368328   4.7511392   5.4070586  70.4615749 102.5536876   3.2140082
  69.6289171 102.0943646   3.1047553  70.8543147 102.5484996   2.3411101
  28.1062460  56.7734766  77.1815777  28.9937711  57.1318054  77.1700668
  28.1969213  55.9228802  77.6111078  57.0015192  43.0465031  88.4760761
  57.5732565  43.7595415  88.1916142  56.1156654  43.3941841  88.3730507
 113.0714681  24.4979673   9.6509093 112.2689679  25.0105768   9.7481555
 113.2473042  24.5044952   8.7100238  91.8233623  69.6329880  52.4987030
  92.4998178  69.0955877  52.9108238  91.0637393  69.5449209  53.0744171
  96.0960128  37.1404749  29.1367072  96.1312106  36.6718584  28.3028048
  96.7623165  36.7168337  29.6778220  66.3162327  71.3708162  74.6234369
  67.0609140  71.4924049  74.0344524  65.7107878  70.8152485  74.1325045
  34.1302490  51.2839031  88.3258438  33.3661222  51.4092731  87.7631474
  34.8709726  51.2524748  87.7203941  24.1431117  78.0310297  93.2864952
  23.2124090  78.0542612  93.5089397  24.4944835  77.3049355  93.8018131
   5.0899828   9.9851423  11.0266322   5.9853685  10.0200897  10.6900329
   4.7426689   9.1560131  10.6977672  11.7801297  63.1276131  61.6313601
  11.1890662  62.4011660  61.4334822  11.2716508  63.7005949  62.2052717
   7.5389326  11.6261297   3.5113162   7.2029293  10.8726507   3.0259246
   8.2471168  11.2692695   4.0473670 106.2674286  14.6566206   8.6539382
 105.5026104  14.1391760   8.4018821 106.2717225  14.6272951   9.6106833
  17.2545958  56.0748386  79.8568678  17.1059370  56.6330242  80.6201267
  17.0368564  56.6299772  79.1081047  56.7656755  67.9539251  92.9412460
  57.6916552  67.8776264  92.7110767  56.6260290  67.2743893  93.6007595
  70.1570548  83.3972793   7.7708930  69.6603693  83.8765674   7.1077079
  69.7488559  83.6441808   8.6007422  86.2821115 109.9445968   9.2885894
  86.2264169 110.1545768   8.3563632  85.8583511 109.0899234   9.3673152
  61.6285361  94.3777876   5.8933467  61.4440573  93.5958271   5.3730220
  62.0806922  94.9664550   5.2889842  56.3922834  86.5982056  61.3417673
  56.7465687  86.1463737  60.5758953  55.4753160  86.7612076  61.1207724
   3.2693279   6.0530382   4.9114150   4.1423023   5.8794170   5.2635592
   3.3858717   6.0329490   3.9615458 108.9762070  38.7815386   6.4256019
 108.9374688  39.0564733   7.3416442 108.4543922  37.9797083   6.3939113
  49.4094552  96.2623315  16.9646377  50.1973654  96.0504155  17.4651546
  49.3855275  97.2191100  16.9493503  88.9363732  32.5194174   9.8002547
  88.5140231  33.0105119  10.5050105  88.3503451  31.7799478   9.6390361
  73.6937367  31.0654264  37.1557445  74.0671896  30.2814012  36.7531699
  73.8987314  30.9775263  38.0865973  25.6970549  65.3158712  84.1542435
  24.7949004  65.0510406  84.3337154  26.1801171  64.4920540  84.0893936
 109.1680826 100.3887086   8.9387816 108.3249582 100.6343131   9.3196410
 109.4431938  99.6214442   9.4406241  86.6552175 108.0567317   2.5463790
  87.4750961 107.8616338   2.0925349  86.3831533 108.9047294   2.1955031
  87.5601020  33.3205896  12.0297545  86.8990155  33.9593130  11.7628688
  87.2382083  32.9766660  12.8630275  51.9010210  40.5795956  86.8962860
  51.9739151  39.6349812  87.0327473  51.4289045  40.8970737  87.6660538
  92.2537340 106.4467578  18.6357135  91.3000787 106.5268855  18.6169929
  92.4805893 106.0853772  17.7788753 101.1301114   2.5843816  18.1598205
 101.8595388   2.6069408  17.5404090 100.3619864   2.4015384  17.6187247
  22.1189046  65.2773333  93.0084229  22.4438739  66.1390972  93.2691765
  21.6386604  65.4381657  92.1961880  15.7026613  10.2244239   2.7121181
  15.1132047   9.5398288   3.0284995  15.3827703  11.0260349   3.1260318
 108.4335449  15.9443241  12.7664680 109.0342166  15.9708648  12.0216674
 108.2805850  16.8639188  12.9836863  48.2404375  86.4322567  57.5068426
  47.8077078  87.0415401  58.1049633  48.0351496  86.7670918  56.6339350
  18.7658775  23.6924701  28.5643214  17.9365337  23.2895618  28.3072490
  19.0405548  24.1882473  27.7929706  22.5847281 102.2827058   1.0421008
  22.8704084 103.0872445   1.4749164  22.8069187 102.4146657   0.1204509
  92.3882545 103.1442409   4.1701144  92.9879154 102.7958112   3.5103911
  92.9376234 103.2891183   4.9404639   2.7771890  26.5851408  46.6466350
   2.5257433  26.3300043  45.7589931   2.9700363  25.7579809  47.0880431
  84.7256406   7.4414545  15.8859652  84.3430462   7.4805647  16.7625064
  83.9788767   7.5339370  15.2943343  50.6121683  36.0782027  85.9734821
  50.2280664  36.9230032  86.2080193  49.9301958  35.4392552  86.1805916
  68.8648213 105.9347205  25.5054397  67.9272546 105.7419305  25.5112189
  69.0180386 106.4033704  26.3258857  80.2056550  23.7523037  24.3683547
  81.0247689  24.0143972  23.9481276  80.1395176  22.8125482  24.1988772
   3.3274925  44.6868807  10.4214591   3.6355531  43.8515001  10.7728404
   3.7254370  45.3468710  10.9891623  32.9858673  22.7195984  12.0601195
  32.6843632  22.3948866  12.9085845  32.3527515  23.3977323  11.8244571
 116.5730646  59.2600351   0.7972068 116.1125185  59.1394430   1.6276187
 116.5894725  58.3876901   0.4035491 102.9916766  18.2095247  28.2700747
 103.4175732  18.1788688  27.4133891 103.0575349  19.1262108  28.5376281
  79.0937437 106.2907891  23.6966151  79.5414556 107.0443110  24.0813178
  79.7813858 105.6340461  23.5867709  62.5975180  74.0342522  84.5853806
  62.4599218  74.9550390  84.3630028  61.9672585  73.8599062  85.2843857
 103.5918238  24.0528541  38.9053458 104.4530895  24.0202146  38.4889430
 103.5087421  23.2093864  39.3501967 112.8423765  38.1135946  21.0138053
 111.9641950  38.3312231  21.3263244 112.9440477  38.6240011  20.2104491
  48.3438015  86.8798256  81.4256477  47.6873875  86.1942863  81.5497208
  49.0030050  86.7045879  82.0971966   1.2576854  28.0513578   5.6383437
   0.9907878  28.9693552   5.5906791   1.5766227  27.9408556   6.5340537
 101.9611835  85.8726215  81.8860245 102.2425270  85.0589752  81.4676189
 101.0228443  85.7541656  82.0333576  51.5477276  93.6797237  87.6159477
  51.7035627  93.1637383  88.4069633  51.4055347  93.0282879  86.9291878
  37.2087789  87.8210354  89.4233513  36.5608191  87.1840191  89.7243309
  37.0787239  88.5811329  89.9904251  48.1250370  82.1094232   4.5072955
  49.0182579  82.4235349   4.3668765  47.6338566  82.8903680   4.7624606
  14.8005092  12.9838138  14.3677730  14.6699369  13.4901863  15.1695079
  13.9304149  12.6481777  14.1520995  77.4848032  83.4259796  81.3083267
  76.6512966  83.2734871  81.7535686  77.2835398  84.0825844  80.6415367
  72.2051128  42.7583509  14.8404235  72.3410948  43.4907919  14.2393702
  71.7207684  43.1372266  15.5739707  21.3062418   9.1999727  48.9432830
  21.4957416   9.4110590  49.8574847  20.8305633   9.9629598  48.6149425
 102.1674169   4.5354033  92.2528076 101.2748111   4.1982794  92.3292065
 102.4893583   4.1757346  91.4262390   8.6818731  83.8660431  82.6644135
   8.8222599  84.8074150  82.5627136   8.1680387  83.7859440  83.4680176
  79.4475322  30.3059297  16.3423938  78.6728258  30.8477979  16.4922065
  79.7030013  30.4975610  15.4400367  27.6702619  75.9661436  80.4527950
  27.3628950  76.6903448  79.9075508  26.9375443  75.3504276  80.4685116
  20.7846487  18.3048015  30.0173301  21.0724247  17.3992115  30.1327819
  20.2790153  18.2936721  29.2046565  64.0477896  92.5816727  89.4607353
  64.5550203  92.5567055  88.6493587  64.3768787  93.3511353  89.9253368
  70.9009933  93.5752106  73.1903410  70.8414793  93.3977795  72.2516155
  70.0146389  93.4251690  73.5191202  21.7959821  35.4882436  41.5896243
  22.2837150  34.7873884  42.0222396  21.0043276  35.0618559  41.2614364
  58.0116701  74.8819780  80.2639294  57.2211456  74.7470379  80.7865143
  57.8747797  74.3492079  79.4805717  63.8092436  96.0104423  14.9867362
  63.2799281  96.1865859  14.2089004  64.6237196  96.4901261  14.8358554
  47.4780989  59.4337797  87.7251911  46.9082785  59.1371489  87.0155811
  47.0607424  59.1043282  88.5211277  35.8279490  84.2416286  79.0806484
  35.0576758  84.4790840  78.5643864  35.6130123  84.5166874  79.9719286
   7.3120344  11.3013273  50.3960532   7.3916853  11.0549312  49.4745463
   6.3709772  11.2784677  50.5696124  56.8564749  73.2850552  91.0621643
  56.2779188  73.6323309  91.7410660  57.0070505  72.3751211  91.3182449
  85.5440631  13.5627227  25.2734393  84.8449495  12.9215961  25.1452655
  86.0620328  13.2107645  25.9973639  23.4851742  90.2257156  91.2895012
  23.3224797  90.6902218  90.4685307  24.4375038  90.1385212  91.3306999
  29.3768644  66.9108057  93.7429142  28.5916591  67.2723770  94.1539478
  29.6529317  67.5836849  93.1206226  14.1574133  15.9267526  16.1556548
  14.7299516  16.2340265  16.8585128  13.8292110  15.0827604  16.4657897
  33.4245682 101.1282539  94.8421478  32.4997258 101.3420105  94.7188282
  33.4285474 100.4783535  95.5448914  96.2641109  75.9075098  37.7777308
  97.0545877  76.0583644  37.2594470  95.5452551  76.1517839  37.1947974
  46.0952139  86.6241074  78.2696199  46.6029119  85.8392239  78.4756327
  46.6956186  87.1718311  77.7639103  21.6290069  71.1714602  78.8846254
  21.9911218  71.8448639  78.3087540  21.1823750  71.6615438  79.5749712
  68.8174772  96.1789989  76.2697697  69.5354176  96.4660931  75.7055235
  69.2088604  96.1137009  77.1408510  66.7893543  10.9114319  29.8023242
  66.5343382  10.7248550  30.7058639  66.0114314  10.7013851  29.2856521
 112.6861551  42.9228120  26.0907001 112.2306731  43.3677679  25.3760070
 112.7394440  42.0095735  25.8089370 108.2118513  10.2442175   6.8692702
 107.8063657  10.9004646   7.4359721 108.7465765  10.7521682   6.2591094
  23.4182155  10.4845720  22.8646678  22.9159582  11.2329918  23.1869048
  23.1167925   9.7473627  23.3956069 109.3072655  20.3565889  11.4206618
 108.6852386  20.0341278  12.0728415 110.0006845  19.6969371  11.4043349
  92.0748615  97.9937935  86.2456512  92.1877480  98.6311626  86.9508076
  91.1405563  97.7860641  86.2578678  32.9865479  66.7013836  84.4222450
  33.8249302  66.5976095  84.8723316  32.9167843  65.9267950  83.8642311
  13.6317194   8.7446695  18.8764018  12.8454149   8.2228523  18.7162227
  13.9055717   9.0381151  18.0074233  23.8748920  56.7460447  43.2081622
  24.6259678  56.2283807  43.4982318  24.0895927  56.9969946  42.3097438
  13.6913622  40.2048784  23.7550277  13.3683574  40.4477220  22.8873080
  12.9251182  39.8488241  24.2048282   8.9858330  13.6545950   2.0217151
   9.1527879  13.1886249   1.2024325   8.3952987  13.0794912   2.5082988
  96.3931384  13.9316135  43.9640922  95.5573168  14.1636091  44.3688315
  96.9758274  13.7544017  44.7025413  28.7945271  71.4844131  79.8526239
  28.7019038  71.7775059  78.9461184  29.2382169  70.6388140  79.7867918
  32.0789123  57.3722076  78.5825586  31.5770793  57.8650856  77.9333544
  32.8038335  57.9521894  78.8156652  34.1345692  63.6811733  91.9397259
  33.6584616  62.8967047  91.6674042  33.6133838  64.0404987  92.6576996
   6.4050234  37.1428209   4.2546386   7.1783054  37.3568636   3.7326640
   5.6742418  37.2143846   3.6405677  84.4036735   8.3190108  91.7390633
  83.7020220   8.9641715  91.6513538  84.0180315   7.6151610  92.2606945
  53.5437441  67.7208233  86.2610435  54.1350317  68.4665251  86.1583519
  53.8852549  67.2470236  87.0194149 110.2131666  10.0900412  74.5966578
 109.4486250   9.5791674  74.3307257 110.1107324  10.2000094  75.5419874
  86.5004387  33.9922529   1.3751525  86.0984769  34.8605829   1.3494510
  87.1761688  34.0609937   2.0496100 114.5271041   8.3847767  22.4173564
 114.7989490   9.2615562  22.6886386 113.6604550   8.2712656  22.8075713
   9.0747106  53.9820486   3.3236617   9.0468395  54.0366750   4.2788905
  10.0074089  53.9357858   3.1135100  54.6680927  79.6033955  64.4497538
  54.2010164  79.2588615  63.6885881  54.0307999  79.5580864  65.1625204
  55.8866405  79.7142744  75.2322054  56.6354513  79.1373205  75.3826380
  55.9933138  80.4171944  75.8731079  57.5232626   7.9803801  79.2919064
  57.9384674   7.2010089  78.9225626  58.2464815   8.4807158  79.6698523
  36.5922686 109.2091231  44.3874949  35.7999675 109.3433766  43.8674373
  37.2715856 109.6936898  43.9184970  50.5617046  78.6712790  74.1854048
  49.9670553  79.3933153  74.3886089  51.2341404  78.7162590  74.8651361
  51.2257624  62.2100449  95.0586224  52.0505476  62.5219107  95.4310513
  51.4896870  61.6171360  94.3550396  71.7655849 107.4805355  92.0710087
  72.2327995 107.1870136  91.2888336  71.9165373 106.7879009  92.7142048
  12.4908006  37.8665643  12.6925677  12.2033346  38.0045896  11.7900485
  11.8815649  37.2157388  13.0411166  59.7202301  81.0613728  67.8856182
  60.1073408  80.8240032  67.0429850  59.7140884  80.2447414  68.3849192
 111.2328579  35.3617864  13.7408275 111.6459873  35.3118234  12.8788203
 110.8295443  34.5023828  13.8633079 113.3109620  11.0459047  20.0606746
 112.3969915  11.2789732  19.8976726 113.4974053  10.3514867  19.4288081
   2.3508060  29.3593221   8.3690566   2.8857029  28.5892397   8.5616321
   2.7247131  30.0527197   8.9127749  31.1019516  80.8481121  91.4881516
  31.9323111  80.4025078  91.3203049  30.9790039  80.7769489  92.4347496
   3.0089891  15.2146249   7.5529307   2.3956144  15.8845144   7.8550071
   3.1293953  14.6412903   8.3099193  85.2728094   8.5350753  75.9480906
  84.5018543   8.1102801  75.5720520  85.5641140   9.1455889  75.2708578
 106.6946914  20.8595567  23.3849544 106.6393187  19.9421936  23.6525458
 107.6126506  20.9837061  23.1437606 107.5273325  45.2090746   0.7069320
 108.1975653  45.7552248   1.1177081 107.9018690  44.3281847   0.7088965
  69.4525435  20.9927469   5.8915252  69.1712155  20.4637676   5.1450175
  69.3811455  21.8967205   5.5849761  79.4660664  89.8069763  75.8424187
  79.7675848  90.5306816  76.3915825  78.6010456  89.5878029  76.1887217
  58.5332012  70.2404451  88.4460831  58.8764906  70.7231617  87.6941776
  57.8745317  70.8229971  88.8242626  86.6128362 102.0076661  16.0092849
  85.7598747 102.3589616  16.2647933  86.4286913 101.4661937  15.2417392
  64.1197729  73.4590721  73.0572414  63.9460373  73.7869978  72.1749067
  64.9690390  73.0229998  72.9877806  29.2444372  80.5707455  65.3908396
  30.2006102  80.5571079  65.3486633  28.9669013  79.9215412  64.7445059
  30.2935398  50.0159841  19.3418235  30.8884466  50.5784612  18.8459033
  30.0089300  49.3539434  18.7117976  99.0838601  57.8715139   6.0198897
  99.2603447  57.2277456   6.7059249  98.8775518  58.6767870   6.4944476
  92.7848735   8.8518387   7.6545638  92.0700552   9.3520837   8.0482978
  92.3582950   8.2998615   6.9991416  86.9819893  94.1799312   8.4782618
  87.0385755  94.1903453   9.4337291  87.6254619  93.5251193   8.2073421
   8.2295740  44.0541845   3.3108253   8.0348337  44.6908289   2.6230735
   8.7944973  44.5270639   3.9219493  78.2956351  14.1346694  86.3029766
  78.2892193  14.0440798  85.3500938  78.3195723  13.2349921  86.6289425
  29.4958305  42.5801468  59.8111057  29.0853143  43.0744505  60.5205917
  28.9255404  42.7260876  59.0563202  55.7363844  67.1767950  59.9754763
  56.4369392  66.8628645  60.5472326  55.2828884  67.8408194  60.4947472
  70.8778884  23.7270456  34.9038428  70.0303098  24.1456848  34.7535724
  70.8588805  22.9436212  34.3541926  96.3138879  31.4626075  77.8905821
  96.3578619  31.3975001  78.8445520  97.0313801  30.9106398  77.5795126
  44.1964817  90.2222061  81.9412422  43.9654446  89.7005939  82.7098656
  44.7379351  89.6386623  81.4097118  27.3659754  86.2065601  84.4608974
  28.0243421  85.7028770  84.9395275  27.8078270  86.4732265  83.6547470
  73.8626957  98.2363319  82.0233250  73.6208010  98.7169647  81.2316799
  73.0348110  98.1029224  82.4848938  96.4982583  14.2444044   3.6850757
  95.9823968  14.2777544   4.4906825  96.1279120  14.9345165   3.1347770
  15.1963079  37.6967817   7.9640883  15.4268778  38.4030920   7.3606128
  15.3075493  38.0794626   8.8343829  39.2105246  97.3221970  91.3157177
  39.7491455  97.5271797  90.5514526  38.3324528  97.1851921  90.9601212
 104.5670141   6.2988234  88.2554245 104.7055639   6.6643477  89.1291618
 105.3843893   5.8432246  88.0540180  50.1481771  66.0799789  85.6230164
  49.5128107  65.4324436  85.9283733  50.9361362  65.5710173  85.4324627
  66.5040684  84.6570110  85.8575821  66.5208483  83.7780857  85.4788494
  67.3056078  85.0710201  85.5376339  40.5377436  89.2961502  62.9313374
  40.8518314  88.4319687  62.6653337  40.2354097  89.1745281  63.8313580
  48.7994814  72.1871090  87.3510933  48.8584614  71.5249729  86.6623783
  49.3237495  72.9187727  87.0254421  29.5027006  48.0223470  17.5066680
  29.0008295  47.8638559  18.3061904  28.8401068  48.2016950  16.8395537
  40.8822775  53.9269209  90.1535892  40.8046961  54.6541548  89.5360565
  40.0027180  53.8271141  90.5177975  24.0642059  39.7981649  39.1426867
  23.4591139  39.0568929  39.1673011  24.9063146  39.4288736  39.4085902
  44.2105913  85.5444527  83.3862209  43.8539314  85.4329872  82.5049686
  43.5565805  86.0723495  83.8442898  59.4060659  73.1244183  72.8084660
  59.0686131  72.2288084  72.8239775  60.0996637  73.1076431  72.1490192
 113.3095180  69.9058294  91.1205673 113.9244961  69.3540096  90.6373215
 112.9931076  69.3470383  91.8304062 106.2381055  12.9130989  18.0344790
 106.0787990  12.6769930  18.9483279 105.3788259  12.8499275  17.6174945
  -0.0784075  35.7982069  34.0705985  -0.0506985  35.6350332  35.0133819
   0.3985870  36.6200929  33.9556521  98.8309553  67.0118528   2.6198024
  99.1574147  66.8081670   3.4962577  99.2736747  66.3850599   2.0476550
  24.7945762  84.8593235  74.0158892  25.6248951  84.7141552  73.5623169
  24.8385167  85.7689476  74.3106604  24.3299568  15.3249269   9.8261184
  23.5621107  15.8904749   9.7436732  24.9090231  15.6022602   9.1161841
  50.0041103  84.2291641  89.1472816  49.7279358  84.4379044  88.2548714
  49.2300844  83.8377857  89.5521736  24.6252096  37.3580175  18.5423869
  25.1727951  37.9585176  19.0481395  24.3692768  36.6815477  19.1693706
  43.6544228  91.6369057  90.4430199  43.5472393  92.5880527  90.4508305
  44.2681599  91.4591789  91.1557388  21.8387723  55.0487232  79.8959732
  21.6867733  55.6024075  79.1301012  21.1440086  54.3913841  79.8579884
 108.2296326  45.5718427  20.9752864 107.8540661  45.4222875  21.8429297
 107.7759292  44.9491029  20.4073256  46.6570711  78.7246180  92.8425598
  46.5013504  77.8638124  93.2311440  47.4883842  78.6306095  92.3774624
 102.4052861  48.7211328  21.9222945 102.7919629  47.9911714  22.4058932
 102.5380995  49.4810110  22.4890155 102.8484967  54.5117860  23.1188983
 103.1866100  55.3747850  22.8798503 101.9231155  54.6621710  23.3119887
 107.3388150  36.4773184   6.8649882 106.6082814  36.7112165   7.4375743
 106.9352367  36.3309866   6.0094565 110.4852369  25.6838518  34.9314708
 111.0680272  24.9245220  34.9344272 110.8180859  26.2439638  35.6326980
  85.2065411  26.9589239  11.0136432  84.5179983  27.0342355  10.3529853
  84.7970959  26.4774423  11.7325038  15.2528715  57.9869127  70.1803684
  15.6686234  57.1461105  69.9895000  15.7774293  58.6278820  69.7005415
  61.4999056 103.1731319  75.0677967  61.9842434 103.2357407  74.2445564
  60.6880665 103.6534595  74.9051809   2.8349293  48.2492357   8.4864730
   3.7756717  48.1462389   8.3428496   2.7702987  48.8526827   9.2266768
  78.4727764 100.0599861  76.4291811  78.8479614  99.1862297  76.5388346
  78.9510202 100.4349136  75.6896257 104.3672206  39.9369817  22.9808730
 104.0274145  40.7456117  23.3641166 105.1704671  39.7591215  23.4701461
  65.2243007   0.9852267  59.3883371  65.3176941   1.1959220  60.3173780
  65.8981646   0.3257323  59.2233944  36.0250271  14.9678999  49.6578235
  35.1453865  14.7858577  49.3271750  36.0156715  15.9032112  49.8611373
 105.2377775  28.9221674   9.0144843 104.4896343  29.3560701   9.4246596
 105.5962231  29.5775800   8.4159965  24.6380937  44.1627603  17.2600478
  24.5436991  43.3335214  16.7913264  24.1507042  44.0347105  18.0738563
   3.8783729  56.5367037  18.7522906   3.2130850  55.9121614  19.0413684
   4.7111404  56.1061292  18.9455337  45.5385017  39.4533539  92.2964668
  45.5489826  39.0395784  91.4333820  44.7744322  40.0295734  92.2765732
  29.2645860  91.6093159  88.3992577  28.5142922  92.0532608  88.0040264
  29.5890164  92.2257042  89.0557957   6.5476692  30.7564550  35.4898757
   7.2881925  30.5184847  34.9320048   5.7771909  30.6065469  34.9420470
  12.0017421  29.6811872   9.8134154  11.3413751  30.3111082   9.5247191
  11.5392959  29.1160780  10.4323119  16.6563022  48.0824667  15.6358355
  16.9598234  47.5295740  16.3558406  15.9762895  48.6317354  16.0258597
  78.3379270  20.7621198  46.1320704  77.8207350  20.0306230  45.7949370
  79.1678762  20.3662115  46.3979072  36.4878201  78.5785723  88.3600998
  36.8295145  79.4540453  88.1783867  37.2053266  77.9886770  88.1289196
  29.0740621  26.4929872   6.1085910  28.4673441  27.1854788   5.8467406
  29.0959108  25.8977323   5.3592986  30.0098062  90.8430576  70.1683474
  30.5140877  90.9601498  69.3632269  30.1607919  89.9305725  70.4149580
  79.0332569 105.9250169   6.2947577  79.2049421 105.3247123   5.5692214
  79.8697485 106.3657289   6.4440364  38.3277297  86.4731789  87.4725819
  38.1136966  86.9599533  88.2684994  39.1012073  85.9600449  87.7063656
  28.6737800  87.0013618  77.2229481  29.1339087  86.3749504  77.7816296
  27.8523684  86.5640354  76.9987583  32.0197058  40.5273533  83.8545990
  31.3602090  40.4182148  84.5397186  32.6852226  39.8694468  84.0557957
   1.6728103  11.5275245  17.6755542   2.4288404  11.5140014  18.2624740
   2.0353925  11.7698055  16.8234652  97.1417727  18.4356027   7.6349753
  97.8256228  19.0454059   7.9119605  97.2714939  17.6638275   8.1861228
  87.6328411  30.8243185   5.7626266  86.8466624  30.9862810   6.2840861
  87.4882104  29.9621969   5.3726882 112.7886226  31.4988142  24.8906344
 113.6371972  31.2543970  24.5212859 112.8466036  31.2458425  25.8119792
 115.8459237  18.0018573  15.5024070 115.2699139  18.0084091  16.2668628
 115.2647736  18.1804901  14.7630900  21.2655401 106.7543316  79.1338015
  21.5757823 107.5915623  79.4787884  20.6710243 106.4233875  79.8070478
   1.8849361  31.4796835  16.5682429   1.2716663  31.0993391  15.9393805
   1.7906273  32.4252134  16.4529151  49.6134281  76.1074543  75.8883667
  49.5825720  76.3719702  76.8077755  49.7871113  76.9189596  75.4113674
  97.7565124  58.6190324  38.8951701  98.5880496  58.2759195  38.5679835
  97.8641488  58.6413484  39.8460406  59.6253347  74.0956306  82.5502968
  58.9866543  74.3161345  81.8722916  60.4670048  74.3666315  82.1837234
  48.2521582  73.6516142  89.8800278  49.1224670  73.8977432  89.5666313
  47.7633715  73.4368658  89.0855503  55.4526949  96.3081551  85.0592136
  54.6074629  95.9016323  85.2503872  55.4855585  96.3544369  84.1036987
  61.1437404   5.4446417   6.5581626  61.8310726   6.0504919   6.2811202
  61.3321388   4.6352678   6.0831374  53.4917641  91.1151409  86.7667675
  53.7094688  91.6024208  85.9721565  52.9190254  90.4097271  86.4657879
 106.0634115   9.0419155  11.8430060 106.7865469   9.4157224  12.3465747
 105.3188231   9.0590435  12.4442786  33.4656835  17.2802997  88.1649971
  32.6491785  16.9723856  87.7716255  33.8654733  17.8279126  87.4893379
  58.4210634  67.5923681  82.0840645  58.4511995  67.6030350  81.1273956
  58.6313105  66.6889095  82.3202610  64.8142338  72.0172787  89.5710278
  64.9184704  71.3157368  90.2138424  63.8751554  72.2026443  89.5689583
  17.3829401   4.1264826  19.3423289  16.9899071   4.7660165  19.9362678
  18.0930126   4.6033865  18.9126891  17.3064554   3.6554390  11.1615485
  17.3373688   4.5607620  11.4708442  18.2070863   3.4597545  10.9030742
   1.7776096  54.4447046  42.6049441   1.5525472  54.1662126  43.4926528
   1.9638050  53.6299711  42.1382922  45.7423485  17.4454933  41.8987102
  44.9665630  17.7630716  41.4366168  46.4792145  17.8074938  41.4065570
  16.5245140  73.6501026  77.4698353  17.4778235  73.6194611  77.5504255
  16.2308908  72.7904510  77.7715206   8.4032238  34.0666013  12.6770991
   8.8357198  33.6851412  13.4410781   8.5809124  35.0047212  12.7448291
  82.9719236  33.2133203  11.8733233  82.2298127  32.9304701  11.3389987
  82.8823998  32.7192789  12.6882667  24.1444433  49.5692640   4.3764419
  23.5920275  49.8484617   5.1065940  23.6877907  48.8141065   4.0057200
  22.1522749  35.0841051  10.7209128  22.5215471  35.2320676  11.5915317
  21.5866983  35.8412176  10.5688113  88.6082175   6.3869529  14.8243636
  88.6295416   7.0819383  14.1665095  89.4135382   5.8914476  14.6754950
  45.7832289  91.7877102  83.3745480  45.1080561  91.2220287  82.9998779
  45.2952623  92.4700642  83.8355446  31.1358583   9.5488554  21.6704291
  30.1799095   9.5799738  21.6325873  31.4136207   9.6022134  20.7559794
   2.5992525  51.4679247   3.5931415   2.8801143  52.1498781   2.9829902
   1.8545997  51.8523031   4.0557116 109.0095284  32.3843198   5.3822822
 109.8889186  32.7575308   5.3221053 108.7609556  32.5035482   6.2989253
  78.9123889  44.8556905  42.7695006  79.0383182  43.9320284  42.9867858
  77.9796518  44.9291998  42.5674361 104.8506358  17.2698360  29.9336165
 104.1873243  17.7865081  29.4761199 104.7320535  16.3799148  29.6016425
  22.2245145  44.2140865  79.1729546  21.5904713  44.3484592  79.8773432
  21.9145060  43.4311771  78.7177849  39.0890622  62.5844049  91.9429493
  38.2323956  62.8287077  92.2931957  38.8922000  62.1300888  91.1237526
  37.1284485  72.2227430  79.1875458  36.2083292  72.2523308  79.4497204
  37.6004219  72.6074982  79.9260807  58.5303974  74.4212246  77.2035456
  58.8847923  75.1959610  76.7671776  58.9937258  73.6866665  76.8010712
  86.4312913  47.3088842   0.9278029  86.1897638  47.5662714   0.0380534
  86.4725449  48.1331354   1.4127177  27.9516971  38.1448656   4.9583453
  27.1943367  37.8477197   5.4626674  28.3055294  37.3471265   4.5650882
  88.0603886  91.9552708  82.2792149  88.9213181  92.2970200  82.0378971
  87.5293159  92.0653534  81.4904976   5.3108013  18.9626604  14.5543689
   5.8469808  18.8364607  13.7715453   4.8138559  19.7615295  14.3780726
  54.3369961  64.9530745  91.2319469  53.7104177  65.4768038  91.7312813
  54.6404123  65.5392599  90.5387211  75.3956569   3.7103034  90.6535530
  76.2462200   3.3300925  90.8731365  75.3961695   4.5642138  91.0860729
   3.5046613  12.0487314  19.6571654   3.8126076  11.2308126  20.0475615
   3.2280624  12.5809484  20.4031295 113.8274338  21.2769561  11.9649810
 114.2462709  22.1334177  12.0503062 114.2508390  20.8779436  11.2048835
   4.2385233  15.4986387  23.8891906   3.9821804  16.1575370  24.5344657
   4.0715873  15.9142166  23.0432242  24.2239690  72.2865915  65.3918886
  24.4150305  71.4418840  65.7995605  24.9465132  72.8525639  65.6636095
  72.7799715   0.8927298  83.4275532  72.1009697   0.3942633  83.8822174
  73.3145202   1.2644816  84.1291904  66.6815948  77.1009827  84.6511841
  67.6188946  77.1519470  84.8385239  66.4797068  76.1661959  84.6918201
  49.0830135  94.1130543  70.7994223  48.8696146  94.6248436  70.0191879
  50.0346756  94.1803646  70.8771276  81.0616506 105.4989343  29.2904777
  81.6764845 106.2157111  29.1341418  81.3074697 104.8290639  28.6524505
  55.8457935  14.5972114  48.0856627  55.9853733  15.5265289  47.9036731
  55.4744995  14.5790201  48.9677257  93.8996806  36.9465738  12.4477786
  93.6189117  36.0317236  12.4265594  93.3113494  37.3631292  13.0775279
  74.0134764 103.4241104  88.6604595  74.6262836 103.1466103  87.9795074
  73.6660433 102.6067924  89.0175438  16.1285675  20.8563953  21.4974326
  16.5075863  20.1989895  20.9140033  15.9589613  21.6095501  20.9315509
   8.8444412   5.8571439   1.1891955   7.9270828   6.1284547   1.1564368
   9.1340673   5.8812957   0.2771872  47.0622158 101.0931396  87.5045681
  46.2109613 101.3756084  87.1701813  47.0704031 101.3852119  88.4160805
  52.3710394  76.0703564  72.5686264  53.0240345  75.3751564  72.6494360
  52.4024677  76.5273476  73.4090996 103.0532839  45.8269220   0.8325976
 103.4843566  45.6567007   1.6701144 102.2993877  46.3720899   1.0576934
  38.3035493  73.5974312  77.2560358  39.0958071  73.9390898  77.6705599
  37.9577160  72.9646492  77.8854942  52.4060678  70.5925798  86.6896248
  52.0307684  70.7712078  87.5518703  53.3375645  70.4510689  86.8584919
  76.1895487   7.6487165  40.8101195  77.0399964   7.2097974  40.7922477
  76.3935810   8.5723501  40.6634826  81.1117268 102.8835583  72.1740246
  81.5745544 102.0635414  72.3460531  81.5648842 103.5319710  72.7129650
  22.6373041  16.1824232   6.9275493  23.4768951  15.7462841   6.7822665
  22.8497875  16.9317966   7.4838943  63.9751053 104.4295406  80.6071568
  63.3252048 104.7439766  79.9786758  64.2848492 105.2209377  81.0475826
  98.3511879  74.9165731   6.5720576  97.4647739  74.9356752   6.2113112
  98.5078790  73.9940744   6.7737025  36.7866802  91.5113735  50.4142618
  36.8524218  91.5432167  51.3686705  36.8785334  92.4230194  50.1373053
  48.7685585 103.5592270  89.1574669  49.1009474 103.3388805  88.2872963
  49.1668034 104.4060898  89.3586159  66.5962648 101.5629005  81.5273571
  66.7872000 101.9088268  82.3991966  65.7261753 101.1725521  81.6098309
   3.5872495  49.1250425  24.4645232   3.1330478  49.9652010  24.5282668
   2.9156626  48.4737306  24.6669978  73.9814080   8.2890559  77.7653074
  73.8636316   9.2138148  77.5481129  73.1494273   7.8794623  77.5280809
  46.5582943  93.1159592  55.9651327  45.6393766  93.3396816  56.1126518
  46.8408680  92.7111149  56.7851830 103.1728805   1.2729502  81.2769890
 103.0473198   1.8173075  80.4997253 102.2996772   1.2006522  81.6623783
  21.3158643  41.9038587   3.9562148  22.0200718  42.2838598   3.4309405
  21.2146843  42.5064760   4.6929950 111.3765539   0.8375788  77.8978491
 111.9439186   0.1324702  78.2095623 110.4885639   0.4999114  78.0148315
  83.2996715   6.3402129  93.2659245  82.9615987   5.5491400  93.6856079
  83.1744541   7.0295478  93.9181232  65.2685547  94.8917580  89.9569130
  65.5747747  95.4851627  90.6427097  65.2000999  95.4422569  89.1768456
 115.9857347  37.8040224  60.5591029 115.2756693  38.0603033  61.1476249
 116.7496350  37.7166849  61.1292380  47.3850906  14.1613727   8.8369006
  47.9725826  13.5372263   8.4108466  47.9112041  14.9545341   8.9385337
   6.0311830  78.4597116   9.8584765   5.2871359  78.5474973   9.2627257
   6.7998493  78.5032945   9.2897243  82.5610721  45.2646928  39.7207564
  82.7260483  45.1166826  38.7895698  81.6868580  44.9042612  39.8693675
  57.5064993  99.3865490  39.3209743  58.3728027  99.0014267  39.4530225
  57.4563169 100.0906372  39.9674845  41.5315235  60.4961019   4.7507304
  41.0228336  60.9350115   4.0689486  42.2427452  60.0637632   4.2780131
  11.7765558  53.1612688   3.9538592  11.6934145  52.9142576   3.0328197
  12.3629034  52.5027757   4.3264407  18.2142723  15.4482752  18.8414115
  18.1576622  16.4015299  18.7755794  18.2080305  15.1447063  17.9336471
  51.6532421 103.1582642  91.0818577  51.0346937 103.8462353  91.3274574
  51.1890125 102.6432037  90.4219818  26.0221648  92.5530720  89.5074654
  25.9411383  92.6729298  88.5612583  26.3374543  91.6550159  89.6090031
   8.7140405  48.8580709  12.7604789   8.2817924  48.1031137  12.3611754
   9.2667949  48.4827333  13.4459132  29.2498291  28.8187414   1.1546630
  28.5161484  29.1337877   0.6267470  29.6084917  28.0863767   0.6534213
  40.5726767  95.9658813  84.7893810  40.3892994  96.7658901  84.2968464
  40.2291298  96.1400509  85.6656647  11.1318004  29.4988352  25.7458991
  11.7527664  28.9092546  25.3180808  10.4900062  29.7048765  25.0662822
  79.7310508  19.6539832  61.9870234  80.6248964  19.8148013  62.2893715
  79.6532072  20.1698638  61.1845016  34.1771984  94.3735504  90.5125237
  33.3367729  94.4512177  90.0609875  34.2258573  95.1543999  91.0640144
  31.1882770  38.8360506  14.7365970  30.8321989  39.7197633  14.8287600
  31.3642919  38.7452131  13.8001174   6.6398691  19.2063952  68.4278917
   7.1240114  18.7834979  67.7186680   7.1348547  18.9899970  69.2180777
  41.0705984  69.2265516   2.9656333  40.9727943  69.8837667   3.6546535
  40.3955066  68.5757547   3.1578368  75.9432888  98.0376816  65.2996778
  75.4904985  98.0335808  66.1429977  76.8051863  97.6667309  65.4887819
  54.9845600 103.6871910  65.7618189  55.7365608 103.9073372  65.2120352
  55.0499058 102.7407646  65.8892345  74.8265219  95.2216816  57.3897266
  75.2273273  95.9876251  57.8007126  74.9937868  95.3367519  56.4543056
  36.1244285   8.0378872   9.5899123  35.5455292   8.7180381   9.9341411
  35.6491649   7.6744419   8.8427371  61.8664755   4.2711306  58.5532904
  62.4496258   4.8739672  59.0145493  61.0580386   4.7682429  58.4286356
  37.6295221  33.6961466  41.9137496  38.5399282  33.9813715  41.8359965
  37.3966491  33.3961492  41.0351104 111.7193081  18.8507753  13.4191054
 111.3822701  19.7368246  13.5516089 111.1278274  18.4635406  12.7737922
   4.8530281  50.9586626  34.4000644   3.9858663  51.3080698  34.6054381
   5.4147470  51.7314439  34.3407935  23.8353813   6.6399484   4.8334903
  23.1326521   6.2911468   4.2850989  23.3944071   7.2398287   5.4350776
   7.5437963  59.2983823  10.3460616   8.3991468  58.8912302  10.4832763
   6.9139660  58.6248403  10.6027526  49.0821028  91.7710018  89.5824623
  48.2954550  91.3495255  89.9285507  49.0343523  91.6279125  88.6372280
 116.1029270  15.3750330   5.5798072 115.6312921  14.7424226   5.0379580
 116.7958715  15.7088381   5.0100440  36.3963723  98.9193439  91.9018936
  36.8802404  99.4682693  92.5189781  36.6826820  99.2191887  91.0391426
  44.6623468  92.6099777  71.6977406  44.3712425  92.8709698  70.8240271
  45.5551529  92.9487324  71.7638636 100.7034709  47.9398542   0.3619784
 100.3126266  48.7881571   0.5714053 100.2711489  47.6704794  -0.4484349
  55.1939190  58.4667974  13.6523551  55.6897533  57.6484495  13.6786479
  54.2811001  58.1911855  13.5685081  42.8980541  84.9613571  80.9917164
  42.8801155  84.0388393  81.2464046  41.9840527  85.2413273  81.0412693
 103.6838163   1.1205531  91.5148449 102.8655399   0.6624461  91.7066669
 103.4089054   1.9389487  91.1014557   7.8090262   1.1744548  53.6499214
   7.8017305   2.0675040  53.3054829   7.6091074   1.2750579  54.5805931
  11.1592424  22.6531130  53.1336707  11.8851364  22.9540878  52.5871104
  10.3743589  22.8733211  52.6319713  20.8833444   6.0260778  29.6355075
  21.7269695   6.4412790  29.4562549  20.7944858   6.0655647  30.5877513
   8.6762178  46.8648058  27.7794475   8.3276022  47.7071386  28.0712909
   7.9523170  46.4580064  27.3033065  82.1057034  94.2214203  83.8380146
  83.0415630  94.0815449  83.9823437  81.8625641  93.5625935  83.1875801
  41.4416695  65.6470776  68.8961935  41.2304640  65.8791828  69.8004913
  40.9847546  64.8190403  68.7484884  15.6653536  10.6635147  33.2401198
  15.4843653  10.4317384  34.1510314  15.9196413   9.8374611  32.8287715
  71.7396259 106.0860634  78.1003046  72.0748186 105.7574558  77.2661018
  71.6607332 107.0312119  77.9711199  72.7603102  74.4451523  78.3111763
  73.5518360  74.2683554  77.8027868  72.5223255  75.3428602  78.0794239
  34.3538833  72.5558519  87.3632908  34.1791224  71.9422531  88.0768681
  33.5004830  72.9409027  87.1641064  45.5648184  88.9760780  93.2269573
  45.9104109  88.3020306  93.8121510  45.5223036  89.7643661  93.7682724
  23.9405811  65.7170492   0.9163016  23.4883821  66.4880186   1.2588805
  23.2469785  65.1878648   0.5224723  42.8041351  42.0503717  24.4570750
  42.7431381  42.7369695  23.7929267  41.9751728  41.5766817  24.3886966
 113.0124439 108.4740930  10.2271003 113.6468710 109.1517310  10.4606551
 113.3082308 108.1523519   9.3755073  34.5933580  89.4318581  65.0524139
  34.9062324  90.3361320  65.0774813  33.6755776  89.4884968  65.3183126
 109.7692110   3.9155775  20.4271811 109.3731573   3.6153846  19.6091002
 110.3288939   4.6475273  20.1678771 101.3780978  21.3734585   2.1381873
 101.0606267  22.2744137   2.1992415 100.9060004  20.9059482   2.8272361
 111.9523157  13.8628054  88.5228920 111.3019384  13.9807845  89.2152214
 111.7946256  12.9776622  88.1944466 113.1623663  30.1177932  88.9707088
 112.9380144  30.1135302  89.9012280 112.9872001  31.0147906  88.6861992
  48.3759451  89.5117092  41.4801264  47.7649736  89.9720097  40.9047461
  48.5710287  90.1408005  42.1746922  41.7045069  97.2413731  74.6460104
  42.2700500  97.8767014  74.2069864  42.2709608  96.4864159  74.8053741
 104.5172384  63.2559686   8.3948535 103.8669779  62.6126295   8.1128901
 104.5920279  63.8603788   7.6563949  55.4891539 105.2199745  90.3332043
  55.3021479 105.0742435  89.4058323  55.0395250 104.5049000  90.7834530
  57.9309130 101.1295414  90.6534290  58.2745695 101.4317036  89.8126984
  57.0010185 100.9724522  90.4895592  41.5721035  64.4005013  79.7659397
  42.0300007  64.9806404  79.1576624  41.0234547  63.8512516  79.2059898
  53.5014582  81.8428898  79.0906096  53.4043980  82.7750683  78.8960743
  54.4421577  81.7218399  79.2197275 111.5573122  64.7550779   2.7664203
 111.8227770  65.6652742   2.6349181 110.7571604  64.6618658   2.2494143
  94.0590849  46.0906225   2.3719520  93.3981290  46.7357450   2.1205920
  94.4652202  45.8293348   1.5455073  74.2841482  67.8179646  69.3498135
  73.6107016  67.1637583  69.1635084  73.9930773  68.2374668  70.1594639
  78.7127103  21.5953017  85.3739834  78.6022366  21.0911418  84.5678520
  78.4959401  20.9789801  86.0735416  36.3542497  35.4497629   1.1323947
  35.6409347  35.1297193   0.5801410  36.4824569  36.3571935   0.8560485
   3.8057077  61.8703657   2.8178424   2.9045379  61.6366010   2.5954074
   4.2014587  61.0487467   3.1086463  56.6675758 107.5486851  89.2793465
  56.2154150 107.1232796  90.0079155  56.1195564 108.3037758  89.0654564
  12.6154077  78.1244569  18.1327743  11.7271984  77.7694040  18.0973548
  12.7177322  78.5966211  17.3064345  97.9268792  45.5803590  10.1226539
  98.3463719  44.9259096  10.6811828  97.1174588  45.8039385  10.5820865
  23.6599243  12.7445369  19.2107409  24.5495069  12.8192001  19.5561427
  23.2191360  13.5396152  19.5103759  63.4950794  30.0187445  89.1801548
  63.9936103  29.2843867  88.8217831  62.7472199  29.6104003  89.6162701
  19.6963251  72.4587345  68.6088133  20.1301003  73.1616688  68.1251240
  18.9172399  72.2568130  68.0906582 106.8348601  38.9787298  19.6043700
 107.6434662  39.3526941  19.2543143 106.1768129  39.6602064  19.4672698
  18.9383257  42.2207075   2.0792407  19.2296446  43.1286054   1.9950122
  19.6748722  41.7701822   2.4924582   6.2141264   6.7079359  23.3980197
   5.8326233   6.8912750  22.5394839   6.4425600   5.7789760  23.3651751
  24.0021408  13.0873542  11.3330287  23.0577600  12.9615932  11.2405128
  24.1755760  13.9245706  10.9026546  39.2981601 101.6007423  66.3456631
  39.5333719 102.4737453  66.6599464  40.1332617 101.2000370  66.1042547
 114.1687181  56.3433843   1.8642634 114.4416549  56.4114290   0.9493274
 113.2122972  56.3630300   1.8309897 104.1585424  59.6179777  32.6439494
 103.6355426  59.8453909  33.4127063 103.6935284  58.8813310  32.2472877
  56.9085503  93.1070423  84.2676640  57.7550888  92.7248859  84.0362358
  56.5593100  93.4351349  83.4390354  92.5180019   3.2686854  76.1999321
  91.9670786   3.4393264  75.4359961  92.4544538   2.3231459  76.3346624
  87.8160776   5.6325007  91.8029308  87.0253338   5.9655715  91.3786507
  87.5592483   4.7789813  92.1519089 115.8867624  50.1507192   1.7964858
 116.5121462  50.8374792   1.5652198 115.0452902  50.6030946   1.8557185
  17.7956820  84.5082283  65.6853580  18.4406531  84.0958595  66.2599802
  17.7377641  85.4107094  65.9990501  31.5912843  84.5900154  67.1748781
  31.1549902  85.2895641  66.6885519  30.8826160  84.1400814  67.6348495
 106.5570428  75.5569463  36.2430305 106.0588291  75.7712179  37.0317668
 106.0570886  74.8544222  35.8274096  14.0527284  41.9169908  27.8424853
  13.3937156  41.8557745  27.1509665  14.5658624  41.1135774  27.7561206
 105.0197723  45.6178289   7.3328799 105.8227184  45.5048662   6.8242091
 104.5442583  44.7954088   7.2156257  79.6926260 109.4048691  58.8641262
  78.9160490 109.0276146  59.2774487  79.3451405 110.0051594  58.2044744
  31.1510515  73.1251335  80.3735352  30.3684807  72.6616764  80.6719017
  31.2253571  72.8976774  79.4467258  26.8200958  37.3043829   8.8813991
  26.6022003  36.4128023   9.1531486  26.0838735  37.5741010   8.3323401
  42.3810720  66.5749979  89.5209885  42.3859310  66.2540960  88.6191940
  43.2251549  67.0146465  89.6233082  49.7157360  17.8019191  80.6288719
  49.9694897  18.5938884  81.1028099  48.8618387  17.5682116  80.9928417
  76.3181080   7.7822638  93.8708878  76.9648851   8.0712462  94.5146275
  75.5857290   8.3891822  93.9781380  39.7708977  49.1682249   6.5780944
  40.2591837  48.4186273   6.9185561  40.4442919  49.8090845   6.3499087
  59.2063189  79.2317867  88.4471321  59.6053267  78.5601425  89.0002251
  59.0702009  78.7984276  87.6045704  37.0544231  39.3992143   5.5196208
  36.6991365  38.8890844   6.2474746  37.2333849  38.7514597   4.8380012
 104.8073066  10.0482989  93.4573269 104.1245855  10.6497145  93.1599712
 104.5742716   9.2077018  93.0632305  42.7048290  11.4785915   2.0191401
  42.7549637  12.4291664   1.9184989  43.5896957  11.2177807   2.2745246
  60.9727383  81.3145161  82.6993275  61.4263725  81.8404293  83.3580112
  60.0681591  81.6264439  82.7252007  15.0823569  85.3035450  78.0464125
  14.4730806  85.9996319  78.2923460  15.1506174  84.7572803  78.8294649
  41.1299896  93.6360741  83.6116028  40.8510160  94.4262028  84.0743160
  41.1878920  93.9035130  82.6943493 104.8541524  81.4245992  27.9737491
 105.5706789  80.8051210  28.1118030 104.1750123  81.1460787  28.5880965
   0.2744925  18.0286079  11.4468402   0.5342973  18.8760906  11.8081016
  -0.5435884  17.8171688  11.8965835  52.9979801  96.9945335  87.8661823
  52.9228115  97.5385475  88.6501598  52.1046543  96.6963768  87.6949883
  21.3556183  24.3079048  18.1557483  20.4010284  24.2787891  18.0913657
  21.5271986  24.8433262  18.9304179  30.7928324 104.7613430  86.9104576
  30.1960349 104.0894318  86.5809155  31.5963483 104.2856312  87.1209240
  48.0557251  87.0808983  70.1057959  47.5816154  87.9042339  70.2223301
  48.9699841  87.3438931  69.9999857  29.3750656  19.8063284  19.2265243
  28.6027181  20.0631624  19.7302646  29.0242422  19.4958931  18.3917922
   9.9197513  99.5168018  37.9543662  10.5587506  98.8939667  37.6079631
   9.9597776  99.3981552  38.9033413  50.2047157 109.8566341  82.3044872
  50.1121950 108.9268112  82.5121021  49.3055153 110.1790619  82.2435379
  30.5296946  68.4327030  91.8557453  30.6660891  69.3612003  91.6672707
  30.0944710  68.0911589  91.0746193   8.8507593  69.0136724  21.9962901
   8.6352861  68.0894952  22.1215743   9.6235645  69.1556745  22.5429458
  82.3883330  21.2142568  36.0689467  82.6549699  22.0311886  36.4905662
  83.2116177  20.7856231  35.8350486  32.3474443  17.0215755  18.4202117
  32.5387705  16.6538816  19.2830104  33.1049717  17.5717550  18.2209796
  66.7699623  89.4501209  79.3515921  66.2309313  88.9196396  79.9383307
  67.5649738  89.6296597  79.8535442  59.7643137  85.9916401  81.2611866
  59.0933323  85.3445911  81.4787769  60.5870867  85.5833435  81.5305710
  47.7046394  94.4348431  90.2868557  48.2031536  93.9610863  89.6210766
  46.8366289  94.5491600  89.8999119  41.8399704  51.0486227   7.9444140
  41.9459713  50.9922796   6.9947738  42.4307335  51.7534071   8.2099551
   8.9987362  73.8992506  17.0213050   8.9815796  73.5599905  16.1264152
   9.4468725  73.2206350  17.5261706  64.5475054  77.1891356  56.9342232
  63.9917898  77.2377348  56.1563730  63.9610481  77.3989439  57.6610518
  44.5542002  95.0299931  94.2475510  44.2707920  94.9697971  95.1598454
  43.7500334  94.9235058  93.7394047  27.5756812  68.5448265  80.5426598
  28.4423447  68.4728718  80.1427269  27.0558000  67.8666592  80.1113319
  90.1374067   4.6392775  85.0468349  89.6216215   4.2714358  84.3292809
  89.5094217   5.1536799  85.5540466  79.5985365 105.9837723  75.8489466
  79.1316843 105.3246212  75.3353357  78.9419365 106.3223648  76.4576054
  50.5062855  76.0802751   4.6701831  51.1268986  76.1951833   3.9505500
  50.9017551  75.4055505   5.2220744 107.7021482  20.9546142  35.7565707
 107.8841116  20.8127504  36.6855544 108.3336093  20.3978353  35.3010768
  36.6870046  89.8973656  91.0047722  36.8268180  90.5801201  91.6609287
  36.0396409  90.2696323  90.4059696  86.4685535  79.1622877  86.2645149
  87.2470665  79.5633507  85.8781147  86.4461231  79.4976759  87.1607494
  29.7496593  30.2493005  19.5870894  29.4369495  30.5419164  20.4431361
  30.0137794  29.3399053  19.7266120  48.8332844  71.9841671  80.3235722
  49.5165396  72.6516342  80.2612686  48.0264139  72.4797249  80.4636288
  29.0007484  43.2626920  23.0711860  29.8981464  42.9786592  22.8973025
  29.0984190  44.0920644  23.5389823  30.9863270  45.3939539   2.9215545
  31.7249382  45.4805952   3.5242003  30.2480877  45.1519304   3.4807223
  10.4119671  75.6825643  18.8123721   9.9774349  75.1652818  18.1342620
   9.8419607  76.4414030  18.9368552  23.3855236  41.1195856   9.0804786
  23.8842714  40.9612566   8.2789630  23.3576191  40.2683359   9.5172996
  90.3318752   7.5732375  80.7909489  90.3068365   6.6834403  81.1428833
  90.6099952   7.4634219  79.8816538  72.7148056  87.5445843  74.2421579
  73.5202169  87.4972057  74.7572231  72.8018999  86.8434525  73.5963583
  41.6006553  73.0629259   3.0081386  40.8657396  72.5216203   3.2964534
  41.6176975  73.7929445   3.6270255  52.9904068  37.1160322  12.4116820
  53.5195816  37.3435503  13.1761760  53.6301697  36.9256788  11.7256087
   0.9477066 108.3891492  20.5578059   1.3435244 108.2321172  21.4150733
   1.5553497 107.9881625  19.9363536  23.6016871  -0.0476783  14.6803779
  24.2798330   0.0244576  15.3520507  22.8453113   0.4044587  15.0541514
  85.9030201  35.5199819   7.8430289  85.7493063  35.9621149   8.6779708
  86.1502375  36.2226396   7.2418803  48.0002499  97.4362755  65.2280855
  47.5944757  97.7079487  66.0513544  48.3742189  98.2406807  64.8684788
  27.2996986  61.1853223  11.5137118  27.9838836  60.6287199  11.8856257
  27.7010858  62.0524126  11.4565486   4.9627722  42.9317480  26.3762492
   4.3391168  42.2061639  26.4045829   4.8660124  43.2965379  25.4965896
  16.4355648  19.2490535   9.5267982  17.1623791  19.5919662   9.0068072
  15.8281887  18.8883596   8.8808650  65.6339025  72.7239418  86.9334698
  65.2287340  72.0111895  86.4394474  65.5309200  72.4687004  87.8502464
  37.9061222  67.6026964  91.1938286  37.3761940  68.3961487  91.1174202
  38.3412766  67.5226498  90.3450298  70.8146000  72.8577709  94.3929863
  71.5022039  72.9489088  93.7333393  70.5813313  73.7575006  94.6216869
   1.7906463  40.3867250   9.5711154   2.5393760  40.5382829   8.9943427
   2.1800697  40.1235777  10.4049796 114.8231043  95.4192309  16.1877269
 114.3547023  95.0472074  15.4404468 114.2608608  96.1314921  16.4923495
  42.5664997  95.2034092  88.6980724  42.6059818  95.0908756  87.7483273
  41.8896484  94.5899487  88.9840221 101.8154920   2.4387599  69.9131870
 101.6271604   2.8472853  69.0682745 102.0521129   1.5370990  69.6958303
  89.4693565  84.3026829  59.7097540  88.7647247  84.2984104  59.0619040
  90.1959801  83.8550854  59.2762709   9.4213556  43.2414103  23.8262153
   8.7589716  42.7091456  24.2668700   9.5260023  44.0082312  24.3894744
  32.5237322 101.2352753  84.9369240  32.1124315 100.3965378  85.1456642
  31.9811797 101.6007614  84.2381477  83.1556797  88.4026909  95.3983593
  83.3530521  89.1058922  94.7796631  83.3802795  87.5998306  94.9280357
  26.7481888  27.7156835  18.5260409  27.0207441  27.1103101  17.8365058
  26.2250221  27.1798330  19.1221923  13.7475050  24.0056663  30.7102031
  14.5814026  24.4184595  30.4855937  13.3137644  23.8682609  29.8680514
  42.9894829  71.6876173  76.5805674  43.0974722  72.5863791  76.2694454
  43.2896805  71.1442423  75.8519650   2.9493320  48.0296045  48.4962481
   2.7504814  47.9678541  47.5619620   3.8835895  48.2352930  48.5291881
   8.6040567  13.9419604  78.3028173   8.5443472  14.8716117  78.0827951
   8.2830118  13.8877631  79.2029428 107.6114275   4.5871263  25.6220454
 108.1431486   4.0712171  26.2281245 107.6550200   4.1057974  24.7958106
  89.5302356  13.7955428  95.0255013  89.7843040  14.7139693  94.9350929
  89.3514074  13.5072756  94.1304302 111.2836755 101.2828355  19.5925254
 111.6660322 100.5788569  19.0686435 111.9063629 102.0055013  19.5135135
  29.9985528  80.3743649  84.7624111  29.8062968  81.0129452  85.4490566
  30.4877424  79.6830130  85.2084541  98.3314050 103.1435828  34.4973201
  98.6218132 103.8475852  35.0772113  97.4931682 102.8619056  34.8637313
  47.6895857  62.1863413  81.5611649  46.7666483  62.1029091  81.3214684
  47.6750803  62.4581480  82.4788475 103.2195570   0.9377056  14.1442794
 102.5362017   0.5340152  13.6092204 104.0393951   0.6275230  13.7597198
 112.3694470  15.4602056  12.3663157 113.0691268  15.5722051  11.7227859
 112.8156736  15.4885536  13.2126636  11.1916244  21.8817716   5.0997371
  11.9871700  21.5213543   4.7080344  10.5152452  21.2317568   4.9094218
  19.4705951  38.8202768  27.0585937  20.2111662  38.2287794  26.9247455
  19.0709055  38.9033514  26.1928100  28.5788191  51.4993482   9.2291087
  29.1628778  52.0854288   9.7103709  28.6305654  50.6685453   9.7016925
   7.9865539  46.5098863  17.4573249   7.1077526  46.8019586  17.2151774
   8.4654320  47.3180776  17.6409930  52.2874022  83.8053894  90.2985001
  51.5376186  84.0717316  89.7663975  51.9405842  83.7467766  91.1887264
  43.4192181  73.7751722  82.6040554  42.5011396  73.5487986  82.7528000
  43.8595200  73.5386324  83.4204006  30.2015138  95.7199669  72.5068855
  29.7733116  95.0869370  73.0832052  30.4196072  95.2190590  71.7209148
   1.7514026  37.5764185  13.0303878   1.3200653  36.7398935  12.8560180
   1.5338314  38.1204420  12.2734660 112.0036223  39.5371824   8.9044589
 112.0782163  40.4366403   9.2232722 111.2243535  39.1923910   9.3404502
  51.1176538  84.1046429  77.6301813  51.9092417  83.9237976  77.1233130
  51.4290667  84.5845318  78.3976173  33.4394240  97.7483177  63.6128092
  32.8973842  98.0356884  64.3475485  33.1660247  98.3029652  62.8821516
  20.9059179  43.7421709  11.2657279  20.1727712  43.1622797  11.4717692
  21.6804970  43.1847864  11.3404674  18.5508955  25.1212316  18.3581561
  18.2226980  25.4925924  17.5392455  18.5413730  25.8538347  18.9741439
  51.7745924 103.8155746  77.8338671  50.9591961 103.6572361  78.3095646
  52.1501017 104.5897388  78.2532597  50.2403402  91.2161064  47.8799009
  50.5236101  91.7058182  48.6520195  50.5423498  91.7414856  47.1389580
  19.7076487   8.5467005  60.9517670  20.1933741   8.3331061  61.7484331
  19.1638159   7.7760077  60.7889366 104.4384601  54.2800909  15.7616729
 105.3417113  53.9653974  15.7250995 104.1789987  54.3704611  14.8447532
   1.1365307  64.5283514   3.2681483   1.3019121  64.0944582   4.1051787
   0.1932204  64.6907907   3.2648391  18.6447704  42.2523599  12.1442908
  18.1151331  42.8771692  12.6395911  18.6742103  41.4717966  12.6975554
  33.4015644  32.7635294   2.7335471  33.3327472  31.9164663   2.2931022
  32.4968565  33.0653768   2.8149051  66.8684196  73.3796740  72.2526455
  67.1655416  73.6503506  71.3839149  67.3897219  73.9059925  72.8588343
 104.7683634  98.3317475  10.7706470 104.3440689  97.4932675  10.5885619
 104.0518297  98.9118438  11.0281390   8.2346618  49.2086225  39.3556231
   7.9873026  48.2969862  39.2008513   9.0830839  49.1552072  39.7955722
  59.7799540  89.1749763  81.0573006  59.7185850  88.3058548  81.4536572
  60.7038593  89.4112110  81.1399269  89.7287239  22.1974421  64.4889832
  90.1259149  21.5128661  65.0273371  89.6287073  21.7956401  63.6259747
  45.3110504  82.5401115  72.9083490  45.0890493  83.2892895  73.4612322
  45.3423023  81.7978954  73.5119724  33.3192098  53.1868559  24.3864268
  32.5787628  53.7725835  24.5442122  33.3141554  52.5879293  25.1330775
 107.3873806 102.3399544  89.9618435 107.3575401 101.7036533  90.6763077
 107.1535110 103.1723499  90.3725147   5.2122391  86.2018018  15.1129550
   4.3247688  86.5312105  15.2547759   5.2214897  85.3460985  15.5418033
  30.8414734  62.5595956  25.5967730  30.3166998  62.8481012  24.8500461
  30.4271353  61.7445474  25.8800620 107.3411729  44.1584306   9.5950431
 106.9675329  43.9517980   8.7383479 106.6899135  43.8445573  10.2223987
  33.7834776  44.9240022  17.7201480  33.4657181  45.8053785  17.5240821
  33.9882505  44.5473390  16.8643302  61.6318226 100.1594257  82.6381874
  61.0788488  99.8225689  81.9332218  61.3263273  99.7020435  83.4215832
  70.9874249 101.7951393  80.7392311  71.0914707 102.7360821  80.8807945
  70.7458878 101.4489460  81.5983200  12.7257049  52.7434545  28.7120456
  13.0650985  51.8741232  28.4992141  12.7039135  52.7644449  29.6687716
  28.4087122  64.9713522  14.6969336  28.6047447  64.1794878  15.1976794
  27.5154531  65.2014356  14.9526328  28.6674011  48.7102419   2.9002685
  28.0787695  48.1634813   3.4206504  28.2818163  49.5853048   2.9429549
  55.1758718 100.4868889  89.5041466  54.6540213 100.5818272  88.7073421
  55.7722616  99.7624874  89.3149567  94.6913112  28.0383349  68.2885408
  94.9775566  27.1556235  68.5233021  95.4108204  28.6052466  68.5662985
  26.6168583  48.7727647  21.6787070  26.2258184  49.6309000  21.8427962
  26.1052549  48.1694132  22.2176475  92.2731174   6.7095423  83.4788895
  93.1124986   6.8620921  83.9129353  92.4029792   7.0308448  82.5866318
  61.5180779  97.9921150  46.9134760  60.7927895  98.6160564  46.9432926
  61.1414385  97.2057247  46.5185356  84.1082205   1.0505439  74.3706656
  84.8053850   0.4713488  74.6784258  83.5143770   0.4752875  73.8883162
  89.2498268  22.8047229  93.1340408  89.1310657  22.5654078  94.0532017
  88.7171282  23.5918856  93.0207348  40.7622040  70.9733110  10.2970809
  41.1520994  70.1996809  10.7041759  40.4775512  71.5139299  11.0339183
  11.3982141  63.4380823  15.9591979  11.4959371  63.1627279  16.8707103
  10.5097378  63.1719404  15.7225341   1.2242544  75.6449800  13.7497539
   0.3593219  75.8531385  14.1030139   1.7308176  76.4485651  13.8675422
  87.7362728 107.8690529  92.7277756  88.4573269 107.3054218  93.0081654
  88.1327343 108.4684753  92.0955181  39.7220791  24.9282699  12.3639029
  40.4773987  24.6757799  12.8949183  39.9310529  25.8094412  12.0539016
  39.5921636  81.2978363  85.2947140  39.2402482  80.6619644  84.6717834
  39.4101357  80.9173489  86.1539745   8.5915125  82.6566034  22.4051208
   8.6434114  82.8112894  21.4619273   7.6542413  82.5813394  22.5842685
 116.4827312   2.7631808  68.0486774 116.3099445   3.0496360  68.9455128
 115.8792461   2.0332671  67.9099131  66.0937309  87.1760368  89.7608948
  65.2783394  87.5292969  89.4051075  66.1599398  87.5603008  90.6350708
  68.9825010  84.1545200  88.0635262  68.9004564  85.1078510  88.0378914
  69.8204517  83.9746952  87.6372242 110.4930117  40.5378156   1.6535491
 110.3965714  40.8912473   2.5378627 111.3858917  40.1937109   1.6291923
  44.8321247  83.7099171  86.3923359  43.9138269  83.9000988  86.2005234
  45.2235270  84.5665741  86.5631104  28.6782074 100.5763340  77.5599861
  29.1563249 101.1886787  77.0008135  28.4000874 101.1032200  78.3091688
   3.2173132  20.5507994  84.5083141   3.1692480  20.2545691  85.4172516
   3.6784052  21.3884021  84.5534515 105.3147138  28.4927607  55.0951099
 105.7066311  29.3611956  55.1871347 104.9281849  28.3124018  55.9520197
 116.1290468  15.0594474  85.4801750 115.4231466  14.5197154  85.8360195
 116.2417091  15.7602645  86.1223602  64.8389137  47.5014406  10.3233832
  65.3304947  47.3716837   9.5123691  63.9285171  47.3315435  10.0814265
 105.6522621  13.8955451  77.7491474 106.2195982  13.3690787  77.1859455
 104.7649111  13.6882354  77.4561405  45.6656313 102.6944923  91.9427490
  45.5965519 103.6370754  92.0943737  46.1359835 102.3627186  92.7075577
  39.0791929  45.1326948   1.6674632  39.0648115  44.3240076   2.1793574
  38.1566274  45.3627973   1.5571898  58.9873886 101.3643074  81.4014626
  59.3308973 101.8914127  80.6800747  59.3967915 101.7334938  82.1839714
  93.5913147  12.7220488  62.4863815  93.6719478  12.0553065  63.1684303
  94.4627155  12.7689410  62.0930672  37.9377783  61.8887525  25.8401221
  38.7117946  62.3906427  25.5847186  38.2127512  61.4039045  26.6182918
  18.7168587  63.8222891  31.8554133  18.2313001  64.5852190  31.5417117
  18.8315285  63.2752615  31.0783404  80.4544449  92.6681423  59.0806198
  79.7295046  92.1251392  58.7710524  80.5842304  93.3133411  58.3855581
  20.3251255  36.1707216   4.0008277  20.8220852  36.7810541   4.5455855
  19.4137848  36.3049799   4.2609519  69.0093660  82.9193020  90.9549904
  69.6179724  82.2276688  90.6952095  68.4788847  83.0772972  90.1740456
  20.7798147  60.1347351  57.1407604  20.5653286  61.0610819  57.2507811
  20.6538153  59.7548056  58.0102539  69.6654415 103.0334568  64.8757505
  70.5712748 102.9900551  65.1820469  69.6375370 103.8124180  64.3201685
 100.2301598 100.0663471  81.3298130 100.8917999  99.3915272  81.1778736
  99.3951607  99.6162415  81.2017441  94.1337204 107.9577541  87.6281166
  93.5526276 107.2029114  87.5344467  93.8177872 108.4074402  88.4118176
  89.3239117 104.2251110  72.0816803  89.4663239 105.1649475  71.9691324
  88.4198952 104.0844631  71.8002319  23.1697643  53.4028154   2.2678966
  22.7611339  52.6418501   1.8553561  22.8578937  53.3810907   3.1726092
  44.7965896  42.2149473   2.8328532  44.7747410  42.2070127   1.8759364
  45.5495823  42.7642923   3.0506915  47.1214950  62.8759580   8.8319606
  46.9580734  63.5012823   9.5380038  47.5429046  63.3938699   8.1460971
  72.9124165  86.6937828  89.4825554  73.2815456  86.4342213  88.6384010
  73.0838156  85.9485149  90.0582504 102.6290668   3.1094695  89.9623203
 101.8174757   2.6092387  89.8766804 102.6799263   3.6232520  89.1563034
   8.4705614  25.7513381  69.0845060   7.7854132  25.2926112  68.5983133
   8.1084513  25.8599044  69.9638939   7.3653639  52.0180326  10.4227275
   7.9834926  51.8578821  11.1358184   6.5091503  51.8099981  10.7966918
 112.1543648  91.4768797  11.5611285 111.8596365  91.3287264  12.4596900
 112.2309353  92.4281984  11.4879531 114.1925528  30.5029398   6.6007060
 114.9316599  30.0383764   6.9933146 113.7950590  29.8640352   6.0090655
 113.3625091  14.5534564  65.0759840 114.2837728  14.4588710  65.3179741
 113.3747257  14.6639205  64.1252565  34.5289457  38.3286482  12.4273223
  33.8710487  37.6692396  12.6477164  35.3063715  37.8221231  12.1922320
 114.9391010  40.4036718   7.0002955 115.6815460  40.9462648   6.7345828
 114.1913893  41.0012727   6.9941920  32.7392888 106.4766121  66.6268826
  32.1483827 107.2113132  66.7920589  33.5397887 106.7018223  67.1009159
  14.9206198  53.2078367  30.7945651  15.5481041  53.9100843  30.6232566
  15.1810634  52.5037771  30.2006835  16.8943250  68.1124597  44.0575236
  16.2329138  67.8188711  43.4309691  17.0037306  69.0449243  43.8710040
  70.3935957  87.1438885  83.2223606  70.3759956  87.1755219  84.1788769
  71.3057804  86.9508266  83.0058479 115.4642537  31.3280302  24.3245715
 115.4525831  30.9308820  23.4537333 116.0969689  30.8056837  24.8175734
  84.5084476  98.9748287  83.7565422  85.2592278  98.6273003  84.2379856
  84.2704487  98.2761192  83.1471252  19.5621526  62.6941591  37.0514316
  19.0829265  63.5060602  37.2168941  19.1676939  62.0574766  37.6474875
  21.2101543   8.3267360  38.1715220  20.7117260   8.6031538  37.4024981
  21.5295494   7.4524217  37.9483718  75.6546164  72.8702974  76.3118219
  74.8268604  72.4202442  76.4806557  75.4017353  73.7739611  76.1229467
  89.1173744  97.1158409  85.3827381  89.0604019  96.8911743  86.3114548
  89.4185066  96.3116646  84.9598217  39.1854465  55.1006418  14.8584765
  39.1051853  54.6406656  14.0228862  39.4067467  54.4152170  15.4889125
 105.1033462  50.7562209  81.8089104 105.5524696  49.9133540  81.8729591
 105.5222620  51.1951972  81.0686111  90.9283985  21.1489249  76.0280943
  91.3928903  20.4717971  75.5361891  90.4181589  21.6173983  75.3674793
   4.9286150   0.7584143  91.4078045   4.9400114  -0.1720380  91.1834240
   4.1102194   1.0849620  91.0338783  10.3081358  56.2992864  12.4336452
   9.8374212  56.4886194  13.2453174   9.7808779  55.6268697  12.0022696
  91.5426553   3.3392001  90.5013943  91.5241445   2.3962451  90.3379440
  92.2987999   3.4682418  91.0739613  92.5357914  83.4801769  89.1259384
  93.2591534  84.0762615  89.3200207  92.9227924  82.8089046  88.5639477
 103.0601788 109.7721672  91.5874100 103.6069775 110.5087376  91.3140774
 103.6804390 109.1250420  91.9231701  80.3658867  76.5873146  82.5158691
  80.7714558  76.9378805  83.3088684  79.5296907  77.0485497  82.4505234
  17.7794909   7.1313716  89.8016071  17.1221422   7.4297763  90.4301643
  17.2885965   6.5974475  89.1769695 106.7347553  58.8515478  12.0134467
 107.3500588  58.1254678  12.1156234 106.8925002  59.1762262  11.1269206
  11.7956865  47.9001241  20.0364131  12.7425373  48.0023199  20.1326579
  11.5533531  47.2662740  20.7115001  76.9445658 105.6358147  81.8728542
  77.3857403 105.4072666  82.6910019  77.6566124 105.8044910  81.2557888
  69.3459797  86.8687248  80.3863716  69.8416662  86.7494202  81.1964893
  68.4946251  86.4695549  80.5655098   8.0035007  70.5323797   2.1448344
   7.7101457  69.6318250   2.2833365   7.7952135  70.9808546   2.9644221
  37.6568115  53.6495214  19.0183181  38.2967031  53.5134130  19.7170657
  37.1191585  52.8576570  19.0283317  13.4577501  32.7731233  19.6016807
  14.1105974  32.2070890  19.1898173  13.4926212  32.5428205  20.5301017
  63.1053257 104.8728085  89.9888134  63.6176348 105.4694080  90.5345726
  62.9209709 105.3737068  89.1942406  64.7388351  59.7524839  24.6590346
  64.3533218  59.9579817  25.5107230  64.0936172  60.0616937  24.0231818
  56.0173023  28.3204752  10.9910506  55.0622738  28.3813005  10.9698314
  56.1965645  27.5577837  11.5409583  19.6648824  56.0941606   1.0948009
  20.5686319  55.7821661   1.0486907  19.4669998  56.3872247   0.2053088
 108.2432474   2.0040847  81.3458633 108.7803520   2.7886058  81.2350464
 107.5622095   2.0837737  80.6779766  60.2691353  53.1070429  17.9483146
  60.4286659  52.1817022  18.1341189  59.3396080  53.1494528  17.7237815
  52.0469272  67.7348333   7.3879642  52.8837097  67.8160673   7.8456134
  51.5272415  68.4729868   7.7062053  23.4654510  83.2336050   0.9504336
  24.3291366  83.6359792   1.0418910  23.4344948  82.9370218   0.0408668
  85.7876778  82.4956989  72.4431229  86.5760326  82.7496910  72.9229355
  85.3215885  81.9109344  73.0406618  63.5034180  87.0437241  74.2964029
  64.1724253  86.9600868  74.9758625  63.9343119  87.5319386  73.5948229
  10.9008192  30.5022479  90.5719757  11.4998697  30.7541228  91.2747860
  10.4468988  29.7300387  90.9094238  58.6932611  75.6367540  87.9129314
  57.8724813  75.6594038  87.4209595  58.4539747  75.9312105  88.7917137
 114.3730404  18.0294710  13.1983108 113.5975745  18.5810476  13.0951232
 114.0782335  17.3017984  13.7458629  25.6392944  74.2741209   0.1221293
  25.3880823  75.1150995  -0.2598077  25.6439483  74.4316774   1.0662574
  72.8037834 100.7833576  74.0607119  71.9802094 101.0459900  74.4717836
  72.5825977 100.6620693  73.1373453  33.4123552  49.4109541  18.0485743
  34.2906988  49.3580061  17.6718158  33.5424078  49.2492777  18.9830131
  48.1676019  98.2987647  11.4395350  48.6564751  97.6723390  10.9058398
  48.8323785  98.7181287  11.9858283   9.3929243  43.8193321  46.0294390
   9.6322763  43.9851475  45.1176023   8.6170006  43.2613993  45.9757328
  15.5420984  73.6800985   1.3996142  15.2110780  73.4774356   2.2745913
  15.8494748  72.8399067   1.0592765 115.9662655  17.5967312  56.1010170
 115.4181945  17.6338840  56.8848991 115.4012567  17.9179215  55.3982878
  30.1077104  31.4514565  65.6488800  30.9375405  31.1384583  65.2888203
  29.5287657  31.5221119  64.8898935   1.3658177 106.7408877  93.9733601
   0.5895315 107.0839327  94.4159985   1.0280644 106.0619294  93.3892632
  19.9573339  45.2061300   4.3427104  19.0133060  45.3423785   4.2622203
  20.2548660  45.0549458   3.4455794  91.5649857  25.6870437  87.1599579
  90.8406844  26.2962365  87.0167732  92.3083725  26.0888863  86.7103672
 106.7429138  97.5537252  62.7610588 107.6766945  97.3784088  62.6446629
 106.3179685  96.7139839  62.5864506   5.6343174  49.6167564  64.9767494
   5.8103085  48.6758757  64.9766922   4.8415852  49.7121096  65.5046892
  24.3064618   4.9584839  65.3000259  25.2038884   5.0356060  65.6239223
  24.3601847   4.3103698  64.5976782  32.3147250  63.3822702  12.8858394
  33.1902326  63.7681721  12.8575820  32.3199440  62.8337775  13.6702842
  41.3467884  11.6674602  64.2448282  41.0385132  11.7717755  63.3446503
  41.6215086  12.5460374  64.5072412  20.9053016  16.8542218  72.0177746
  19.9884284  16.6990626  71.7908382  21.2136197  16.0138834  72.3568964
  48.6477662  39.6846871   7.9471606  49.5658137  39.8507731   8.1612510
  48.1864024  39.7805004   8.7803382  15.2734637  32.2288704  79.1486883
  15.2135611  31.4145184  79.6481657  15.9582305  32.7310014  79.5904922
 104.2298772  33.7922788  69.6057653 103.7833752  33.6677051  70.4432344
 104.0115370  33.0099821  69.0992355  68.5294236  86.7118983  11.3395232
  69.1932143  87.3539357  11.0877246  68.9769448  85.8679967  11.2779922
  76.1606349  62.3588078  10.3074664  76.4342035  62.0027899   9.4621009
  75.4614104  62.9761164  10.0924129 111.9153323  21.9826889  58.2302570
 111.2843545  21.3471746  58.5682201 111.7148419  22.7922726  58.6999464
  92.4236072 109.2737029  83.6682129  91.8342222 109.9922359  83.4389400
  91.8589593 108.5014116  83.6993504 106.4592411  30.3974247  37.3760748
 105.8787658  29.6719074  37.6060796 107.2671183  29.9746966  37.0847535
  29.0851171  43.6672990   4.1034717  28.2866467  43.4382658   4.5790977
  29.7858740  43.2303457   4.5874518  33.2826138  14.5781159  87.2121239
  33.3745480  14.5726252  86.2593651  33.4548450  15.4853392  87.4641418
 103.3702185  13.2300293  70.5811071 103.1660499  13.8256586  71.3020611
 104.1290989  12.7338588  70.8879423  36.7500305  29.3397188  85.6315041
  36.8597746  30.2590322  85.3884983  37.3446703  28.8656902  85.0501823
  40.4172611  15.5564857  37.0578909  40.2288818  16.0485804  37.8570056
  40.7537031  16.2118626  36.4467263 102.5488259  40.6764936  61.4435005
 103.3132972  41.2399769  61.3238907 102.3185732  40.7780552  62.3670292
  76.5261902  23.9927578  92.6479149  76.0754099  23.4947658  91.9659805
  77.0900406  24.5995736  92.1682453  89.9048676  32.7668142  66.4082336
  89.4199981  33.3652282  66.9765902  89.3053021  32.5852871  65.6844902
  18.1749058  12.0510936  63.8757992  18.1057370  12.4781597  63.0219460
  17.5071287  12.4784541  64.4121456  30.4721904  12.3737860  79.5891476
  30.1725006  12.4429977  80.4955864  30.6592917  11.4427483  79.4691706
 114.6058208  15.5800986  79.3848085 115.0790738  16.2626481  79.8606110
 114.2874511  14.9892211  80.0672531   5.2064103  11.6268754  39.9974442
   5.0500017  11.5513408  39.0561366   5.7442683  12.4134159  40.0885153
 115.1090591  19.5359290  53.2273006 115.4478988  19.5642650  52.3325300
 114.1584798  19.4959033  53.1222820  17.3531830  14.7560227  74.3397522
  16.4962828  15.1528311  74.1832304  17.2206819  13.8239348  74.1668749
  56.9749380  35.5622678  12.1528453  57.8803779  35.6785743  11.8649501
  56.7896892  34.6369152  11.9927329  21.9160223   1.9952963  84.5830822
  22.7553535   2.2553812  84.9627113  21.2990284   2.0386629  85.3136158
  11.2659061  37.5065422  74.8255157  11.4775157  36.7795181  75.4110813
  10.6897390  38.0701041  75.3419065  22.2857165  27.6790595  81.6882706
  21.3424754  27.5827932  81.5569019  22.6789451  27.1069193  81.0292912
 100.1579525   8.7177944  66.5836954  99.4883694   8.1262863  66.9272184
  99.6831860   9.2961204  65.9867287  75.4660454 107.7902595  80.7996750
  75.1498658 107.9579497  81.6874504  76.0946638 107.0754596  80.9003258
  22.2406173   1.0221043  64.7846222  21.8071127   0.2804527  65.2068281
  21.8489528   1.7934230  65.1943731 100.0042405  36.9040012  65.9027052
 100.5209460  36.1780429  65.5530930  99.9518695  37.5302458  65.1806879
  81.1453762   3.6471426  46.9876575  81.4779558   4.3447042  46.4228296
  81.8949523   3.0661672  47.1174097  23.3336652  62.7238797  20.8792037
  23.1984736  63.5731142  21.2996310  23.4489645  62.9313456  19.9518985
  33.6456847  51.3974380  77.0910358  33.4306550  51.4936304  78.0187988
  33.7379503  50.4533100  76.9632006  59.5709718  93.2193379  20.3418368
  58.7067224  93.6306219  20.3540915  60.1230396  93.8066106  20.8581370
  77.1107973  54.7726022  10.7223910  77.4420179  54.3465312   9.9318332
  77.4550618  54.2433696  11.4418525   0.4547893 105.7490023  46.1535263
  -0.3412880 105.8090528  46.6816187   0.8056437 104.8797228  46.3471413
  55.8852720  18.0675626  81.8853951  55.0451565  18.4891558  81.7045689
  56.5233469  18.5842025  81.3932800 101.1021092   5.3803688  10.6555575
 101.6945364   6.0994392  10.8751029 101.4816525   4.6163231  11.0896224
  24.3874836  69.7461987  91.4906120  24.1193485  70.5985022  91.1472225
  25.0922203  69.4640112  90.9075642 112.6590233  20.3645873  74.4160891
 113.1735077  21.0202599  73.9453125 112.9335176  20.4547620  75.3286409
  56.0245253 100.0189441  58.8888264  56.7759324 100.1574277  59.4654036
  55.2647782 100.0714939  59.4687033  67.0410789  82.2972088  13.3924216
  67.8329123  82.1466665  12.8761119  66.6582144  83.0905681  13.0179519
  64.6818865 106.5452580   4.3475932  65.4872168 106.6612391   3.8433856
  64.4089640 107.4350934   4.5710486  34.8519762  59.1794311   5.0718039
  35.2385126  58.7376134   5.8278579  34.1623936  59.7299339   5.4428214
  11.4991868  29.8069978  71.5597820  11.9290650  29.0263772  71.2103987
  11.8823540  30.5324101  71.0666370  15.3827012  32.4485493  84.1991043
  14.9366617  33.2946682  84.2360306  16.3131630  32.6655579  84.2572212
 103.1781187  28.0800700  81.5534115 103.2196083  29.0304279  81.4469528
 102.3140993  27.9190254  81.9325733  28.6699224   1.2473176  82.0530987
  28.1614399   1.6105966  82.7781582  28.9909244   0.4079019  82.3826027
  38.1022501  39.4218302  43.1295347  37.4197388  39.7709370  43.7027121
  38.7500048  39.0493059  43.7277603  33.1435895  45.5721235  84.1329670
  34.0584493  45.3387833  83.9754486  33.1215763  46.5253353  84.0485191
  43.6983299  18.1688011  83.0361080  43.0265713  18.6099863  83.5560322
  43.3051491  18.0727136  82.1686935 110.3839686  -0.0364910  81.8594170
 109.7839459   0.7070994  81.8021679 111.2366398   0.3245614  81.6168785
  27.1413422   8.6344534  74.3160343  26.6363168   8.3361316  73.5596037
  26.5144706   9.1314405  74.8416424  42.6101303  28.3290529  53.6729145
  43.0340433  28.8030505  52.9574728  42.3038435  27.5152564  53.2727146
  15.0177802  68.6309593  18.6678428  15.6926335  67.9791539  18.4782237
  15.4332389  69.4703393  18.4701842  96.7314138  53.5871458  60.1328087
  97.0691433  54.4748449  60.0137949  96.8743457  53.3988619  61.0603619
   6.3223076  24.2296171  68.3254862   5.4271954  24.0185595  68.0600452
   6.7342204  23.3788943  68.4765768 115.6949223   1.9899854  79.7992706
 115.4348578   1.8456113  80.7090759 116.6084157   2.2708376  79.8529673
 115.7935487   6.7424858  90.8219147 116.6715810   7.0795745  90.6439686
 115.3657532   6.7247576  89.9658108  17.7851593   7.8947586  94.1255474
  18.5089815   7.3819119  94.4851303  18.2090390   8.5590345  93.5821342
 108.7134030   8.6875910  80.6292057 108.7517466   7.7427554  80.7776928
 109.5938130   8.9989841  80.8393097  29.5170736   6.8449032  32.0138192
  30.1686049   6.5710950  32.6593947  30.0223970   7.0058262  31.2169600
   2.7696186  32.9578114  57.0138979   2.2956333  32.1746683  56.7341566
   3.6546040  32.8379869  56.6694069  60.6029667  92.0439153  35.6912440
  60.1628507  92.5072150  34.9785823  61.1387790  91.3831429  35.2524775
  89.7877539  64.4120120  55.4370594  90.5248929  64.9282407  55.7632017
  89.0311230  64.7422790  55.9214830  89.2502190 108.7662435  63.8164377
  89.5808567 109.3807383  64.4716549  88.8993491 109.3230499  63.1213951
  70.3358115  97.1859174   1.9659823  69.4655288  96.8601327   1.7364043
  70.9329165  96.4925485   1.6850203  40.1824760  19.0035188  68.5268164
  40.9573269  19.5609248  68.5984850  39.6831584  19.1839170  69.3232870
  53.1598473  38.1175375  51.7835903  53.6548328  38.0388880  52.5990915
  52.2864485  37.7918696  52.0011806 111.4781638  -0.1192674  54.8549604
 112.4068846   0.0782114  54.9762535 111.0855415   0.7180093  54.6078825
  21.3649750  48.8106060  89.2943954  21.2417078  49.7582293  89.2391300
  20.5096340  48.4729004  89.5600605 103.0330076  33.1226325  92.4995613
 103.4281673  32.5721097  91.8235397 103.7770691  33.4640908  92.9955578
  61.7620290  55.9569191   9.6893805  61.9745673  56.7733111  10.1416606
  61.7891158  55.2893159  10.3747958  22.2623301  34.6112680  90.0118542
  22.6367092  34.2195082  89.2228127  22.3167944  33.9198399  90.6715488
  12.4995220  38.3704615  84.2286205  12.1218312  37.6614523  83.7081528
  11.7438400  38.8732338  84.5325851  44.2335339  84.9471168   2.9393691
  44.2128499  85.8411555   3.2806891  44.2396403  85.0539665   1.9881743
 113.9745451 106.6284894  83.5732937 113.5852672 106.6949844  82.7013588
 114.8989464 106.4418974  83.4092999 111.1643656  42.3937178  68.2607412
 111.1024161  42.9306030  69.0507698 111.6831752  42.9207754  67.6530552
  15.8025908  19.1528964  53.7702370  16.5034783  19.7084308  54.1113710
  15.0128889  19.4654214  54.2117453  40.8628702  26.1055827  62.2251368
  41.7994738  26.2966228  62.2752571  40.7653570  25.2658224  62.6740551
  37.3499012  14.1974270  53.8528728  37.5590134  14.8931468  53.2295942
  37.0265698  13.4785604  53.3098078 116.0979381  40.0340033  55.9121180
 115.7192407  39.4896054  56.6023684 115.6029517  39.8028684  55.1261139
  34.4969153  33.0567312  82.3540401  33.6586356  33.3494139  82.7116108
  34.3343306  32.9532313  81.4164448  65.0605262  91.7601852  13.5606116
  64.7936834  92.5238876  14.0722579  64.4469894  91.7376142  12.8262443
   2.5800321   0.1863351  84.7138882   2.2576426  -0.1886624  83.8943291
   2.2257259   1.0754629  84.7261620  73.3895768  68.2388596  22.0570773
  73.9944948  67.7146487  22.5819701  73.5262192  67.9352848  21.1596412
  22.5717711   4.4871137  52.6337528  22.8745484   4.5999962  53.5347605
  22.0379066   3.6929959  52.6582003  24.7732902  21.9291210  63.2814503
  24.1484094  21.3600016  63.7307358  24.3970251  22.8058910  63.3584690
 100.6980468 109.9389283  70.3895521 101.4504720 109.3672767  70.2369022
 100.0487138 109.6574009  69.7450829  82.8229918  21.1358786  76.2530804
  82.2956242  21.4756727  76.9760323  83.6750235  21.5591359  76.3585567
  42.2186995  51.1695194  90.7951641  42.3302126  51.9980097  91.2614250
  43.1056118  50.8185434  90.7149792  35.6139588  44.8943090  93.4353447
  35.5607677  44.1739941  92.8072166  35.5295992  45.6843328  92.9015160
  27.3028064  37.6116443  77.4138021  27.5947285  38.3471775  76.8752861
  27.9581690  37.5485444  78.1086063  82.1778242  90.2372169  69.4249725
  83.0420066  90.6283128  69.2966604  82.2954569  89.3155765  69.1948175
  10.8504045  17.3403764  72.3352051  10.3857327  16.6286385  72.7753639
  11.2434292  17.8459001  73.0466890 109.7995265  24.0412712  78.0408859
 108.8576241  23.9673638  78.1944799 110.1633283  24.2791319  78.8937092
  28.1317520  20.9649944  69.8987246  28.8600349  21.0820031  69.2886877
  28.5416007  20.6453729  70.7025290  85.2455957  89.0956330  78.3177519
  84.9541564  89.2862176  79.2093658  85.9399272  88.4457778  78.4264851
  32.1180940   0.9909169  91.1499310  33.0617380   1.1144869  91.0474682
  31.7702508   1.8767837  91.2522888  12.3702419  40.2743101  88.0123425
  11.7352951  40.1101065  87.3151302  13.2109034  40.3419971  87.5596428
  95.0145591  70.4705613  13.1838626  94.3466200  69.9762206  12.7087707
  95.5618061  69.8007946  13.5939425  93.4487880  68.3165770   5.0404662
  93.9683307  67.5621324   4.7627562  92.7280678  68.3555632   4.4117564
  22.1440649  27.0002651  84.3861771  21.3540649  27.2881675  84.8436165
  22.1212745  27.4679112  83.5513020  38.9740014  31.3253427  61.2041378
  39.0097570  31.8932104  61.9738674  38.0831575  31.4304733  60.8701134
  66.0040296  42.1350830   8.7284965  65.3964986  42.4968605   9.3736762
  65.5350960  41.3923984   8.3480281  53.6964751  65.5128996   2.3587626
  53.0512191  64.8776655   2.6691646  53.3578767  66.3597434   2.6493377
 109.8508335 106.9605517  63.6971045 109.8423744 107.1763762  62.7645922
 108.9454342 107.0875569  63.9805698  29.0936303  20.7489324  72.6549053
  29.9147964  20.4503441  73.0457544  28.6973357  21.3049722  73.3257294
  93.9230121  55.9506868   0.8347148  92.9896797  56.0389904   1.0279197
  93.9633049  55.2871523   0.1459998 115.9597655  41.2156248  91.3861084
 115.3111911  40.9823847  92.0503235 116.4499521  40.4073286  91.2357521
  76.3219894  72.4365180  23.9597911  77.0217980  73.0662518  23.7867660
  75.6703199  72.9327314  24.4551009  88.7756481  14.6251786  50.8690262
  88.5367741  14.2076302  50.0414848  89.1614618  15.4626656  50.6121302
  84.5455707  64.4408499   7.6467151  84.9942173  64.0116887   8.3752555
  83.7239135  63.9586602   7.5539798  41.1642933  40.9140968  90.3256702
  40.6589460  40.2483988  89.8590755  41.6866684  41.3388395  89.6452713
  47.6654148   9.5069170  92.2694683  48.2014990   8.9433551  91.7115688
  47.1108007   8.9004016  92.7601528 109.2740061  14.3148828  73.8933134
 110.2205910  14.4151008  73.9941359 109.1668691  13.4611654  73.4738827
  66.7385734  68.7557547   3.4183139  66.4115299  69.3670599   2.7583236
  66.4160837  67.9007010   3.1334990  82.0268407  21.2129974  73.5046196
  82.6083579  21.4949179  74.2107296  81.5925326  22.0160389  73.2169914
  93.0633045 108.0067370  67.4485779  93.2542861 108.4641741  66.6297340
  93.7215746 107.3133528  67.4947405  23.0487847  26.5702152  78.5366154
  23.4349871  25.8934736  79.0925837  23.5791039  26.5570641  77.7398586
  76.5641416  95.4598241   2.2199172  76.8708051  94.7674708   1.6343898
  75.9638704  95.9782510   1.6840667  79.5289401   6.8642097   5.3019065
  79.8691755   6.0091549   5.5652541  78.5921771   6.7187792   5.1694030
  52.8956556  23.3789158  51.9828844  53.5300016  22.6632977  51.9412756
  53.2125711  23.9390016  52.6914787  96.1346295  17.6831918  11.7945689
  95.4516604  17.3282581  11.2255305  96.8268981  17.0223241  11.7788047
  21.6934609  28.8569808  91.2536621  20.8161950  28.4765339  91.2101460
  22.2835779  28.1057358  91.1934376  27.9730248   3.6695477  74.2830515
  28.7259889   3.2040679  73.9189005  27.6182294   4.1654125  73.5451698
   7.1596557   4.8963243  89.7715092   6.5245438   5.5049402  90.1489353
   7.9523444   5.4198033  89.6538353   1.7525741   9.8796022  92.5209904
   1.5942298  10.7720113  92.2131538   2.4157728   9.5342338  91.9233894
  12.0618188  20.2826285  87.5997353  11.3662183  20.5209041  88.2125854
  12.2694898  19.3733358  87.8148842   3.1562556  72.0810990   4.3112964
   3.5713495  72.9435556   4.3212337   2.3180021  72.2237866   3.8717479
   1.7534888   4.6312913  73.1283998   1.5099452   3.7056169  73.1216574
   2.0801844   4.7865552  74.0146255  39.5692348  31.9377589  71.2828732
  40.4340887  31.9235158  70.8729219  38.9565849  31.8498445  70.5526924
  52.3929214  25.5179024  90.9358692  51.7806721  25.7929206  90.2534199
  51.9664383  25.7684231  91.7553711  85.7567848  99.5110660  18.0504149
  85.5310072  99.2904811  18.9540786  85.9322227 100.4518418  18.0701941
 109.3772711  92.0363455   9.6569556 108.8962520  92.6851277   9.1432113
 110.2533354  92.4095468   9.7542495  87.1485152  41.2228060  93.8425636
  86.7361130  41.3596439  92.9896641  87.5015034  42.0807362  94.0783310
   9.1814548  72.4246883  55.5700493   8.8156563  71.9991398  54.7945929
   8.5317814  73.0856276  55.8094549  37.1061349   1.3987607  85.1841450
  36.2858105   0.9379362  85.0082588  36.8375874   2.2915882  85.4008770
   9.9725002  28.3528161  92.0863533   9.0255380  28.2609129  92.1914577
  10.3317165  28.1275296  92.9445171  29.1401505  15.1655149  82.2410583
  29.7600174  14.5269299  81.8886280  29.2326856  15.9289193  81.6710758
  31.8953932  63.4760349   0.9677524  32.7441568  63.3318608   0.5493659
  31.2845398  63.5850947   0.2389163  33.7659860  36.5726471  82.6501274
  34.3723941  36.4989424  81.9131947  33.8795280  35.7559824  83.1363392
  63.4136666  89.7925000  15.2039069  62.9427303  89.4742184  14.4337481
  63.9292396  90.5314856  14.8809260  48.4945488  28.2790351  76.3533068
  47.8573179  27.6309204  76.0531187  48.3958006  28.2889009  77.3053503
  55.1278211 108.4204392  16.1269397  55.2847613 107.5228934  16.4202041
  55.6664981 108.5133128  15.3411693  46.4958407  83.9105086   5.8427733
  45.8377076  83.5561542   5.2448386  46.3531549  84.8567967   5.8224505
  43.3072138   3.7130338  84.2541695  43.6472940   2.8554124  83.9990997
  42.3775959   3.5611099  84.4243622 106.3378598  31.0727143  55.0761890
 106.9494804  30.8073568  54.3893576 106.5007939  32.0086241  55.1934862
  46.6228391 104.4784080  85.7967281  47.2148777 103.7417620  85.9486294
  45.7469488 104.0949839  85.8418465  45.7926512  23.2932711  87.6138878
  46.3462830  24.0620995  87.4774075  46.3409805  22.5537205  87.3519039
  31.5356231  20.5248237  53.9076614  32.4714661  20.5375361  53.7069941
  31.4932632  20.3070712  54.8388004  22.9243303  66.8821411  23.8989181
  22.7469207  67.7931874  24.1329116  22.5415922  66.3725381  24.6130961
  90.5807413 103.9305692   9.0445441  89.8569359 104.5539241   9.1058940
  90.1632608 103.1007676   8.8135165  16.4390194   5.6191182  88.0200768
  16.5451348   4.8609346  87.4455070  15.5743158   5.9663802  87.8011513
  87.5008292 107.3542147  66.7431307  87.7868594 107.5905933  67.6254797
  86.9854451 108.1053377  66.4491463  27.4700952  36.4291668  83.6327648
  27.3181748  37.0877218  84.3105984  28.3110142  36.6731071  83.2460117
  46.8874979  36.3586473  55.8459568  46.3773680  35.6481528  56.2347937
  46.2480593  37.0526218  55.6854963  53.3423496 108.0493264   9.3694133
  53.9838268 108.6976628   9.0788955  52.4951793 108.4306054   9.1388434
  40.5199432  29.4827032  88.5528755  40.2790213  28.6816597  89.0181923
  39.8386884  30.1117611  88.7903786  77.6161613 105.8009517  87.1598434
  77.5000518 106.3365858  87.9446030  78.5611959 105.8006658  87.0077229
 115.0710305  19.5785666  89.8971558 114.6726364  20.3813601  90.2333641
 115.8727743  19.4761097  90.4099369  77.4589099  88.2350950  26.1601562
  77.0329226  87.5763183  26.7085856  77.3374189  87.9169373  25.2655906
 115.9914567  31.5909314  81.9260406 115.3437187  31.9175720  81.3015652
 115.8762909  32.1414423  82.7005768   8.2553566   3.7546182  44.0135527
   9.0305632   3.4718227  43.5284615   8.3981287   3.4309825  44.9029922
  67.6322855  66.7943935   5.4251594  67.9076756  67.2528355   4.6312922
  66.9698299  67.3655407   5.8139724  41.4885616   7.9567254  73.4642839
  42.1405935   7.5816101  74.0562105  41.4632893   7.3527902  72.7220869
  49.3217338  84.9125271   6.6201133  48.5456063  85.1748853   6.1251086
  49.8179532  84.3626504   6.0137862  98.5858192  14.2621398  94.0046406
  99.2505171  14.5095611  93.3618355  97.8038373  14.7460103  93.7389278
  92.4826623  94.5372628  78.1647396  91.9532598  94.1820132  77.4507618
  92.7214588  93.7728988  78.6890984  74.8213257  78.6053638   1.4249534
  75.0051106  78.4729772   2.3549670  75.5920733  78.2573085   0.9765834
  31.9577503  42.3112154  77.4032116  31.1533213  42.4293756  76.8980742
  32.3666596  43.1766653  77.4083281  93.2346835  34.5037842  75.2730131
  92.3448028  34.6443391  74.9496078  93.4716072  35.3321624  75.6900120
  17.8487206   7.7315921  78.0234146  17.1030593   7.3382455  77.5700951
  17.5677025   8.6263227  78.2150364  42.5527410  57.4691420  10.0325507
  42.4816785  56.7500238   9.4048137  42.8179203  58.2224115   9.5048255
  45.3000696 101.6632848   3.6017913  45.3820832 101.4585738   4.5332450
  45.3884889 100.8176951   3.1620330  31.2806010  29.3455529  82.4901295
  30.9762621  28.6500001  83.0730724  31.4257097  30.0953197  83.0672169
  32.5717045  48.0711954  28.9655799  33.2890392  48.4463190  29.4764060
  32.8855033  48.0911105  28.0614966  97.8534569  40.2168369  69.3873787
  98.7309005  39.8578167  69.2553711  97.3787572  39.5255470  69.8489094
  35.1795793  33.5010576  66.7971134  34.5416641  34.0833664  67.2096777
  34.9378657  32.6265121  67.1020365  26.4166309  62.2989314   8.8372821
  26.4131273  61.5551637   9.4397944  25.8346034  62.9402094   9.2450065
  64.9202288 100.0456386   8.0926436  65.1480974  99.8454289   7.1847743
  65.6805934  99.7598844   8.5990256  29.9017281  78.5042219  13.1952876
  29.0440137  78.2041912  12.8943938  30.5190517  78.1395726  12.5611228
  85.1571573  82.7088814  14.9717158  85.0172723  83.6510663  14.8771113
  84.2761863  82.3345594  14.9697894  21.1358738  64.7906542  72.8069973
  20.7056713  64.0678644  72.3501253  20.5031991  65.5079842  72.7696991
  15.0305258 107.8446721  78.6378050  14.1458260 108.0155825  78.9608002
  15.1019942 108.3741572  77.8435946 107.7620782   6.8080461  74.4686413
 108.2662608   7.2174054  75.1718187 107.6039102   7.5158513  73.8439608
 115.0927827  35.5531430  79.8615170 114.8051400  34.7804523  79.3752623
 115.5334321  35.1995611  80.6342030  61.7925371  96.4383273  13.3346290
  61.1809910  96.1619382  14.0171641  61.2356008  96.6502290  12.5855273
  31.1397552  16.6231954  77.5271988  30.9024763  16.5425611  76.6033840
  30.4852915  17.2192144  77.8914356  56.3093567  40.3017902  88.9209747
  55.5613041  40.0862360  89.4779110  56.2403631  41.2463617  88.7822342
  27.3682570  22.1175241  89.4923782  26.6447639  22.6364851  89.8437595
  27.3899293  21.3339853  90.0417709  98.0656887 102.1186011  69.3120527
  98.9179707 102.0982765  69.7472906  98.2720686 102.0673084  68.3787775
  38.1285810  35.9338498  47.2736311  38.0468845  35.9827089  46.3211775
  38.8497996  35.3220248  47.4210882  56.8389953  57.5437974  19.2287845
  57.2034396  57.8671710  18.4048671  56.3533271  58.2880731  19.5843238
  39.1673040  43.8008833  59.9188662  38.6103606  44.1647100  60.6071091
  38.6001229  43.7589598  59.1489410 107.1032592  75.7238197  67.9041958
 107.8799888  75.7385111  68.4633970 106.8218621  74.8089314  67.9091072
  44.8643686  52.5872894  19.6421355  44.8988057  53.3066727  19.0116328
  45.0350846  51.8031489  19.1203898  55.5748166 104.9781756   5.0147456
  55.2210666 104.1078286   4.8314685  56.3533403 105.0416665   4.4614810
 112.3972981  31.4926028  78.3979511 112.5611179  31.1649585  77.5136185
 111.7015912  32.1408081  78.2881594  71.8876589  87.8385525  32.4866694
  70.9338297  87.8959660  32.4306029  72.1928157  88.0546145  31.6055125
 106.0817363  24.6669722  91.1464882 105.4449882  24.2853689  90.5422020
 106.9327881  24.4130874  90.7894325  44.9837525 104.4485764   3.3449477
  45.4566271 104.8679595   4.0637988  45.2207805 103.5234599   3.4098262
  35.0403882  87.9761558   0.3205890  35.3483538  88.7609558   0.7738894
  34.3615053  88.2941894  -0.2745610  45.2647610 106.7969279   2.0067805
  45.5990983 107.3423200   2.7188224  45.1290996 105.9378390   2.4065322
  83.8207831  10.4111779  82.3766708  83.3222475  11.2283039  82.3771667
  83.7408127  10.0823605  81.4812851 111.7027341  12.3384428  80.9042835
 112.3632940  12.8787386  81.3378429 111.7262723  12.6193714  79.9895430
   1.0084257  19.8398137  82.8729343   0.3356210  20.5199027  82.9052544
   1.7205891  20.1815534  83.4135532  94.5152988  28.0913568  75.2883244
  95.1040997  27.4971533  75.7535887  94.0630140  27.5335073  74.6554947
  27.5435328  18.4345126  68.1851149  26.7135859  17.9629028  68.1143856
  27.5309968  18.8107109  69.0651989  17.9334675 105.8808049  70.2020311
  18.8291107 106.1909931  70.3355932  17.8850924 105.0660514  70.7020998
  24.1802430  33.8481116  87.8794384  24.0041256  34.7888970  87.8911877
  25.1350403  33.7829280  87.8980255  61.5903629  74.8746638  12.2826976
  62.2798265  75.4922347  12.5265807  61.3540686  74.4430141  13.1037253
  41.5231419   9.1152543  68.2770348  41.0838413   9.8299754  67.8161430
  42.4497175   9.3550193  68.2631016  32.2044253  64.2935467  82.6522732
  31.2731028  64.0957499  82.5535488  32.6056457  63.9650726  81.8476868
   6.0385400  23.1183362  87.5607204   6.0459542  22.1822643  87.7605915
   6.7200834  23.2270312  86.8974590  50.4784454  92.5797753   1.7800540
  50.2798225  93.3875399   1.3064498  49.6222724  92.2303920   2.0273036
  51.4242649  35.2081704  64.1919470  52.0683622  34.8318124  63.5921764
  51.8537283  35.1893640  65.0471926  89.3846812  66.8285418  75.6425524
  90.0246896  66.6424036  74.9555492  88.9799180  65.9813452  75.8287287
  81.5473283  62.8138434  23.2752818  82.4944271  62.6779615  23.2474441
  81.1767639  61.9733899  23.0059260  69.2809905  56.6362588  22.6172656
  68.4775985  56.4123342  23.0869979  69.1591634  56.2645352  21.7436427
  55.6425524  22.2776532  83.6494064  56.2054968  22.9388952  83.2468033
  56.1840487  21.4889574  83.6806297  26.6925430  29.4739676  65.0011158
  26.9521761  30.2435756  64.4946289  26.0280704  29.7997713  65.6082058
  39.0465641  25.9726620  86.9078827  39.3531322  25.9577060  87.8145409
  38.3619690  26.6415834  86.8975353  30.0322199  33.7480474  78.0793285
  29.2697883  33.2374740  78.3518076  30.0140953  34.5234776  78.6402321
  80.2717125   6.6117340  12.6616687  79.8989112   7.3351722  12.1578044
  80.5833771   5.9944492  11.9998092  68.6888708  82.1638327   2.4779147
  68.0946172  81.9777303   1.7509669  69.4529260  82.5668220   2.0655459
  17.3282993   4.5353353  51.1771584  16.8133700   4.8838985  51.9048834
  18.2372081   4.6175352  51.4658785  14.1934562  34.0287471  87.5282860
  14.5058715  34.3341279  88.3799744  13.4938443  34.6396041  87.2967052
  70.4781808  46.1195044   9.6994800  71.2066687  45.5119489   9.5713538
  69.7101535  45.5560617   9.7938079  23.7518430  58.8310051  92.3754025
  23.0105853  59.4166708  92.5295639  23.5427809  58.3919716  91.5509224
  79.8273672  63.7748973  31.9215411  80.6187595  64.2609929  32.1531505
  79.4006075  64.3149750  31.2563819  21.0692096  63.5543251  33.4463739
  20.2912521  63.5049963  32.8908730  21.3805032  64.4536018  33.3432746
   0.9686853  34.1774011  36.1361790   1.8441704  34.2279029  36.5198565
   0.5925983  33.3768797  36.5021825  37.9123259  37.2591996  88.8156605
  38.1080365  36.9190264  87.9426098  37.8329611  36.4789796  89.3644714
 110.3292849  15.7795530   1.6491336 109.6949341  15.4679828   2.2946948
 111.1708691  15.4457670   1.9598693  91.1897625  73.4615295   4.8575706
  90.2609934  73.6733668   4.7640819  91.2017263  72.5314729   5.0835914
 111.9513395  22.0410305  45.8220214 111.9683697  22.5664240  46.6219539
 111.0494306  21.7262035  45.7613963  77.6270188  49.2263221   0.6640262
  76.9063915  48.9413344   0.1021499  77.2090210  49.4463335   1.4965552
  25.4943728  21.4894843  85.9062386  24.9153113  22.2498822  85.8541393
  26.1458373  21.7292452  86.5652847  23.9251351  39.0195274  78.0870008
  23.7300515  38.1092787  77.8642416  24.2915559  38.9767051  78.9702559
  33.3292396  76.3000779  17.9509276  33.1192614  77.2282343  17.8476447
  33.4625794  75.9838085  17.0573825  37.2373343  18.5434413  85.2405643
  37.6230574  19.4159591  85.3190517  37.9812169  17.9677963  85.0630665
 109.2350651  91.2834405  87.0934868 109.6414805  90.5027282  86.7172623
 108.3191300  91.0376620  87.2234344  35.1543606  71.1746256   4.9099654
  34.6920903  72.0110350   4.8555964  35.1078508  70.9349852   5.8355159
  17.3605013  42.8409147  39.5565534  17.6169634  42.1207666  40.1326132
  17.9199088  43.5708570  39.8220396   3.3872873  33.3150911  75.0266552
   3.6625433  34.0663910  75.5520248   3.8412353  32.5692749  75.4189873
  63.1075920  85.0831799   3.6170501  63.4897603  84.2108326   3.5211963
  62.7805747  85.2986913   2.7436370  38.5242033  33.8058400  72.9758167
  39.1275287  33.1448841  72.6361656  37.6646924  33.5331511  72.6547003
  16.8136549  34.4701099  86.4596272  17.4712133  34.1435814  87.0738125
  15.9796715  34.1655064  86.8172836  54.4408311  74.9425392   7.7803439
  54.2522181  75.2158813   8.6780852  54.8755516  75.6987100   7.3860663
  91.3235916  61.6522257  16.4997024  91.8818201  62.1534913  17.0941371
  91.4701952  60.7390552  16.7463988  80.6608881  91.1703687  11.8720836
  80.9149326  91.9962959  12.2838325  79.7738565  91.3270574  11.5482730
  40.8107264  83.8391094   8.3271235  41.6405387  84.0001016   8.7762565
  41.0614049  83.4207587   7.5034827  23.1923676  31.7345309  61.1142540
  22.2475433  31.8390250  61.0019159  23.4457350  31.1053395  60.4388618
  14.9756969 108.7610583   3.4793109  14.3406714 108.3563046   2.8884238
  14.8996223 108.2607274   4.2917842  84.2630447  92.8257256  19.0008468
  84.4693292  91.9362955  19.2882365  83.3467830  92.7825909  18.7272853
  27.9746366  24.7158909  76.1032963  27.8608680  25.6538868  75.9501457
  27.3071599  24.4966626  76.7534065  61.6150904   8.5663933  93.4249783
  61.3204002   8.7978518  92.5441742  61.0155249   9.0318406  94.0081692
  29.4468856  44.0656233  94.1885376  30.3336835  44.4258070  94.1980171
  28.9321542  44.6827364  94.7085953  26.4460732 102.1006827  51.5648765
  26.0144557 101.2483840  51.5054721  27.0200027 102.1323733  50.7994861
  38.4993815  57.9036379  93.3877468  39.0672517  57.8005219  94.1513729
  38.0134869  58.7106133  93.5578251  55.1651287  38.5353684  67.7937746
  54.2435598  38.6631942  67.5688362  55.3788042  39.2774940  68.3593035
  58.2041444  74.0952246   4.2760772  58.7685288  73.8074284   4.9936313
  57.3396183  73.7493126   4.4978255  30.7990415  83.7612586   8.9230269
  30.1964761  83.4576707   9.6019763  31.6217292  83.9192371   9.3861217
  23.0246878  67.7583265  86.4372826  23.1039929  68.6173487  86.8520451
  22.3003316  67.8566790  85.8193302  29.5429635   3.8665915  85.5104065
  29.7135568   4.7635812  85.2231121  28.7784290   3.5939178  85.0030899
  66.7367662  70.2837758   5.9304160  66.7966999  70.0524204   5.0035399
  66.4645899  71.2014632   5.9311122  10.3228462  64.4279242  69.7069120
   9.4044685  64.3497515  69.4486427  10.8135283  64.1428995  68.9360523
 103.4682538  43.5403538  65.6157446 102.7176287  44.0569067  65.9089470
 104.1863026  43.8167381  66.1851740  79.0282024  77.1276312   3.9720172
  78.6302389  77.9956441   3.9056128  79.9560131  77.2748404   3.7883491
  26.7931008  30.7812381  57.3089170  27.1542859  31.6076422  56.9882441
  25.9647679  30.6836104  56.8392754  12.9710603  22.1007586  80.7351494
  12.1508038  22.4294472  80.3672218  13.6141467  22.2271824  80.0375175
  36.8876338  19.8460948  65.0934362  36.0173249  19.5787334  65.3889227
  37.0068955  20.7217646  65.4611444  52.8556681  43.2658482  80.0435162
  52.1102190  43.8662910  80.0426483  52.9137945  42.9575014  80.9478188
  27.0274878   2.2864869  62.8982973  26.1880636   1.8310609  62.8336143
  27.6529145   1.6969655  62.4769449  40.2971315  45.4134703  37.0560932
  41.0416174  45.2736330  37.6412582  39.9495482  44.5359421  36.8968177
  23.3294678  21.7090416  51.6202688  23.7082601  22.0484662  50.8093834
  23.2881427  20.7620263  51.4872885  26.8290926  77.7431946   5.7105941
  26.3370539  77.1908622   6.3180942  26.3287247  78.5581331   5.6688708
  57.7045799  79.3239741  31.9238109  58.3122088  78.6062770  32.1025008
  57.3490108  79.5559673  32.7817077  19.6497953  38.5911393  43.9484739
  19.3032718  38.7342405  44.8292017  20.2842355  37.8820634  44.0529966
  81.6527013 109.1001646  64.4219160  80.9765539 109.0326077  65.0960779
  82.2705508 108.3997064  64.6313238 112.1186211  12.6313883  12.3499602
 112.2165277  13.5608011  12.1430034 112.1149042  12.5981289  13.3065814
  12.7174914  23.8125658  85.3656864  12.0138705  23.1740570  85.4816914
  13.5216594  23.3065677  85.4819298  86.6004051  83.9157801  10.2592677
  86.7795385  84.5187144   9.5377273  87.2377313  83.2106428  10.1459998
  36.4748573  32.9164529  89.9907017  35.6223488  32.8693032  90.4234123
  36.4732862  33.7663651  89.5503902  30.2563930   2.5343397  80.2509403
  29.7368288   1.9805419  80.8336830  31.0061455   2.8034139  80.7816982
  79.3318714  86.3851981  35.4464549  79.0088714  85.7382922  34.8192328
  79.3038858  87.2151451  34.9703998 110.8900846  60.8278220   5.7500762
 110.1997865  60.9339075   5.0955028 111.6890253  60.7038312   5.2376765
  20.9984946  37.4098682  67.5610638  21.9076824  37.2907615  67.8356934
  20.5693746  37.8067994  68.3190441  22.2922564  37.8602242  63.0782986
  21.7541790  37.4383783  62.4084091  23.1260872  37.3912668  63.0460835
   7.5953806  18.4325462  42.6043719   7.1605098  18.6745172  43.4220332
   7.0596111  17.7234560  42.2488803  28.8219881  35.5503845  86.3367176
  29.5593786  35.0078344  86.0572052  29.2203951  36.3817716  86.5942097
   0.9314668   5.7300096   9.2575854   0.6286609   4.8380714   9.4278354
   1.0798133   5.7562547   8.3123130  96.0512914  79.7294188  93.7039757
  96.0020508  80.5001259  93.1384563  95.7911791  79.0012932  93.1396961
  55.3700126  59.7205247  16.5782660  55.6397201  59.1819011  15.8343715
  56.1650468  60.1863496  16.8374175  44.4494009   4.5395634  77.1053934
  43.6971426   4.3263617  76.5532255  44.8873901   3.7004608  77.2478819
   9.0891350  19.7481208   1.3494987   8.6253870  20.1825052   2.0653743
   8.6238802  18.9201408   1.2302608  90.1283849 106.8299870   6.1444777
  89.9404205 106.6410546   7.0638293  89.4456733 107.4476199   5.8824462
  77.6140655  80.9885149   9.2181891  77.2538294  80.8808141  10.0984496
  78.5116328  81.2885027   9.3617648  32.7532959  62.1625423  67.4914551
  32.4407244  62.9978037  67.1438026  31.9968700  61.7953968  67.9489040
  34.8285270  27.3122573  82.9434395  35.2929115  26.4777732  82.8785515
  34.1176748  27.1433234  83.5618114  58.1535435  33.5921884  56.0914898
  57.9849386  33.9840603  56.9483709  57.6094961  32.8047633  56.0769987
  47.7958012  21.8656158  76.3806200  48.1133461  22.7655220  76.4552259
  48.4180164  21.4402127  75.7906151  36.7966557  43.2181597  72.9888153
  36.4830303  43.8545942  72.3463011  37.3684311  42.6353216  72.4892092
  56.8205918 105.7969241  22.1157092  56.3818170 105.5752759  22.9370421
  56.3506306 106.5658479  21.7930240   0.3822162  17.3586726  79.6102476
  -0.2632803  17.9930115  79.9219847   1.2264284  17.7313972  79.8644400
  41.4244127  52.1408415  87.7760696  40.9664583  52.9688740  87.9205418
  41.7944813  51.9195318  88.6306381  21.3760412  10.7136636   8.6166877
  21.1569631  10.9266143   9.5238227  20.5427349  10.7711559   8.1492156
  34.2010260  43.8700485  79.3754387  34.4574332  43.8651323  80.2976418
  34.6223211  43.0942011  79.0055656  56.3224220  31.5192246  83.3311939
  56.9889116  32.1827650  83.1530476  56.4168596  31.3294601  84.2646313
   5.0117481   3.3967786  10.3311080   5.6956375   2.7422052  10.4727572
   5.4890430   4.2076402  10.1552505  19.7521961   5.3876024  25.9446925
  20.6027448   5.2088981  25.5436152  19.8443020   5.0828987  26.8474120
  98.1285347 107.2122865   4.0853423  98.6914457 107.0518498   3.3279628
  97.4927200 107.8587012   3.7785548  38.2537651  21.0458326  56.1851215
  38.6809397  20.6703329  56.9550276  37.8948307  20.2911258  55.7184124
  37.2498393  49.6081018  68.2371807  37.1134973  50.5294514  68.0163670
  36.7018414  49.4630289  69.0084648  54.9839783  71.9348812  95.1052284
  55.0927067  72.5781488  94.4047832  54.9359083  71.0931349  94.6520329
  24.1385460  50.9275675  89.3220234  24.3538117  51.7441559  89.7726727
  23.1852722  50.9449339  89.2371750  58.1812192 102.8466277   2.4900741
  58.9801658 103.1150584   2.9437942  57.5165392 102.8084331   3.1778068
  71.7425741  61.9924693  11.0184688  72.4868859  61.6941302  11.5411777
  70.9750832  61.7677813  11.5444964  41.8299866  43.3466005  88.5833645
  42.6688623  43.2588911  88.1307888  41.7793465  44.2736101  88.8164234
  89.0410627  84.7428708  13.3898658  88.5194792  83.9626293  13.5780257
  89.9373115  84.4913321  13.6127967  25.2799368  24.1325426  84.0606976
  26.1785722  23.9099336  83.8175297  24.7581434  23.8924861  83.2949734
  72.5448717  91.8942337  21.1904067  73.4350337  91.5753441  21.3392562
  72.0955242  91.7473392  22.0227164  38.9224744  57.2464418  65.7172489
  38.6180878  57.9600143  65.1565361  39.2692113  56.5944767  65.1081944
  73.8598098  88.0789833  25.2864093  74.6947182  87.6445036  25.1120967
  74.0703286  88.7511497  25.9345645  94.5043196  28.8008213  57.5575972
  95.4006567  28.7973642  57.2217417  94.5286264  29.4059467  58.2988548
 109.2421629   1.4038807   5.8452434 108.5723665   0.7818275   6.1292380
 110.0099685   1.1871629   6.3741511  94.4729246 106.8857865   8.3123607
  94.4818796 107.1736531   9.2252082  93.6417450 106.4209418   8.2159537
   9.8055011  22.4015880  80.0313091   8.9460218  22.8214169  80.0669670
   9.6341109  21.4859366  80.2513981  38.7805104  38.3735347  72.6479244
  39.4897652  38.7206173  72.1068811  39.2080903  37.7435756  73.2280588
 110.4858943  33.2059050  77.6596928 110.0319453  32.6927328  76.9912481
 109.9311771  33.9752293  77.7887678  46.9811983 102.8833680  23.4617251
  46.0379041 102.8549151  23.3016700  47.3325599 102.1524434  22.9532737
  54.4154121  68.6336248   8.2433146  54.2503298  69.5714645   8.1461638
  55.0243891  68.5725956   8.9792842  51.9188976  49.4344425  90.8776569
  51.0335398  49.4076014  91.2404919  52.4922943  49.3342590  91.6375351
  10.8942616  46.6731548  46.3048458  10.6216252  46.3085747  47.1468544
  11.3941646  45.9701252  45.8900261  11.5303731  39.4810319  68.4370041
  11.4377606  40.0210428  67.6521206  12.1002829  39.9909544  69.0126896
  45.8286715  20.6675339  86.6986275  45.2217007  21.3542628  86.4225483
  45.2645874  19.9655342  87.0230293  63.4796585  88.0320387   8.6810988
  63.9394296  88.8568478   8.5244769  63.4320916  87.9616361   9.6345157
  30.3835154  44.4571352  39.3843222  29.6170545  44.7286320  39.8893547
  31.0675049  44.3232155  40.0404167  89.5472683  83.3860426  24.9018878
  89.9733318  83.9167123  24.2287654  90.1460279  83.4196095  25.6479377
  92.6317085  86.5193253   3.2335681  91.6803802  86.6107874   3.1803054
  92.8975929  86.2638001   2.3502559  55.5358553  11.9127309  79.3383169
  56.0865450  11.2331545  79.7270966  54.8664236  12.0862317  80.0001240
  28.9648438  11.0747600  63.8490486  29.4662905  11.2848938  64.6368504
  29.6258426  10.8204055  63.2051468  17.6957667  30.3447270  81.4892769
  17.1135378  30.3120112  80.7302189  17.1095169  30.4692864  82.2356224
  42.0004320   6.9143623  88.6188221  42.7335262   6.7785853  89.2191219
  42.1112156   6.2396026  87.9489994  26.8160987  22.7080989  59.6643114
  27.2618651  22.8466320  58.8286495  26.3204813  21.8986750  59.5401001
  49.7532320  68.1154299  65.0143480  48.9991522  67.8223515  65.5259180
  50.1155996  68.8443470  65.5179358  13.6747396   3.6029732  53.6004734
  14.0793574   4.4283926  53.3336401  14.4051731   2.9875779  53.6636162
  41.8263006  66.2451220  71.7982292  42.7703238  66.0893059  71.8259144
  41.7118835  67.0978212  72.2178078   8.9934099  41.9803762  48.9702415
   9.2501611  41.8411064  49.8817873   8.1934923  42.5033283  49.0239429
   3.8111287  38.2403803  94.6645164   4.3405542  37.4437332  94.7004795
   3.9847839  38.6043763  93.7964249  67.0499695  99.5538907   5.9090823
  67.9010333  99.5481973   6.3471335  67.0855893  98.8107305   5.3068561
  72.5105370  46.9251631   3.2592601  72.7117861  46.7487251   2.3402328
  72.9114188  46.1983846   3.7360305  32.0181561  54.0925741  85.1171970
  31.6903925  53.9470100  84.2297268  32.5962687  53.3481598  85.2841187
  40.4981184  68.9942074  82.7901649  40.5365610  69.8323250  82.3293877
  40.2901316  68.3553696  82.1083546  43.7691116  31.9641495  82.0477009
  44.5427608  31.7862082  81.5128803  43.9652729  31.5620565  82.8939152
  30.4239464  71.4944267  90.1713276  29.9373126  70.7659626  89.7856331
  29.7489691  72.0676374  90.5347347  60.2465237  76.1284094  10.0257796
  60.1505388  76.0051470  10.9701461  59.6300305  76.8286662   9.8117560
   3.1076950  23.7368703  77.9824591   3.2909122  23.3278275  77.1366739
   3.9335656  24.1515517  78.2318735  42.0104847  73.9659064   0.3505725
  41.8728067  73.6950128   1.2582606  42.1713252  73.1488638  -0.1214486
  35.4071283  36.8778229  75.0774956  35.1042891  37.6590848  75.5402613
  36.3036394  36.7485595  75.3870010  37.2548747  60.1523972  71.0538960
  36.4829874  60.3953552  71.5651608  36.9003820  59.7385502  70.2669430
  29.1622972  75.4045200  93.1713772  30.0671196  75.6201172  92.9454422
  28.8604736  76.1507177  93.6893845  53.1794573 107.7068334  12.6621360
  52.6119949 108.1249766  12.0145530  52.6073052 107.5432115  13.4118766
  23.2745337  43.1466627  94.4770432  22.3364091  43.3218718  94.5509052
  23.6914873  43.8798857  94.9295425  11.7779291  31.4467626   6.7913646
  11.6784179  32.3093420   6.3885325  11.7908085  31.6218858   7.7323169
  42.6940250  30.8036113  87.6967907  41.8747807  30.3119922  87.7549362
  43.3122635  30.3026319  88.2287979  41.6746998  33.4985018  86.9892311
  41.2741423  33.2238436  86.1643982  42.0728731  32.7015018  87.3392010
  17.3421037  41.1945868  78.4873962  17.9759872  40.7598400  77.9169416
  17.5010180  40.8179426  79.3529129  66.7842902 106.3791327  31.1522883
  67.1321834 106.4269357  32.0427436  67.5474609 106.1884599  30.6068915
  19.1079402  53.1643534  73.9917231  18.3458853  53.1148767  74.5688343
  19.4441545  52.2686481  73.9616394  30.5623031  36.4122939  74.0757036
  30.0933123  35.5794120  74.0248203  31.2890959  36.2417030  74.6747923
 107.2279193   3.8211351   6.4555663 108.1036093   3.7126165   6.0845965
 106.6660120   3.9870744   5.6986255  42.2516966  49.8222303  53.9382029
  41.3265800  49.5765114  53.9416838  42.4886990  49.8760843  54.8640299
   7.7774799   6.9968229   6.7843074   6.9383466   6.8313318   6.3545341
   8.1447971   7.7444082   6.3126868  56.7834473  27.7889132  87.5327682
  55.9637594  27.3550510  87.2959042  57.1785307  27.2133708  88.1876659
  85.2305950 101.5631251  23.4494990  85.2565635 101.5688901  24.4063300
  84.4689192 101.0250144  23.2338160  16.8527532  33.9192152  80.7829475
  17.3815799  33.6714840  81.5413666  16.5790427  34.8181701  80.9651470
  18.4780346 102.0663440  69.3122625  18.0270516 101.4407753  68.7452459
  19.3475949 101.6879749  69.4424152  40.6217957  60.3872204  76.1095095
  39.8844695  60.9869289  75.9957933  40.9428406  60.2312374  75.2213478
   8.4482038  37.4930882  57.5342560   7.5740683  37.8808403  57.4922276
   8.8727307  37.9383540  58.2675648  54.5433594  71.6562216  19.4285315
  55.2302231  72.3228650  19.4346827  53.8825287  71.9987552  18.8266868
  99.5073559  37.8039747  20.2965564 100.0085881  37.8047758  19.4810885
 100.1320174  37.5140482  20.9613627  56.5499903 104.3668704  19.4655532
  56.7677368 103.4354787  19.5020312  56.7395331 104.6918015  20.3457374
 103.3354618  43.1428766  79.0936995 103.2032361  42.2343254  79.3644047
 103.2870235  43.6446953  79.9073744  44.2569399  30.5050373  68.4283352
  43.8206148  30.1233029  67.6666737  43.7653303  31.3061237  68.6094713
  53.9279842  33.5104108  65.1770258  53.6421204  32.6575232  65.5042839
  53.5640860  33.5620546  64.2932034  87.2631695   5.7475715  32.3928279
  87.6445659   6.6075807  32.2163314  86.5689042   5.9194427  33.0289763
  59.0219344  76.5880637   2.9905910  58.7460483  75.7308321   3.3150596
  59.7520031  76.8353515   3.5581130  73.3501376  87.0608215   1.1417788
  73.8045157  86.2197022   1.1896152  73.7896098  87.5304728   0.4328841
  41.8887520  66.7068958  94.0085316  41.0070610  66.3349533  93.9859772
  42.1193361  66.7203379  94.9374485  21.7474914  68.2354927  65.5538464
  22.1287870  67.4707508  65.9851456  21.0121107  67.8851223  65.0511694
  65.0343169  89.6893792   5.0891036  64.9839343  88.8785510   4.5828933
  65.9129251  89.6804576   5.4688472  46.1587198 100.9911780  20.2496070
  46.2971891 100.0868754  20.5311984  47.0217754 101.3989930  20.3207034
  46.4455986  31.0002208  81.6922188  47.0202971  30.3710127  82.1281624
  47.0358944  31.6832161  81.3739300  42.1401275  98.9141087  27.8653258
  42.4549780  98.3414273  27.1659392  41.4171774  99.4006448  27.4692744
   9.4471592  48.8511515  69.5287037   8.7223858  49.2866945  69.0801048
   9.8181617  49.5267439  70.0962925  74.9466909  89.8096256  27.0472735
  75.7116259  89.7026997  27.6126689  74.5438183  90.6266003  27.3413486
  49.8601795 100.6741242   2.6908797  50.3029717 101.1046510   3.4221953
  49.5740558 101.3930516   2.1274013  47.1406507  40.3584194  80.8034801
  46.3121271  39.9513030  81.0565281  47.8002119  39.9062800  81.3295746
 109.4396265  56.0093403  59.6761656 109.7170534  55.2534580  60.1937580
 108.4834417  55.9656477  59.6819305  42.8142500  49.4514084  84.0329838
  42.4566889  48.8929224  83.3427048  42.5996828  48.9942598  84.8461246
  64.9735355  28.3204603  94.4926453  64.4572544  27.9974556  95.2311325
  65.4624081  29.0624762  94.8485184  58.0261707  32.1652293  94.9143696
  57.3422384  31.7558050  94.3844223  58.8456583  31.8567061  94.5277405
  87.1967043  88.1630235   3.3205527  86.8618501  87.9980664   4.2019671
  86.4423622  88.0242329   2.7478904  82.7603353  78.7886696  10.0941104
  82.2486795  78.6959891   9.2904681  83.4669317  78.1493716  10.0032538
  27.8879738  22.1943069  87.0282650  27.7430725  21.9963574  87.9534912
  28.5319877  22.9024434  87.0328426  32.3252249  27.2298646  67.3948145
  31.9762707  28.1159925  67.4909258  32.2561646  27.0455503  66.4580679
  92.9840149  93.3987479  11.6590709  93.6138500  93.2551341  12.3654193
  92.1288599  93.3402257  12.0851249  39.7202611  66.7909765  58.5916901
  40.1015949  67.4917889  58.0628443  40.1086187  66.9069052  59.4588566
  35.1567936  43.8348961  81.9886971  34.9584818  44.0949059  82.8883076
  35.0284529  42.8863811  81.9797039 112.4185803  52.5998354  88.1781578
 113.2720464  52.2827911  88.4736347 112.2484120  52.1132135  87.3716354
  83.4358610  72.1729152   2.8049392  82.7587522  72.2804968   2.1369666
  83.5049070  71.2258689   2.9256362   9.3330377  35.5763340  84.3263817
   9.2518300  34.7691941  83.8182831   9.2381680  36.2764549  83.6805820
  59.4468689  34.6185732  65.8860350  58.7391567  34.6505260  65.2423334
  59.0253973  34.8395658  66.7165470  25.6905031  12.4579775  72.7801085
  26.5346479  12.8305268  72.5254393  25.7654762  12.3179746  73.7240410
  36.0125995  64.8466158  71.1345816  35.2118516  65.1358986  71.5720224
  36.5016222  64.3814039  71.8133068  63.6596907  52.1977757   5.3523177
  63.8308419  51.4083170   5.8658236  64.5286716  52.5318396   5.1298160
  15.6025410  64.8549461  82.1888065  16.0857058  65.5394077  82.6517296
  15.9273541  64.8989439  81.2894821  51.7451192 100.2564006  23.5917396
  51.4725090  99.3535428  23.7553138  52.3519124 100.4562573  24.3045444
  51.6677761  29.3772912  19.3459940  51.8720913  29.5051312  18.4196341
  50.9014320  28.8037491  19.3453050  39.4756873  98.2708316   2.2803325
  39.8595614  97.7563815   2.9904098  39.6367526  97.7503591   1.4933127
  20.9297276  39.7452855  55.7325888  21.5380478  39.4674516  55.0477648
  20.4331994  38.9554548  55.9467363  67.1584428  62.9437761  25.0398177
  67.2786750  62.8015499  25.9787292  67.7802981  62.3456262  24.6253985
  25.1390767  54.8190403  84.8160934  25.1015162  54.8193264  85.7725620
  24.4035006  54.2684889  84.5476818   7.5487942  45.0266123  92.6955032
   6.6849977  45.2161169  93.0618000   7.3734999  44.4399261  91.9597721
  11.0852110  23.8365555  90.9682274  11.5848303  23.0202413  90.9838486
  11.6739941  24.4699097  90.5578232  79.5802845  84.5865040   1.1767501
  80.0438083  85.2854590   0.7154006  79.5604624  84.8741059   2.0895022
  53.0387592  61.8762493  91.5176773  53.2207155  62.4294043  90.7579803
  53.8818645  61.7974138  91.9639874  57.6629437  93.8939362  12.7320594
  57.9289330  93.1870465  12.1440143  58.0046273  94.6882896  12.3215884
  29.4026089  58.9419174  67.2189856  28.7301803  58.2611656  67.2443628
  29.5699215  59.1477156  68.1387091  80.2088941  87.4196558   6.9272632
  79.8393787  88.0685716   7.5260943  79.7605289  87.5777178   6.0964698
  71.7052783  81.5828066  27.0372600  71.3004101  81.2541656  26.2345714
  71.8565167  82.5123410  26.8660182  94.3964685  73.3288913  17.7962035
  94.2610658  72.3931889  17.6466769  94.1139663  73.4703999  18.6997527
  12.4785650  13.9179474   4.2995948  12.0818889  13.7676721   5.1576728
  12.8667200  14.7904926   4.3646640  77.2541012  99.2768388   7.9694575
  76.4575542  99.5420365   8.4292621  77.5648774 100.0777392   7.5473041
  75.5481089  98.8744693  23.2754058  74.9174608  98.7935071  23.9909190
  76.2136425  99.4757943  23.6096305   8.7678844  40.7457495  73.1324863
   8.8395399  41.6760445  73.3461475   9.0041500  40.6938171  72.2063589
  32.4359369  39.6656132  78.2626295  32.2247910  40.5097628  77.8638124
  33.0965805  39.2856526  77.6834822  34.0090990  30.6935835  92.3880863
  34.8002243  30.4069281  92.8443527  33.6032844  29.8832059  92.0801258
  40.5651855  43.2080221  91.8644714  40.6379366  42.4008083  91.3552094
  40.2448034  42.9232168  92.7203178  39.9628353  13.8134432  82.9734039
  39.2582631  14.4283485  82.7692032  40.6870317  14.3672574  83.2650566
  34.1742945  38.5081005  88.8083076  33.7691331  37.9110861  88.1793022
  35.1125884  38.3342385  88.7334251  19.4972003  80.6033039  74.9398756
  19.9558055  80.2587414  75.7061577  19.1442430  79.8280191  74.5033121
  51.4564514  62.2188520  70.9474754  51.4293146  63.0299997  70.4399967
  51.0556173  61.5646982  70.3750801  43.8315773  52.0540142  72.9170084
  43.5163689  52.0456123  73.8207817  43.1118631  51.6798258  72.4088478
  49.2333794  61.4421225  86.4520931  50.0901651  61.1759090  86.7856789
  48.6193419  60.8242369  86.8488407  45.2264833  41.1300182  83.7383366
  45.1143885  40.2885151  83.2961369  44.3954992  41.5849924  83.6016273
  43.9204073  43.0730963  86.7473888  44.6154165  42.4173021  86.6914845
  44.3772411  43.9120388  86.6864300  29.7459221  17.8490305  87.2507763
  29.8574162  18.6881983  86.8040085  29.1629910  17.3490834  86.6793919
  50.6592417  18.2213819  77.9703665  51.2423992  17.5051856  77.7189255
  50.3272867  17.9687381  78.8318777  70.2208079  72.7598863  13.3016223
  69.6943797  73.5533314  13.3993453  69.6539773  72.0560150  13.6170596
  88.1431163  98.2282929   5.7231635  88.3231081  98.0157332   6.6389388
  87.8056349  97.4139314   5.3501338  64.2705120  78.3815341   7.2444839
  64.0337075  77.5108223   7.5638885  64.6366991  78.8257651   8.0092067
  35.6700046  56.1456023  10.0375766  35.9181879  56.0577665  10.9578628
  35.3664966  57.0497917   9.9566096 104.2521121  17.6697784  12.3268336
 103.4463384  18.0992275  12.0395488 104.9017455  17.9137951  11.6675395
  58.4794916  74.7944849  33.6821765  58.7793995  74.5159810  32.8168887
  57.5931073  74.4403498  33.7538928  73.6702861 100.4130464  21.6155642
  74.2369450  99.9116759  22.2018737  73.7509669  99.9723296  20.7696933
  18.3713341   1.2289967  58.5185051  19.1790795   1.5206927  58.9412260
  17.9708612   0.6337295  59.1521549   3.7103391  56.1500835  89.9514580
   3.8449264  57.0956564  89.8881340   3.0244794  55.9623384  89.3106937
  15.0003934  37.5862622  75.0186443  15.1320159  36.8876171  75.6595802
  15.2825427  37.2048712  74.1872787   2.6217163   4.9704843   0.0242156
   2.1224964   5.7366186  -0.2587014   3.3385837   5.3310590   0.5460566
  29.1538120 106.0874467  19.4419593  29.4942040 105.1937108  19.4020289
  28.2034637 105.9842114  19.3928355  17.9251790  79.8200035  87.8439999
  17.0810533  79.9430656  87.4097919  18.4917426  79.4515610  87.1661472
  34.9978709   6.0464865  67.0533514  35.8142591   6.4853400  67.2924089
  34.4966006   6.7127186  66.5831423  70.0879921  92.4076467   5.8886165
  70.8677758  92.9559236   5.8016509  70.0365032  92.2111039   6.8240088
  32.7846861  33.8599443  77.6116467  31.8851876  33.5479665  77.5126171
  32.7728248  34.3724036  78.4200239  11.4478385  65.0730705  63.5023880
  10.9820175  65.9092712  63.5052681  12.3739886  65.3148460  63.4975147
  13.4977138  62.0333576  76.6039801  13.6759198  62.9192638  76.2883139
  13.9579558  61.9804478  77.4416018  23.6299109  43.3331299  83.2428741
  23.6234379  43.8108063  82.4133968  24.0210843  43.9436245  83.8677788
  27.3711634  62.7063656  94.4662476  26.7535067  61.9991589  94.2802715
  27.5130129  63.1293583  93.6193752  51.9662380  20.3156281  79.6874428
  51.8150330  21.1818981  79.3093634  51.8180847  19.7086310  78.9622927
  39.7890878  70.4580259  67.7457762  40.5605602  70.3077173  67.1994543
  39.7264242  69.6747732  68.2924175  51.7344583  86.5825181  19.3896789
  50.8368744  86.4814239  19.0728873  52.2624398  86.0633879  18.7830752
  34.6670079   5.6881499  71.4696646  34.6913195   4.9070472  72.0224047
  35.5865049   5.9259880  71.3505507  21.0570931  52.0898438  49.0748501
  20.1174641  52.2423315  48.9744663  21.1718082  51.9071865  50.0074339
 101.7884363  74.0277808  36.2416953 102.1262659  74.5573859  36.9639319
 101.2141527  74.6212380  35.7577151  36.1328793  64.1118717  84.8661041
  36.1552954  64.9104834  84.3388939  36.5878725  63.4600258  84.3328953
  21.7715788  41.6264629  62.5323629  21.8415737  40.9280825  61.8815184
  22.5351715  41.5053320  63.0967093  67.9962934  95.4221826   1.7234725
  68.5537494  94.8446350   2.2449225  67.1202720  95.3056102   2.0912093
  52.5104619 104.8159032  14.7906608  52.4916972 105.7599597  14.9476356
  52.3408557 104.7256045  13.8529510   2.3129733  87.6172638  50.7206202
   2.2191505  87.6318359  51.6730976   2.6881951  86.7575455  50.5300283
 116.5475967  25.2286821  13.2024974 115.6995847  24.7852283  13.1812400
 116.5703704  25.7408624  12.3941726  59.3992567  20.9864950  94.6749973
  60.1965046  21.5158105  94.6537590  59.2595673  20.7272172  93.7642384
   1.3387109  68.2159948  76.8983459   0.7500681  67.7777147  76.2838221
   0.9394997  68.0722141  77.7563620  52.9544926  87.1106243  84.9895287
  53.8081932  87.5061321  84.8134422  53.1168890  86.1677361  84.9610138
  75.7001556 109.5634656  26.1077994  75.9830607 109.2446094  25.2507514
  74.8153580 109.8970275  25.9591311  34.3840826  18.8760715  18.3724231
  34.3985069  19.6105772  17.7588099  34.5437086  19.2752700  19.2276401
  53.2403231  67.5651789  56.7037535  52.8645515  68.1364393  57.3735952
  53.6691618  66.8665075  57.1979141 107.2308792 101.1930852  14.2521304
 107.1308149 101.9001441  14.8895377 108.0002369 101.4402299  13.7390727
   2.9107750   2.9465395  48.2625884   2.1176994   2.9524904  48.7985248
   3.3259905   3.7905746  48.4398765  29.2599010  58.0219841  63.4086180
  29.9474335  58.6288166  63.6829996  28.5594392  58.1484127  64.0486193
  95.3641332  92.5122480   4.9727649  94.5289577  92.3252587   5.4014224
  95.8670725  92.9952269   5.6285304  40.4150867  49.6572495  73.8270187
  40.4994297  49.5702648  74.7765207  39.5736599  50.0956821  73.7004757
  40.1838196  19.5897060   3.4428901  40.4881466  19.2203432   2.6139182
  40.9848106  19.7519451   3.9412040  29.5537639  47.3241615  75.0716305
  28.9291692  46.8200731  74.5500898  29.0514421  47.6131725  75.8334541
  67.9654802 108.0461078   4.8305339  67.5611342 108.0467753   3.9629382
  68.9051641 107.9909377   4.6568030  48.5328090   9.1793638   2.3320407
  48.5480964   9.3108469   3.2800406  48.5212410  10.0644165   1.9676417
  30.9085155  27.6518202  86.6957378  30.7396102  27.0396161  87.4119186
  30.6517267  28.5053587  87.0446777  71.8607616  33.5733676  84.6754837
  71.1177683  33.0486894  84.3773174  71.6255760  33.8379741  85.5648136
 111.7478050  91.4593868  14.2969531 111.4593757  92.3581700  14.1381186
 111.1914838  91.1522799  15.0127906  13.1664408   6.2116342  14.4554156
  12.6065624   5.7827478  13.8082427  13.0822456   5.6709772  15.2408046
  87.1958173  83.6622529   3.5432452  87.0591654  84.2700629   2.8165263
  88.1355680  83.7071376   3.7195510  69.5891966 101.6758876  15.2317828
  68.6338366 101.6803699  15.2909488  69.8052348 102.4934535  14.7832984
  28.7637925  74.7652960  70.9766245  28.4428453  75.4202509  71.5965080
  28.4480214  73.9313078  71.3244534 107.5481142 107.3799090  37.8532523
 107.5733246 106.4233737  37.8784293 108.4245075 107.6499038  38.1276149
  87.4912834  32.8674674  85.4691124  88.4074688  32.7719855  85.2088833
  87.0202637  32.9938436  84.6454525  31.0150599  57.5375080  82.8154659
  30.9922647  58.4239292  82.4549484  30.8217359  56.9703150  82.0690346
  68.0458940 108.0899100  15.0616187  68.3541597 107.1858935  15.1244945
  68.6745943 108.5174470  14.4800776  39.1824698  35.3926992  83.9623547
  39.6609998  34.5929027  84.1804600  39.6901178  35.7901454  83.2548523
  46.6278744  47.0038271  95.0242138  45.8417940  47.1110344  95.5597591
  46.3642836  46.3996220  94.3301773  20.0058699  38.0278969  64.9541759
  20.7469440  37.7705812  64.4056940  20.3954077  38.2249904  65.8060265
  10.5291641  10.7629400   1.9002170  10.9903181  10.4673677   2.6852054
  10.6346786  10.0450950   1.2758750  39.8540473  50.5576801  70.0505781
  39.4818854  49.8619175  70.5924654  39.4859028  50.4061460  69.1800976
  23.3529699   8.5713583   7.2964496  24.0103948   8.9914852   6.7419070
  23.0077207   9.2809826   7.8381843  99.0793861  96.8121247  26.4667052
  98.5394252  96.4163833  27.1508521  99.4347252  97.6040797  26.8701571
   9.7906291  69.0564299  77.7257919  10.1288784  69.8615360  78.1177473
  10.4798865  68.7749815  77.1241760  83.4071125  90.4500895  27.0420569
  83.5384811  89.9129682  27.8233832  82.5999654  90.1134543  26.6529197
  13.6126447  58.8128901  63.1950998  13.6382961  59.2044163  64.0681887
  14.4784999  58.9902020  62.8275633  10.9564293   0.7486921   3.0019778
  10.5570972   0.0425678   3.5100764  11.4981115   1.2216240   3.6337584
  87.8795255  99.2773395  16.0855311  87.0991195  99.6679406  16.4787692
  87.8147281  98.3464150  16.2986201  71.6957964 107.5535588  10.2769965
  71.3972081 108.4115844  10.5784339  71.1139692 107.3401790   9.5474833
  33.9291024  70.9492493  89.7242069  34.3175888  70.2921915  90.3017807
  32.9849076  70.8330679  89.8301792  46.4046240  54.3833876  82.1883965
  46.6983032  53.6214352  82.6878071  46.9934368  55.0881386  82.4583149
   4.8136795   1.7673164   4.5238990   4.6446264   2.4831587   3.9113444
   5.5856407   2.0492654   5.0146121  57.7366829  77.8424644  75.6491995
  57.3537683  76.9659567  75.6857538  58.0320597  78.0122948  76.5437078
  76.2651123  93.1591897   8.6680907  76.9075216  93.4652548   8.0278796
  76.5276707  93.5758810   9.4888610  42.9075909  76.6536903  78.7581110
  43.8134861  76.5875816  78.4560919  42.9579258  77.1868896  79.5514584
  35.0557375  44.8189116  90.0424671  34.7830987  44.0471935  90.5388069
  35.1370001  44.5074940  89.1410065 106.9171489  81.7773776  13.5979766
 106.3931860  82.1296029  12.8785151 106.3243784  81.7798572  14.3495482
  14.5004892  76.8976116  78.7667990  14.9316859  77.6906633  79.0851879
  14.5670104  76.2799883  79.4950485  49.4837761  72.8281641  83.4691048
  49.9396038  72.7240467  82.6338768  49.1457033  71.9550037  83.6679363
  10.3415585  54.7435808  84.2255783  10.1338565  55.0523758  85.1074791
  11.0863566  54.1547585  84.3472099  29.4388223  47.6497078  89.8224354
  28.7408304  47.7734423  90.4656601  30.1870155  48.1225300  90.1869678
  41.7093468  63.2382345  73.1032801  40.9451294  63.2734585  73.6785698
  42.1309042  64.0906286  73.2125807 100.3863766  16.3812738  10.6746882
 100.9842660  17.0108562  11.0776538 100.9009960  15.5778890  10.5973834
 115.4882266  19.8557764  33.0337638 115.2836802  19.7073274  32.1105308
 114.6846058  19.6211677  33.4978599   8.5967815  10.6652837  23.3903617
   9.2470348  11.3281589  23.6227340   7.8081501  11.1661249  23.1818980
  81.3774395  85.4979324  83.6837769  80.9747505  84.9722385  84.3749428
  81.2760162  86.4022255  83.9807892  90.1841510 106.2880378  15.3587741
  90.3676857 106.1240249  14.4337577  91.0092462 106.6215854  15.7111854
  18.0865419   3.3925682  14.4035357  17.4459589   3.7372022  13.7813491
  17.5730169   2.8450208  14.9974364  45.4074430  32.9976106  88.5963249
  45.6984186  33.9073038  88.6597538  45.3196907  32.8391957  87.6564121
 112.4978053  56.1921453  94.1205406 111.9154309  56.2062025  94.8800564
 112.8262474  55.2936792  94.0871525  46.2612009  76.2320423  54.2279434
  46.0640287  76.7996407  54.9730539  46.0180378  76.7505264  53.4609509
  38.7253785  47.6960468  81.2852478  39.3623638  47.2434044  81.8380547
  38.8773847  47.3448992  80.4078579  23.0907202  28.7057137  74.9213362
  22.9903388  27.8407097  74.5239353  22.2016096  28.9607882  75.1676083
  28.6447656  12.8868728   7.3157710  27.8768814  13.4402996   7.1732730
  29.3780792  13.4044843   6.9832629 104.2813041  52.0397139  92.0632744
 103.5322048  51.5393734  91.7396450 103.9080002  52.6384068  92.7101517
   5.8266598  66.1662483  94.5805073   5.5716962  66.6343212  93.7854385
   6.5574265  66.6738844  94.9333668  73.7613726  76.4435673  73.6005354
  73.7143898  76.6221571  72.6613140  73.1756926  75.6979895  73.7321568
  25.8367920  57.7364683  85.0016308  25.6648064  56.8149376  84.8081398
  26.6136670  57.9488707  84.4843483  63.5704650  73.8095860   5.8791751
  63.5900820  73.0583851   5.2862662  63.9886965  74.5151608   5.3857440
  46.2671759   8.5784059  12.8193969  45.6387021   9.3001085  12.7995223
  46.6473606   8.6159759  13.6970538  95.5953398   3.2156187   8.3799380
  96.3804009   3.6558872   8.7056369  95.8281591   2.2872215   8.3698291
   8.3518017  13.3992820  17.4211520   7.7566850  13.6744505  16.7237681
   8.5546434  14.2058283  17.8950423  35.5850267  26.1646199  86.7003441
  36.2008834  26.7732215  87.1084595  35.0662804  26.7096281  86.1086464
 110.0564636 103.1013017   5.3394050 110.9008325 102.9246573   4.9245852
 109.7894062 102.2589021   5.7072085  69.6459950 105.2278571  16.1319751
  70.4363216 105.5132298  16.5904254  69.9525536 104.5588641  15.5198401
 108.3023431  25.9977632  15.0116557 108.1643250  26.8103033  15.4984397
 108.2148316  26.2512403  14.0927810  29.8012590  42.9278231  70.3533649
  29.6125698  43.2358456  71.2397909  30.7497931  42.7998924  70.3410959
  59.4670916  75.0888395  58.9877319  60.3670549  75.2954149  58.7354851
  59.0638685  75.9405947  59.1555309  31.3191175  35.6953812  67.6587009
  31.3131070  35.4860592  66.7246866  31.5493178  34.8710918  68.0874062
  59.8488474  71.4731836  86.2515640  60.3028154  72.2994614  86.4171314
  59.7454929  71.4431000  85.3004360  29.8508096  55.2553082  90.0518799
  29.7564316  55.6821918  89.2003536  30.3159571  54.4407463  89.8612118
  28.5564220   4.3374639  10.4040736  28.4542358   4.5723158   9.4817752
  29.1603792   4.9931532  10.7526988  33.8166952  77.3304558  64.4191074
  32.9936934  77.3385143  64.9078131  33.9032078  76.4284897  64.1105509
  35.8749998  23.3445411   4.2382258  36.5707481  22.6878696   4.2689818
  35.1348675  22.9302698   4.6818656  48.2153130  75.9622765  58.1606340
  47.3292923  75.6043053  58.1053400  48.0883551  76.9099236  58.2061768
  34.4813395  51.1216211  83.1477356  34.9142456  51.8837595  82.7630615
  34.4102216  50.4969168  82.4259853  20.2525520  53.0773735  60.9651041
  20.5825925  52.8345823  61.8301821  20.5227041  52.3575068  60.3949833
  97.0559944  81.4891558   5.3269500  97.5087608  80.7167773   5.6655711
  97.5506939  81.7329841   4.5446128  45.9952307  44.8202372  62.8829002
  45.6270266  45.4500294  62.2632074  45.7046938  45.1303148  63.7406158
  56.4334869  73.5232162  59.7972202  56.2840033  73.4717607  58.8531637
  55.6065798  73.2387590  60.1865005  50.6157780  61.1528397  68.5335732
  49.8088646  61.4883041  68.9242029  51.0077667  61.9129324  68.1036425
  49.6167374  40.5572271  55.4700613  50.0406170  41.3770533  55.7239103
  50.0549650  39.8881698  55.9959364  47.5818539  61.9237423  66.1096191
  48.1019974  62.1688366  66.8748713  47.3061562  62.7581549  65.7301760
  57.7387799 100.8787303   8.0456752  56.8844606 101.2150435   8.3163470
  57.8519739 101.2035184   7.1524066  57.4920702  45.8621693  94.8917675
  56.9256926  46.6235971  95.0169563  57.4632740  45.6945276  93.9497948
   6.1172426  36.6724306  10.7721824   5.5322159  36.3424593  10.0902099
   5.5426061  37.1507555  11.3698691  46.1619616  34.6046448  92.6127911
  46.4706945  35.2508140  91.9776726  46.8765211  34.5301533  93.2453156
  54.6141529  69.7582865  60.7527447  54.1104507  70.1837492  61.4466429
  54.1966867  70.0481129  59.9416018  34.1560578  86.8856430  55.8205032
  35.0849438  87.0904541  55.7134771  33.8276577  86.7885780  54.9266577
  49.4198036  68.8716125  78.0943060  49.5660734  68.7881231  79.0365696
  49.8137712  69.7131395  77.8644037  23.5551333  56.6713142  67.4648714
  23.1548119  56.9207382  68.2977962  23.2171965  57.3091316  66.8362093
  55.5014849  89.7570515  59.4716835  55.1732588  89.1405964  60.1262808
  56.3230562  89.3701649  59.1690683  23.8821721  36.8060160  90.1200676
  24.6482754  36.4071870  89.7074509  23.1938696  36.1462331  90.0354671
   5.7828796  57.0434189  78.6168480   5.6239814  56.7042255  79.4977140
   6.1213720  56.2928867  78.1286335  56.4644362 105.7393889   2.2399253
  56.1221553 105.5608373   1.3640326  57.4094976 105.6110816   2.1585196
 110.2641942   5.0226217   3.4294623 110.4239681   4.9793344   4.3722457
 109.3518093   4.7513681   3.3284587   6.8421591   3.0200105   7.2257155
   6.3983143   2.1825367   7.0920390   7.0880974   3.0157619   8.1507701
  77.1169008 105.1411872  36.8290633  76.4171303 105.4309945  36.2437743
  77.6829995 104.6018605  36.2768859 107.2833694   0.1260329  47.3164225
 108.0492986   0.6874037  47.1962070 107.3854698  -0.5623960  46.6592550
  13.1274414  84.4258022  76.2103462  13.5059023  84.1738415  75.3680182
  13.8739741  84.4569111  76.8086386  40.8653259  72.7457047  57.7824831
  41.0104179  72.7149820  58.7281227  40.1127243  72.1724415  57.6368952
  52.2782564  42.2428608  94.3136215  52.5441647  43.0492020  93.8716507
  53.0559587  41.6856289  94.2836189  54.9957323  66.6619873  62.9276466
  55.3856325  65.8252907  62.6743841  55.7368803  67.1933079  63.2185650
  12.8546023  63.2838440  85.6914234  13.0263746  62.3447752  85.7612324
  13.0474436  63.6280823  86.5635204  21.1554480  28.5817099  78.6488914
  21.6105485  29.3668652  78.9532709  21.7977095  27.8789473  78.7481880
  22.2748697  16.2777668   3.7397880  21.3979900  16.4487892   4.0833873
  22.5849855  15.5227428   4.2397803 105.9652164   3.5936170  11.7496604
 106.2806466   3.7111955  10.8536071 105.8497980   2.6477771  11.8407744
  40.8626604  33.2313228  68.4728909  41.2877750  32.9779553  69.2922306
  41.5801764  33.5254812  67.9117584  36.5054512   0.9833815  77.8190708
  36.9884515   1.5062273  78.4590530  35.6459880   0.8497227  78.2186794
  44.5444870  33.9956522  85.7548618  43.7502766  34.3708277  86.1352539
  44.9804640  34.7357559  85.3324795  76.8811525 102.1702723   6.4667434
  76.6615022 101.6925387   5.6668967  76.0580243 102.2139173   6.9533462
  88.2388080 101.7279868  38.2071513  88.3180536 102.4690490  37.6065082
  88.1174244 102.1291070  39.0677279  81.6683865  73.1807756  77.8305721
  81.7257214  74.0593195  78.2062006  82.1451473  73.2425976  77.0028591
  31.8112016  75.2216816  67.4600363  31.6201329  75.8718443  66.7840099
  30.9596372  74.8396206  67.6724052  30.2047658  27.0769310  71.8449974
  29.8672652  26.9065690  70.9656191  30.6691194  26.2744451  72.0829535
  37.8419161  56.9733620  62.6212597  38.5642004  56.3645124  62.4668598
  37.2469902  56.4972353  63.2005644  41.4685202  87.2775841  77.4878025
  41.6277647  88.1058979  77.0352983  42.2827959  87.1018314  77.9592896
  26.8683756  17.6067596   9.3936557  26.7607010  16.7780977   8.9267940
  26.4873445  18.2621675   8.8092917  14.6939981  13.9606291   8.9419478
  14.8873890  14.4455391   9.7442454  13.8045156  13.6309438   9.0698546
  35.3830552  64.1001558  74.1256666  36.0476327  63.4474373  73.9053726
  34.6721864  63.5946035  74.5197630  59.1461277  61.3739395  57.9590130
  59.9703503  61.0104370  58.2826662  59.4109917  62.0465040  57.3315287
  35.4821706  26.8464303  77.5452375  34.5500302  26.7596245  77.3457098
  35.9258723  26.5464449  76.7519093  96.7497743 108.0925851  34.3865413
  97.2279943 108.4097295  35.1526755  96.1720861 108.8175063  34.1478080
  85.3340543  95.1766734   0.9658545  85.3650058  94.3814020   0.4340476
  84.4438327  95.1954083   1.3171309  44.3395794  11.7690616   9.3931025
  44.0226734  11.4362245   8.5534400  44.9729622  11.1141782   9.6866721
  44.2827225  42.6964188  65.4900408  44.4634676  42.3888779  64.6017933
  44.3179893  41.9061232  66.0289478  85.3222288  95.8387141   6.8537158
  85.7261146  95.8971839   5.9878654  85.7475580  95.0868897   7.2661227
  25.0911355  38.6606598  65.3387737  24.7579765  37.9357219  65.8676386
  25.9419560  38.8678789  65.7252932  24.9620485  28.9003968  78.5957432
  25.4861116  28.1820774  78.9501524  24.3601584  29.1297841  79.3037987
  72.3623766  95.3653150   0.5689830  72.9669179  94.9067121  -0.0144940
  72.3912348  94.8653846   1.3847465  14.9424005  47.9262304  88.8006401
  15.3710437  48.7791157  88.7293148  14.8922753  47.6072645  87.8995419
  66.4551544   4.0363854  76.9000959  66.5714979   3.6808646  77.7811766
  67.3050117   4.4190615  76.6820812  45.8009434  29.1474819  49.6428537
  46.4865112  29.2980385  48.9920378  46.2200451  28.6053252  50.3111744
  32.0651603  54.3063641  59.1524553  31.9436264  53.8781500  58.3050537
  31.6403985  55.1584148  59.0533543  28.1169939  63.0156898  74.7160482
  27.4466228  62.4869204  74.2833424  27.7446795  63.2191324  75.5740833
  40.9893227  56.7281055  86.3506413  41.1076593  57.4731064  85.7613945
  40.7831812  55.9947252  85.7710838  50.2266026  57.9207754  58.7267113
  50.6346178  57.7041912  57.8883505  49.6064186  58.6193371  58.5178757
  28.9909458  51.4497375  67.8750801  28.4174728  52.0706415  67.4258137
  28.4285855  50.6989479  68.0655956  39.1233576   3.7078672   4.6917933
  38.7276256   2.9783636   5.1687163  38.5413540   4.4486623   4.8612899
  71.3769020  86.8491750  14.9769610  71.5874423  86.4530926  14.1313666
  71.4259828  87.7919273  14.8187083   5.9202707  14.0528064  15.6167048
   5.4372251  14.8195844  15.9248466   6.2811315  14.3207603  14.7715968
  26.3366532  52.9574060  69.0580940  26.0584450  53.4526920  68.2876873
  25.7305932  53.2273293  69.7480679  48.3576536  67.1078968  74.9343109
  48.7769032  66.5772343  75.6117010  49.0837574  67.4383593  74.4053507
   7.4002087  48.7061453  78.5506630   7.4735343  49.5069647  78.0314827
   6.5793431  48.8074017  79.0324926 104.4318880 102.6283317  18.4733409
 104.8551477 101.9552140  17.9404277 105.1225055 102.9401593  19.0581817
  19.0940940  30.3280783  65.9708118  19.7934771  30.4757142  65.3341818
  18.4795976  31.0468578  65.8225441 116.1958101  13.0820471  33.7191886
 117.1464946  12.9809147  33.7661189 116.0064413  13.1340891  32.7823562
  80.0530304  99.5001082  29.6959037  79.9649204 100.2622275  29.1235084
  80.7591833  98.9864449  29.3038196 112.6205614  31.6466814   4.3801421
 111.9709184  30.9650331   4.2082232 113.2485440  31.5655618   3.6623019
  99.9379553  98.2058244   9.6980113 100.1761116  98.9637666   9.1641253
  99.8719610  98.5511928  10.5882949  42.8661902 106.2678485  35.9046000
  42.1271582 106.5787368  35.3817100  42.6000817 105.3977494  36.2018413
  90.2353086  37.3414713  19.9945849  90.2860918  37.1452146  20.9300727
  91.0707059  37.7628141  19.7925681  44.8695660  63.3976984  86.1363506
  44.7969341  62.4508238  86.0163975  44.6116066  63.5443258  87.0463943
  77.7856874  87.6687622  69.0475035  77.0435953  88.2025146  69.3314838
  78.4547091  87.8133965  69.7166204  54.2202330  78.2720566  53.9836597
  53.9562416  77.6708651  54.6801567  53.4633923  78.8454247  53.8625383
  44.4145823  57.5946665  71.0012054  43.7730837  57.7602577  71.6920710
  45.0089550  58.3438730  71.0416842  58.0019140  21.1355805  72.4351883
  58.7282848  21.7565536  72.4900246  57.3296309  21.5970492  71.9338751
  57.6932419  89.1165523   9.6236342  57.0950986  89.5401077   9.0079516
  57.1322299  88.5449271  10.1477927  16.2411201  16.4798694  14.1786403
  16.3075006  17.4290615  14.0744418  15.5733431  16.3591438  14.8537177
 108.5050418  47.8428465   0.2978248 108.2919862  47.6672559  -0.6186944
 107.7494314  48.3269602   0.6308669  91.0425331   7.4174696   6.0365027
  91.3920679   6.5342861   5.9179801  91.0735025   7.8065925   5.1625174
  77.8453482   2.4485064  91.4928722  77.9251660   1.4973117  91.5642166
  78.6862863   2.7332640  91.1351490  74.8660278  90.5105305  79.7463131
  74.3074226  90.4183483  78.9744997  75.1445580  91.4262104  79.7323942
  40.7596254  71.7760277  65.1368141  40.2937126  72.5726032  64.8826027
  41.6841125  72.0235586  65.1199389  67.3414135 101.6611481  65.9062004
  67.2565603 101.3622379  66.8115664  68.1183624 102.2202206  65.9103775
  69.8292112  85.9499931  49.8500299  69.7319746  85.1264000  50.3280163
  69.8381376  85.6923103  48.9282131  38.0233812  94.6182346  62.3862267
  37.7866626  94.9397564  63.2561779  38.9678764  94.7618008  62.3266363
  46.7940331 101.0641003  69.5424414  47.1859407 100.9567833  70.4091167
  47.4274254 101.5926170  69.0569401  85.6188580  32.7547651  14.0947360
  85.5254480  33.7067419  14.1298408  84.7311451  32.4219614  14.2268104
  70.4826880  67.4664307  78.1398392  70.2446795  68.1092834  78.8079119
  69.8134041  66.7860317  78.2129478  33.8883591  86.7541981  92.6680470
  33.3162212  87.2607422  92.0915890  33.3660007  85.9904289  92.9130554
  56.0676861  73.5228777  84.0476036  56.3982344  72.6915264  83.7072754
  56.5423441  73.6511755  84.8688698  48.0242300  92.7534103  81.3014507
  47.2590828  92.5897408  81.8527985  48.5594130  91.9652653  81.3943672
  22.4905288  38.1385236  20.7864112  21.6256655  37.7302271  20.8256453
  23.1037653  37.4112611  20.8925361  50.7337856  99.5849705  81.8659496
  50.9130573  98.8654709  81.2606239  51.3963318  99.4926834  82.5506020
  46.0484123  89.2536545  70.3580761  45.4143906  89.8223686  69.9212599
  45.6717587  88.3765030  70.2876139  39.8014212  49.0520000  85.6274414
  40.5249405  48.4254551  85.6412315  39.8561263  49.4996738  86.4717293
  53.5020208  64.5265961  87.1936512  53.2137966  63.6753750  87.5231838
  53.1861496  64.5532274  86.2904644  51.2752438  96.4617348  70.7788467
  51.6966057  95.7033157  70.3745222  51.3625240  96.3107586  71.7200232
  60.2523565 105.8678055  62.8234863  60.0674868 104.9391079  62.9634237
  61.2078857 105.9242630  62.8222227  45.8204842  86.9694328  72.4312258
  46.3265228  86.2530613  72.0478535  44.9940491  86.9641113  71.9483089
  63.5626364  97.0820236  84.9501514  63.1518459  97.7714062  85.4719067
  64.3300533  97.5013256  84.5609379  25.5422104  31.6343313   5.8146686
  26.3192642  32.1183782   6.0941714  25.8856762  30.9164720   5.2827376
  20.7184768 109.0651798  43.8921738  19.9937582 109.1781616  44.5071983
  21.4153481 108.6669636  44.4137287  61.0289764  81.1956310  89.1655254
  60.2237463  80.7046890  89.0017796  61.2683439  80.9701729  90.0644779
  27.6002240  57.4800587  94.8058319  26.8652081  57.0952320  94.3284607
  27.1944356  58.1032228  95.4085255   4.0042198  27.4071222  15.4993266
   4.8915613  27.2890478  15.1603431   4.0568483  28.1962591  16.0385245
  42.1447552  37.7089220  34.0490455  42.0844734  37.7048879  35.0043410
  41.9124782  38.6029821  33.7981719 114.5585039  50.6620603  19.3125457
 114.9331310  51.1407095  20.0519866 114.7666194  49.7449117  19.4907493
  57.7067566  85.1824284  59.4324398  57.4845076  84.2621994  59.2909336
  58.5222054  85.1576328  59.9331045  56.9581509  78.6138296  67.8300858
  57.2563410  77.8510714  68.3255720  57.2007751  79.3628597  68.3744383
  46.1397362  87.8102207  84.4736385  46.0712910  87.2151375  83.7270260
  45.2350855  88.0546188  84.6688461  39.8818386   7.1261554  32.3257750
  40.7895458   7.3934179  32.1813220  39.9480093   6.3217216  32.8403110
   2.1346414  18.4563833  16.0760802   1.2464607  18.1054979  16.1412734
   2.2173345  18.7307554  15.1627845  44.2293262  83.6776829  54.0373182
  44.1440725  84.4824791  54.5484591  45.1686049  83.4933376  54.0357161
  28.3720625  40.4212099   6.3072890  28.2303703  39.6134668   5.8136195
  27.8272283  41.0715204   5.8640212  59.1880512  82.7351189  80.0206470
  59.6951818  81.9242954  79.9805975  59.7227812  83.3754921  79.5513630
  39.7076118  34.8869901  16.4362353  39.5027960  34.8666387  17.3710460
  40.0525558  34.0142637  16.2475604  16.0831583  67.7063661  24.5887584
  16.5335977  67.2495275  23.8783854  15.1680935  67.4387937  24.5033282
  66.4296675 104.0949440  64.4535542  67.2344398 104.5537472  64.2125702
  66.7281914 103.2557678  64.8041344  29.8018956  61.7943335  65.2784872
  30.1984835  60.9333563  65.1455975  29.1604733  61.6575480  65.9756947
  90.9817136   0.0160361  79.2468643  91.0554279   0.9516192  79.4352150
  90.1166500  -0.2272271  79.5765829  18.6091030  11.0873657   4.8661632
  18.9865959  10.6498533   4.1030616  17.6837480  11.1958366   4.6466464
  95.7927036  51.3692045  54.8226261  95.3097153  51.6963720  55.5815220
  95.5096149  50.4592609  54.7326469  49.4629622  91.2483692  68.7714911
  49.3427277  91.1405563  69.7149706  49.4555950  90.3558922  68.4255743
  14.0452898  14.7403055  24.7422904  14.9894464  14.8023372  24.8870486
  13.8796270  13.8030439  24.6406669  44.9390316  83.4826756  60.9895802
  45.6909370  83.5807896  60.4054213  45.2992964  83.6102200  61.8671751
  51.1297369  92.2253323  50.7114410  50.2109766  91.9568920  50.7187366
  51.3858175  92.2279739  51.6337490  23.3423876 109.3451362  11.9352740
  23.1466459 109.4268899  11.0018748  24.2463564 109.0316634  11.9638652
  54.8628807  84.0740967  77.1507120  54.2789888  84.3234348  76.4343786
  55.6579542  83.7663078  76.7155600  32.2280061  25.8295541  18.9962977
  31.6607178  26.2876516  19.6164245  32.5374735  26.5145689  18.4036654
 108.8825085  47.9485613   4.5008296 109.7217657  47.9035192   4.0427321
 109.1138651  48.1664854   5.4037208  86.8353380   9.5446826  82.2346020
  86.9092668   9.5185900  81.2806129  85.9834398   9.9494696  82.3978329
 104.9995103  52.5237513  63.6233234 104.8710193  52.5594711  62.6754618
 105.8278539  52.0573473  63.7353325  37.8042054  67.2883463  79.8789167
  38.1105757  68.1588745  80.1329803  37.9773521  66.7405939  80.6445694
  39.1086042  13.3056026   1.4980811  38.3140266  13.8224416   1.6313476
  39.0603292  13.0233246   0.5847186  48.2639217  78.8746119  59.0052986
  48.7593031  79.5820379  59.4180679  47.4152613  78.8865900  59.4478655
   2.2747314  16.5375715   3.8063449   2.1518648  17.3710304   4.2607421
   3.0354679  16.1424499   4.2322368  47.4686193  53.7191391  66.6700792
  48.0690908  53.1327677  66.2098265  47.1523952  53.2038212  67.4121571
  73.7658882  92.8899288  64.4748640  72.9941702  92.9687786  63.9140940
  73.4302855  93.0129051  65.3628302  52.5618076  99.0266323  59.5197773
  51.8347359  98.7081051  60.0546980  53.0958414  99.5422459  60.1240826
  77.9895366   6.7415095  52.1072674  77.2562827   7.3372126  52.2612572
  77.6344885   6.0702563  51.5245199  52.3915482  78.4246778  76.4182377
  52.8085470  78.9400339  77.1087074  53.0757189  77.8250885  76.1205244
  78.0287981  78.1949091  81.9897461  78.2539463  79.0901947  82.2427273
  77.6912642  78.2757759  81.0976887  50.0808334  63.3238363  75.6512690
  50.8787680  62.8955412  75.3412676  50.3573227  63.8136387  76.4257860
   1.3104809  34.5888525   6.9133586   0.9625423  33.7164217   6.7288417
   0.5348575  35.1440244   6.9935054  46.7895317 102.2349548  60.3185606
  47.4431324 102.4755478  59.6619368  46.2823629 103.0350208  60.4560280
  67.0137978  84.3295479  63.7443590  66.8420553  84.6575737  64.6270466
  67.7385044  84.8675823  63.4256887   6.3886726   4.7499757  27.8213710
   6.3281095   5.3208929  28.5872764   5.5546940   4.8694759  27.3670119
  35.9084344  96.3379288  92.8165722  35.0872469  96.7935848  93.0016708
  36.4364004  96.9794178  92.3411942  36.3923407  98.7023830  64.0066147
  35.5235171  98.3011913  64.0272284  36.3312721  99.3710423  63.3244133
  73.8420057  92.4962234  92.8447723  74.2901707  91.6544437  92.7623463
  73.5244131  92.6859379  91.9619560  54.2698050  82.8865814  88.6746407
  54.4609118  83.7249279  88.2540703  53.6090040  83.0950451  89.3350315
  13.0719078   4.1538625   3.7280768  12.9506433   3.8557726   2.8265971
  13.8188112   4.7509103   3.6844939   1.5050638  20.8890873  -0.1566773
   1.7343796  20.3374439   0.5912131   1.7647732  21.7715316   0.1080436
  55.8898449  93.7391376  40.6726122  56.0101461  94.6849823  40.7570744
  56.4880514  93.3630085  41.3182974  37.1043611  66.2873936  64.7752571
  36.2963271  66.4552736  65.2601528  37.7742696  66.7816401  65.2476692
  77.0562935  75.5420828  94.4828033  76.7629194  76.2643862  95.0381756
  78.0076742  75.6403542  94.4447517  25.8349836   2.6207596   7.3808593
  26.3388288   2.3693376   8.1549186  26.4288318   3.1796604   6.8796653
  72.0555067  86.3863087  61.1037540  71.1470461  86.0941219  61.1783123
  72.1695805  87.0011997  61.8284130  12.2623527  44.7582155  20.8486384
  11.8264854  45.4506689  21.3453883  11.5871227  44.0912347  20.7243937
  52.8511906  80.5443287  66.2727165  52.7263641  80.0936127  67.1078825
  52.9274845  81.4688683  66.5085602  82.9947056 101.6142182   1.1763019
  82.8478540 100.6689172   1.1436385  83.4242214 101.7608981   2.0190543
  52.1699883   5.5915595  89.0783978  51.9198037   5.0215197  88.3512878
  51.4658822   5.4865695  89.7182846  40.3724432  93.5673618  88.8276577
  40.0084352  93.7495232  89.6940041  39.8266768  94.0748882  88.2270050
  83.2270540 108.5737853   0.2567500  82.5710882 109.1723494   0.6140536
  82.9066242 107.7018409   0.4875487  31.8116606  26.3125520  15.4364509
  31.4471138  25.4290300  15.3841800  31.0549820  26.8901735  15.3362960
  90.1994419 104.7008419  67.3229742  89.9757385 105.4227924  66.7356205
  90.0366783 103.9120483  66.8057394   7.0457828  15.2484995  24.5165175
   6.1672247  15.0636440  24.1845530   6.9281233  15.3522020  25.4607791
  67.9290485  54.2915678  59.6034479  67.4219704  54.2364454  60.4134321
  68.8353062  54.3923235  59.8946095  46.0349417  58.4952116  85.7204533
  45.1483774  58.3057642  85.4132938  46.5947104  57.9063368  85.2143669
  75.0034523 101.1472130  81.6178703  75.5219126 100.3455734  81.5485287
  75.6488991 101.8374920  81.7699718  66.9139004  77.7102804  92.8995514
  66.7132664  78.6053896  92.6261330  66.2813139  77.1683264  92.4280167
  40.0328541 101.3324642  57.8635168  40.6519985 101.9981575  57.5639343
  40.5623627 100.7314110  58.3875275  14.1828478  35.8032900   1.6348285
  15.1386011  35.7507711   1.6383571  13.9936483  36.7090803   1.3899535
  49.9417257  81.1909294  78.1181526  49.9774027  80.8306599  77.2320604
  50.6000519  81.8857861  78.1208706  79.5138550  82.0850277  77.7937841
  80.0054646  82.8532028  77.5031519  78.7548828  82.4457169  78.2521534
  20.2598942   7.8844505  32.8974074  21.0195101   8.3371931  32.5310153
  20.5645693   6.9898468  33.0493564  37.9852843  50.2332163  81.6137886
  38.1541181  49.2910290  81.6177368  37.1674085  50.3279400  81.1255932
 110.8305426  97.3518753  65.7331753 110.3281160  96.7578506  65.1755667
 111.6118591  97.5584698  65.2202511  69.1846943  98.8324833  58.2795334
  68.5798454  98.1325531  58.5254765  70.0514221  98.4849358  58.4898233
  64.1061449  92.2570133  84.7557545  64.3650723  91.8105412  83.9496231
  63.4142876  92.8600693  84.4839287  41.0148764 107.0046997  72.4333239
  41.2814713 107.2558689  73.3176756  40.4962349 106.2096405  72.5562429
  76.2164797   1.0008670  59.8841190  75.7186760   1.4866305  59.2265081
  75.7315196   0.1832152  59.9958754  38.8923168 101.5238571  84.3495464
  38.6518383 102.2304249  84.9488544  38.1893253 101.5110302  83.7000370
  51.4929199  70.8736658  60.9836006  50.9812593  71.4917612  61.5055132
  51.2025404  70.0113726  61.2808561  53.4724379  68.7344742  63.4111214
  54.0124416  67.9749393  63.1926203  52.6050282  68.5180092  63.0691051
  30.9115064  11.4856249  33.4576720  30.9985864  10.5421549  33.5937423
  31.0611761  11.8671852  34.3226832  77.8981413   5.3225566  88.0072880
  78.8201011   5.5124331  87.8336048  77.6019729   6.0516501  88.5522079
  54.1748810  70.1647615  80.5105495  53.2927942  70.2704287  80.1541996
  54.4527817  69.2996836  80.2094746  82.0804371 100.6550794  20.1530189
  81.9938959  99.9550347  19.5059604  82.2957910 101.4323716  19.6375770
  71.3587666  71.5710354  47.2191000  71.5102100  71.4342833  46.2839031
  71.4696789  70.7039118  47.6090050  33.3720613  96.9402695  91.5175819
  33.5161996  97.2597408  92.4083042  32.4370193  97.0748329  91.3632393
  21.1843991  91.7047787  55.9731674  21.1178112  91.0361290  56.6548586
  21.5564132  91.2439537  55.2211857  58.9350796 101.4127731  54.8930931
  59.3659592 100.6002522  55.1584196  58.9116716 101.9427109  55.6898689
  76.1885023  82.2691822  89.6559334  76.3038445  82.1035767  88.7202549
  77.0779037  82.3860455  89.9899101  96.6120542   0.9673358  68.9114285
  97.3375095   0.7107974  68.3420944  97.0214666   1.1349536  69.7602606
  11.4338386   1.1364465   0.1011771  12.2024524   0.7072406  -0.2746469
  11.2867916   0.6812864   0.9302920  20.6899881  51.6493225  86.5651512
  21.6406631  51.5590858  86.6307831  20.5231476  52.5720549  86.7574120
 111.9236196   2.3359729  48.3808422 111.9558490   3.2291938  48.7234211
 112.4501909   1.8246604  48.9952564  29.6098781  55.4152393  94.7078323
  29.1545367  56.2113619  94.4338131  30.5385327  55.6427479  94.6623135
  51.0276890 102.2726154  80.4362011  51.9172621 102.1134090  80.7517052
  50.7322836 101.4214516  80.1129532  67.7700342  90.4236035   5.0711650
  67.7910579  90.3706651   4.1156596  68.6465586  90.7219963   5.3138465
  49.8617935 101.3732243  94.3733215  50.4834414 100.8239555  93.8957310
  49.8984051 101.0494614  95.2733612   5.7284534  51.3782411   8.3530349
   6.3334024  51.6995817   9.0216178   6.2761104  50.8591467   7.7640933
  62.9835463  95.2290344  74.2485428  63.8369846  95.1877022  73.8170719
  62.5686693  94.3921471  74.0394354  32.1061266  57.2030740  14.8609179
  31.2039602  57.5227743  14.8497600  32.6264417  57.9433542  14.5486945
  58.2358456  94.0400887  74.2276478  58.4942389  93.1681919  73.9288855
  57.2862434  93.9849472  74.3346596  33.5233820  33.2231050  10.7239646
  33.9393890  32.4617105  10.3196734  34.0918625  33.4429079  11.4620322
   5.3652799  30.4847150   5.3618163   5.3734863  29.8584848   6.0856933
   5.3479517  29.9405485   4.5745391  37.0543838  56.6846943  77.9316521
  36.5759730  57.3636198  78.4074926  37.2356176  56.0135508  78.5896444
  84.1066551  52.8520393  41.3004255  83.7256432  52.3530340  40.5778933
  83.7082767  52.4778509  42.0862389  12.0943618  68.5552120  76.4013529
  12.4908674  68.9855766  75.6438541  12.6721001  67.8146172  76.5856600
   3.9447569   4.9381114  91.2228394   3.2214617   4.9053813  91.8489456
   3.6326193   4.4363070  90.4698467  33.2859492  55.3094149  87.3500061
  32.7331901  56.0872555  87.4251842  32.8839445  54.7967863  86.6486931
  14.5079458  23.2880407  19.5786208  13.5961092  23.3166032  19.2888469
  14.8402250  24.1699558  19.4111270  42.5227833  76.6548347  55.5148506
  42.6582623  75.9070587  56.0968351  41.5926552  76.6191864  55.2916431
  55.1740885  66.6830015  80.6087685  55.6647539  67.2792482  80.0431156
  55.3348017  67.0070076  81.4950085  37.0376372  84.6897030  60.2224016
  37.3767567  84.9450397  61.0803223  37.7941108  84.3217850  59.7656536
  41.7613029  64.2888975  91.3994598  40.8556366  64.4052172  91.6866302
  41.9220066  65.0254345  90.8096123  56.0207605 106.2419415  93.7128162
  56.5761423 106.6722298  93.0627155  55.6884193 105.4632950  93.2661819
  29.2923951  92.8208637  84.1910172  28.4425616  92.4031162  84.0513897
  29.7215629  92.7822781  83.3362961  37.1894312  90.1166248  83.1897736
  37.4909306  91.0037231  83.3856869  37.7865148  89.5479012  83.6758614
  50.4731548  11.4909988  11.7437572  49.9673736  11.8514305  11.0153979
  50.8190716  10.6636816  11.4089126  78.2796158   6.4396334  68.8400936
  77.3947920   6.4995337  69.2002773  78.2301415   5.7295466  68.2001257
  15.0122511  70.1904058  94.7543716  14.7175372  70.2075911  95.6649017
  15.6961739  69.5209551  94.7365856  15.6505941 106.7142110   5.1574916
  16.3561987 107.0517449   5.7092399  16.0239004 105.9383922   4.7391814
  20.1958632   1.8834067  90.2606678  19.5539164   1.7327929  89.5667934
  20.9826540   2.1747733  89.7999096  38.4836483  98.2758236  88.2487583
  37.6297545  98.3780003  87.8284550  38.9683032  99.0632057  88.0010033
  48.4973860  75.5436087  82.7792645  49.4054508  75.6487036  82.4953556
  48.2902384  74.6293354  82.5857925  78.3561373  75.3366613  78.7101316
  78.6037874  76.1156750  78.2120991  78.9438868  75.3385115  79.4656277
  55.4018545  67.9714584  83.0269432  55.3305531  68.8843250  82.7479839
  56.2036753  67.9424524  83.5489368  80.2460575  86.7208290  54.9398994
  80.9527493  86.9131374  54.3235922  79.4561481  87.0451260  54.5073271
  38.7107778  99.4192410  68.2375813  39.0982819 100.1868534  67.8170586
  38.3455372  98.9089775  67.5147629  87.9618038  93.9975171   0.3150958
  87.6567091  94.8965101   0.1927775  87.2571529  93.4551506  -0.0392228
   8.9863241  17.3132473   3.9490813   9.4349516  16.8614202   3.2343692
   8.0600393  17.1123176   3.8154429  35.0600422  22.2986608  14.4723910
  35.1764858  22.7646404  13.6444205  35.8358228  22.5246149  14.9855536
  93.1310978  15.8507686   4.3143958  92.2371473  16.1572700   4.1622752
  93.6321666  16.6484695   4.4841975  53.7058246   6.0977655   1.2431067
  53.5881889   5.3162485   1.7831248  54.6427334   6.1151653   1.0478229
  96.7644514  10.7179118  59.5000935  96.8169845  11.6701842  59.4185448
  97.2020687  10.5240012  60.3290224  36.9745898  59.8223877  74.3985128
  36.3152361  59.4604349  73.8065052  36.8520904  59.3408203  75.2166367
  46.5935373  63.0256224  84.0307140  45.6771421  63.3019447  84.0209007
  46.7678165  62.8063965  84.9460220   2.7196229  64.1851616  75.8932829
   3.6156490  63.8713694  75.7712030   2.6138240  64.8704004  75.2333641
  45.0482512  63.5173273  81.0933971  45.4604244  64.3615961  80.9102249
  44.3739128  63.4288502  80.4198456  55.6300116  93.8172817  73.7550926
  55.6896496  94.7408485  73.9994383  54.9325085  93.4674168  74.3094587
  32.9702234  77.6305008  72.1461964  32.5081968  76.8678236  71.7982149
  32.2743249  78.2212639  72.4342155  59.3508720  77.7254200  86.0542297
  59.9965620  78.1092644  85.4609489  59.8617458  77.1522570  86.6258335
  43.6983013  63.6671925  63.6463737  43.5763264  62.8180742  63.2216978
  42.9071999  63.7881994  64.1714954  36.3623023  84.5326138  55.7569218
  35.9808469  84.3759727  56.6207457  37.1783614  84.9995327  55.9365511
  44.0952063  70.8366537  62.9255629  43.7040997  71.3126373  63.6581659
  44.5111990  70.0750732  63.3295155  46.3219070  71.1605644  69.6983910
  46.9364357  71.3071060  70.4174948  46.8215322  70.6578541  69.0550470
  39.2814827  77.4845123  90.9104538  39.9658895  76.8841219  91.2060070
  39.5424461  78.3362579  91.2606812  62.3643732  78.8952065  94.4301319
  61.6066217  78.8286257  95.0111771  63.0756664  78.4769297  94.9152374
  81.0640621  98.4779930  59.8032665  81.2170696  99.3305779  59.3959427
  81.3624859  97.8439999  59.1511679 112.0790150  53.9559179   6.1441726
 112.7142479  54.6708208   6.1037654 111.5733411  54.1294389   6.9381637
  56.4016581  73.7151289  71.0529137  56.6933584  72.8549242  71.3548851
  56.8674469  73.8498831  70.2276134  59.4338322  89.1974735  65.7740068
  58.9726305  89.9316597  66.1795902  60.2937889  89.1932011  66.1943531
   0.4738152  38.5223299  15.2816981  -0.0936997  39.0130430  14.6872539
   1.0584581  38.0315977  14.7041148  45.5700159  36.5103507  76.8015146
  46.2698984  36.6605520  76.1660385  45.5619287  35.5617356  76.9291639
  44.2853022  87.3484421  66.2039804  43.7112570  87.1860790  66.9525433
  45.1691771  87.3264408  66.5707493  37.4129319  62.5086737  73.2017994
  37.6026750  61.6689587  73.6202526  38.0582380  62.5768518  72.4981213
  47.7018309  98.2283783  68.1672001  47.2054100  98.5843563  68.9041376
  47.9019785  98.9899921  67.6230335  44.5622873  89.0155411  90.9138298
  43.9722538  89.7692013  90.9229183  44.8392630  88.9171982  91.8247890
  25.9063387  98.4974098  84.1331863  26.4588237  98.6739635  83.3717251
  25.0804758  98.9400864  83.9376926  43.6778927  84.4111824  89.6867275
  42.9731941  83.8652802  89.3379879  44.4768476  83.9169407  89.5033550
  41.2075710  99.6498966  62.8527737  40.5071688  99.2254829  63.3482885
  41.1522770 100.5724049  63.1020880  64.9708843  90.9015656  50.6856251
  65.4654980  90.1802635  50.2966261  65.2205896  90.8923149  51.6096354
 108.3773377  24.0150076  12.8711146 107.8632452  23.9835935  13.6779326
 108.3107498  24.9244123  12.5799388  78.7154722  61.3462496  67.6949787
  78.7893581  61.9158936  68.4606647  78.9027596  60.4693270  68.0298805
 101.4712241  21.5515142  22.5061625 101.6270544  22.1695858  23.2202643
 100.5182173  21.5155178  22.4242324  86.2426771   3.4960986  60.9653807
  85.4775442   3.9796210  61.2768507  85.8982195   2.6394129  60.7130527
  39.1150701  30.7533365   7.4004668  39.8898828  30.4216104   6.9467467
  38.5427559  31.0660177   6.6998118  78.7503041 105.3623776  13.7910003
  78.0861558 105.9310679  13.4014815  78.3405031 104.4976954  13.8158816
  52.0820951  92.0405293  93.8856697  51.7543507  92.0293713  92.9864025
  52.7152205  92.7582741  93.9009666   3.7283766  54.8933363  69.1696739
   3.0728215  54.2652607  69.4729805   4.2708191  54.3964338  68.5572386
  57.3585987  76.0632277  71.7943716  57.7057648  76.3913107  70.9648705
  57.0358610  75.1858664  71.5886641   6.4534652  60.7697487  87.4360275
   7.0915896  60.8757019  88.1415749   6.1500233  61.6587353  87.2520256
  43.3242226  84.7250462  51.4943981  43.5559988  84.5128345  52.3985386
  43.2910156  83.8776684  51.0504532  34.8079145  24.3514257  35.4809684
  35.6353605  24.7749239  35.2524585  34.3749368  24.2024761  34.6403903
  53.1994057  97.3787785  82.4829674  54.1512203  97.4050426  82.3850536
  52.8688574  97.2946739  81.5885925  15.5238378  21.9453436  25.3821200
  16.3308513  21.5275579  25.6828135  14.9999798  21.2269693  25.0275249
  56.7046070  62.5446177  58.1354427  57.5100660  62.0766497  57.9152727
  56.5259075  62.2997808  59.0433788   4.8564184  21.3810020  11.9503135
   4.3364036  21.2096887  11.1651534   4.2285526  21.3240486  12.6705665
  86.6831112  65.8797646  31.6865993  87.2407722  65.3550768  31.1121821
  87.1444035  65.8888388  32.5252628  75.5381203  73.3987808  67.7100897
  75.3614521  74.3298483  67.8447533  75.5729961  73.2967281  66.7589855
  99.2835869  13.3765650  87.0781326  99.9627985  12.9684401  87.6150990
  98.8022150  12.6403952  86.7005444  66.2441492  74.3143129  84.7490788
  65.6463385  73.9242458  84.1113472  65.9910870  73.9229727  85.5851650
  71.8683958  98.2412815  79.2604733  72.4937391  98.9601135  79.1685295
  71.0159016  98.6423111  79.0911674  55.2371168 100.0801659  44.7064877
  55.9636068 100.3166962  44.1298676  55.5477285 100.2987766  45.5851030
  72.3706007  94.7088051  79.6747017  71.4255047  94.7638893  79.5333052
  72.7489901  95.2395344  78.9737129  32.6526392  61.9268327  15.5334968
  31.8393028  61.9271188  16.0381812  33.3371485  62.0904165  16.1822814
  52.0535457  30.3464513   3.9176196  51.2905491  30.1276594   3.3826369
  52.1602905  29.5952230   4.5011443  11.9129312  16.4593177  23.4095401
  11.1133755  16.0203319  23.1192988  12.2930897  15.8627945  24.0544147
  80.9369469  76.2259722  74.7468662  81.4370441  75.9207535  73.9899158
  81.5988827  76.5591860  75.3527069  16.6826332   7.8491741   4.6664924
  17.1836269   7.5004249   5.4037971  17.3468721   8.1320053   4.0379828
  59.6224451  96.9469261  89.8118973  59.1529465  97.2099781  90.6034851
  59.6783876  97.7470875  89.2895508  59.0604496  65.3060913  93.3501530
  58.7941027  65.8603954  94.0836620  58.2397461  64.9537420  93.0058670
  72.0520258  79.1691446  82.1206951  71.4311123  79.6365976  82.6794243
  71.5920687  78.3682251  81.8692970  36.8130231 102.5272369  68.9920139
  37.2594380 101.8301105  68.5114336  37.1894479 103.3361435  68.6453152
   5.7184255  51.3409620  23.5284251   5.8731497  50.4412180  23.8160819
   5.6936395  51.8504530  24.3383807  66.5933180  81.0498142  83.1894588
  67.5056171  81.2197590  82.9547977  66.1025572  81.2273216  82.3870373
  91.3012981  68.9927864  76.5159845  90.4687023  68.6196280  76.2265587
  91.9644451  68.5108042  76.0218573  93.2868684  92.1192508   6.9484920
  93.5775865  92.3029785   7.8417796  92.9909671  91.2093286   6.9752902
  70.4150248  70.4077053  92.8995609  70.4812527  71.3125038  93.2048321
  69.5463657  70.1223373  93.1828022  63.2501507  64.6778440  90.8769608
  62.3536921  65.0112391  90.8389854  63.7479305  65.3769493  91.3008690
  60.6535864  76.6285706  75.8541012  61.4561796  76.1918116  75.5689383
  60.0013351  76.3833904  75.1978350 108.2373155   9.9751235  86.4584064
 107.5416387   9.9223853  87.1137524 108.0418743  10.7718802  85.9652328
  30.0692404  38.6195093  19.7524852  30.9663904  38.4836679  20.0572795
  30.1226127  38.5256773  18.8013858  29.7703016  29.0666490  10.1241130
  29.5372904  28.1906706   9.8165530  29.3281687  29.1493135  10.9690494
  27.7563322   6.9945341  11.4759654  27.2796190   7.7801805  11.2081260
  27.1126640   6.2892633  11.4088077  86.8708801  76.0908508  62.2515154
  86.3524246  76.2260008  63.0447197  87.7759171  76.0517168  62.5607014
  68.2104349  64.9358892  48.5479403  67.8591013  64.1163540  48.8960266
  69.1331816  64.7474098  48.3769131  37.5273597  48.8329702  32.1164531
  36.9238270  48.1562048  31.8099040  38.0491817  49.0555864  31.3455028
  17.0066059  29.7485262   6.1140174  17.5025881  30.0531488   6.8739146
  17.4463833  30.1497369   5.3644484  22.9947937  21.7919450  43.9773101
  22.2281826  21.5189415  44.4813079  22.6493347  21.9985157  43.1088561
  75.8869028  83.1622887  53.2598352  74.9579477  83.0436611  53.0618429
  76.1020470  82.4351692  53.8439941  73.5175991  87.5395775  86.3205147
  72.7136374  88.0545139  86.3891697  74.1393423  87.9887199  86.8931675
  13.2220554  93.7366486  89.1019154  12.4030936  93.5821724  88.6310959
  12.9744899  94.3010426  89.8343086  62.6348543  97.8462410  89.7957706
  63.4268427  98.3830738  89.8238945  62.2043562  98.0103207  90.6348038
  65.4310859   1.9322253  87.9803467  65.5858816   1.9513655  87.0359421
  64.6811928   1.3472129  88.0883408  50.2912700  50.8348375  19.5691222
  49.9697578  50.8105474  18.6678618  49.5556820  50.5198389  20.0944060
 114.3775381   0.3330851  71.8861103 115.2429403  -0.0304460  71.6986179
 114.3149580   1.1049319  71.3234711  91.4516891 108.6991696  16.8024272
  91.9841016 108.4802632  17.5671786  90.5494322 108.5641007  17.0921153
  51.4107656  70.3648090  80.8353043  50.8238506  70.8653498  80.2685356
  50.9645891  69.5275497  80.9624100 109.9219145   2.2578479  54.2575073
 109.2972721   1.8592787  54.8634815 109.3763364   2.6653052  53.5847902
  39.3434286  58.8686752  89.4345665  38.4199882  58.6522770  89.5636559
  39.3308520  59.6654129  88.9042091  52.3413181  66.3359070  61.8653202
  53.2219601  66.0939026  61.5787363  51.7667246  65.7038450  61.4333725
 115.0222113  24.2732244   3.0778808 114.4600823  24.6569067   3.7509555
 114.4219520  24.0366417   2.3708075 105.6471443  97.7747726  94.5309448
 106.2678337  98.3702087  94.9509907 106.0155582  96.9033146  94.6760845
  47.0261371  36.5001589   3.8221854  46.6254318  36.6620355   2.9681033
  46.7655838  37.2513014   4.3552226  49.1722059  79.4075108  91.5156364
  49.9570560  78.9530849  91.2094593  49.4841957  80.2731419  91.7794132
  15.3813494  32.1238619  22.5616473  14.4427574  31.9748979  22.4472636
  15.5109489  32.1181017  23.5100192  97.1966362  73.4144068  76.7337751
  97.6246929  73.0280209  77.4977827  97.9070473  73.5588074  76.1087084
  35.9991920  13.4652811  15.7915610  35.1245487  13.7708955  16.0320395
  35.9565866  12.5142961  15.8918017  84.0286732  84.9856853  68.0238008
  84.8608017  84.5949173  68.2904530  83.6176586  85.2571964  68.8445234
  55.6931973 102.6645660  38.2338667  55.7081461 102.4958324  39.1759586
  56.5693521 102.9952812  38.0358434  69.0736914  73.1276226  77.4457359
  69.5834112  73.8117552  77.0117092  69.5043802  72.3110962  77.1927166
  61.5123320  67.1803570  51.0552788  60.6698751  66.9992924  51.4720726
  61.9170284  67.8454399  51.6121578  69.6943283  91.4184952  78.4575701
  69.5394754  90.4914379  78.2764196  70.6312084  91.4724350  78.6461830
  34.3513096  42.3422819   6.7448157  34.0977419  43.1040006   7.2660941
  33.9854276  42.5133806   5.8770102  65.7715082  97.1748924  91.7727757
  66.2096357  97.8223515  91.2204361  65.8285522  97.5366497  92.6571465
  48.3907557  92.1852589  78.2783651  47.5404835  91.8478489  78.5601997
  48.3603525  92.1429729  77.3225832  47.3942364  39.1076475  25.1635760
  46.8891037  38.2955557  25.1238555  47.4604404  39.3933492  24.2524165
  29.8451972  87.4305916  68.8694763  30.1183558  87.6420784  69.7621632
  30.5714869  87.7260208  68.3204269  57.6012516  73.4964848  94.2231178
  56.9894695  74.1068554  93.8115406  57.8742361  73.9371157  95.0278282
  41.0108089 105.1070786  93.2907772  40.3774643 104.5264053  93.7125969
  40.5088139 105.5546474  92.6096725  58.7985611  82.8138065   8.2462096
  59.0319061  82.2299099   8.9679044  58.2428503  83.4814167   8.6483544
  78.6263752  65.6078196  58.9652777  78.9476824  66.5008116  58.8405752
  79.3850994  65.0528717  58.7847233  63.7295198 103.1207848  65.3983784
  63.4674263 102.8410435  64.5212936  64.6339798 103.4166336  65.2951336
  55.6672525  83.7424755  85.4038811  55.7206726  83.2388973  86.2161541
  56.5223598  84.1658497  85.3278732  44.7640228 102.7296066  95.1935101
  44.2943716 102.7756500  94.3607235  45.5943394 102.3053837  94.9770927
  17.9930139 108.2382870  93.9175415  18.5744905 107.5817680  93.5340214
  17.5192595 107.7673912  94.6031380 115.7651834  57.3347139  82.5151157
 116.0008515  58.2394314  82.7205086 114.8573123  57.2515774  82.8068161
  39.3984592   5.1536470   7.5519675  40.0072515   4.5447736   7.1337813
  38.5320556   4.8497062   7.2814101  28.2455230 100.2220249  86.5855980
  27.3079324 100.1209068  86.7496967  28.3039355 100.4367638  85.6546211
  61.2850666  92.8501511  89.3164062  62.1929646  92.6448441  89.0932369
  61.3241577  93.7285805  89.6946335   7.4504030  24.4432216  12.0134562
   8.3258093  24.8257499  12.0731944   6.9283760  25.1085573  11.5650672
  56.2605047  84.2972088  94.2942619  55.7260036  83.5154247  94.1551781
  55.8175755  84.9823475  93.7936306  32.8700388  40.1654821   7.4775714
  32.0935571  40.5818945   7.8516215  33.5150373  40.8703046   7.4189490
  74.0036011  84.8405457  86.8575954  73.7107515  85.7211208  86.6229534
  74.7613859  84.6821976  86.2946415  75.4019260  87.0284843  83.6980534
  75.6503344  87.6724911  83.0348873  74.9638510  87.5410748  84.3774414
  46.2211800  73.4063673  87.4153900  46.7191219  72.5950289  87.3153210
  45.4427576  73.1501913  87.9100227  65.2064657 104.4515133  52.1381712
  65.7815313 103.7600708  52.4659491  65.7974195 105.0730801  51.7131281
  65.3926134  97.7095032  83.1501389  65.1678324  96.7846680  83.0482483
  65.4797840  98.0349159  82.2541809  49.8714054  51.4662748  29.3048114
  49.2949188  51.8325334  29.9754352  50.6851757  51.2706857  29.7693080
  74.8645544  74.6761656  84.9411678  75.2979422  75.4568100  84.5962048
  74.5433998  74.2176676  84.1647243  43.4993505  94.5790100  68.3506155
  42.6660061  94.2098236  68.6429691  43.2934809  95.4862404  68.1252527
  60.8548832  79.2954826  66.0500097  60.5047703  79.4197226  65.1678467
  61.4415264  78.5432434  65.9711218  38.4631002  28.4223085  17.6515693
  37.7007711  28.2373815  17.1030349  38.9310730  27.5887209  17.7001780
  76.9672251  75.1311827  83.0174255  76.3647366  75.1363564  82.2736454
  77.0493937  74.2069817  83.2526684  56.3939333  76.1543655  63.5486174
  56.4859915  76.9360113  64.0933990  57.1957016  76.1306810  63.0262756
  64.8838949  94.7928810  72.3366499  64.1033936  95.1137352  71.8848658
  65.0133753  93.9090347  71.9927216   2.8307890  12.8659297  65.0823307
   2.7332377  12.4115039  64.2455482   3.6557173  13.3444644  65.0002670
   0.7588696   2.6203395  59.6830845   0.6510185   2.1609545  58.8502789
   0.9503674   3.5247088  59.4347143  49.8255539  53.4627342  87.9552174
  50.2954769  52.7531958  88.3933544  49.7700977  54.1555357  88.6133862
  36.3416422  22.2419744  18.5484332  36.0297573  21.7284685  19.2935962
  36.0749805  23.1394392  18.7476176  48.5966158  98.7703705  87.3972988
  47.9082203  99.4320011  87.3295593  49.3991899  99.2345333  87.1592712
  48.8794994  66.3165522  77.7113008  49.7627687  65.9524965  77.7707386
  48.9914894  67.2485638  77.8985023  83.8439941  93.9457893  95.2337933
  83.0236912  93.7521172  94.7801113  84.2832851  94.5844555  94.6722221
  29.8554754 101.7665768  90.1610851  30.6075144 101.3902092  89.7038937
  30.2084970 102.5337505  90.6116962  21.5293014  56.1447244  31.0702819
  20.8982265  55.4333025  31.1791915  22.2880352  55.8729940  31.5867251
  47.6947212  69.0551758  59.5291424  47.9986620  68.4902668  60.2395821
  47.8314972  68.5371017  58.7359715  27.3794830  38.2197481   1.9329185
  28.2144630  38.4293276   1.5144557  27.4951494  38.4861570   2.8449935
  74.4847059  98.4058380  60.7802677  74.2529297  99.3337631  60.7420301
  73.7865067  97.9644394  60.2966118  69.6939863   3.3124495  60.2934790
  69.3256558   4.0593386  60.7654190  69.9874867   3.6776591  59.4587851
  51.9826317  96.9027138  94.8989773  51.1202383  96.9968987  95.3034878
  51.7990446  96.5858078  94.0146065 104.5897974   2.4569083  66.4487791
 104.0677227   2.0694876  65.7462311 105.4740299   2.5137759  66.0866547
  64.0566063  77.6992416  70.9855127  63.8714504  78.5825777  71.3043594
  63.8218164  77.7253103  70.0579214   2.1982359  31.5077925  86.2494946
   3.0119585  31.1105967  86.5598488   1.5591835  30.7956076  86.2748814
  66.3367558  89.2213631  91.7754650  67.1875286  89.1491127  92.2081280
  65.7141924  89.3495274  92.4911594   7.3764694  40.2509599   7.3258990
   7.7984178  39.3956667   7.4075049   7.7224386  40.7596594   8.0592269
  15.5147589  35.4882246  10.6197852  14.9789608  34.7012335  10.5207938
  15.8826769  35.6385809   9.7490043  28.3191919 107.8930569  89.7176552
  28.8119125 108.6584377  89.4215870  28.8795972 107.1483612  89.4994736
  37.4444998  70.5176264  10.7579822  38.2975805  70.6762701  10.3538531
  37.6192701  70.5298811  11.6990108  46.3651836  49.4697195   2.7090854
  45.9920109  50.3488832   2.7727336  46.3538158  49.2719274   1.7726153
  87.5415993  79.9877357  75.0427485  87.8476810  80.0803375  75.9449530
  88.1217194  79.3299437  74.6593380  15.4293764  42.9647260   0.4537219
  15.9383524  42.1754366   0.6386489  14.5514047  42.6416021   0.2512759
  73.9566612  89.4721127  72.6160479  73.1394768  89.7014904  72.1735287
  73.6807823  89.1311359  73.4668493  23.6303400   8.1876708  54.9804068
  24.1780447   7.4549342  55.2620935  22.8968214   8.1886817  55.5953693
  41.6431320  18.1750541  36.2558001  41.9976032  18.1788307  35.3666610
  41.9687259  18.9857727  36.6469020  58.9082098  68.4755087  57.2098446
  58.9776182  68.6331701  58.1514168  58.0035782  68.1905270  57.0807648
  46.8275535  46.4557367  17.4496478  46.7577541  46.2235456  18.3756370
  46.8506420  45.6148248  16.9929522  51.1147118 106.4215565  86.9314098
  50.8932304 105.5719566  86.5501595  51.1630630 107.0150852  86.1819935
   5.2337050  18.6072398  90.0710487   5.2488493  19.2037059  90.8195305
   5.9777903  18.0226851  90.2155209  40.1973104  51.3846827  93.5070705
  40.9988594  51.8442106  93.2568932  39.6825957  51.3447714  92.7010250
  98.4627464  14.3916469  15.7630176  98.2537939  13.8676601  16.5363234
  98.8060620  13.7598329  15.1312083  75.3844976 102.3424435  58.8707590
  75.0418711 102.6434517  58.0291939  75.0916862 101.4335537  58.9373016
  82.8502941  94.7900963  49.2093992  83.5090923  94.2030239  48.8384914
  82.1979427  94.2051125  49.5947075  55.7953453  98.9368057  86.0082340
  55.4009342  98.0803394  85.8434963  56.3389921  99.1022873  85.2379799
   2.8279102  41.6900736  28.5843009   2.6420248  42.4352842  28.0130309
   3.2324875  42.0781236  29.3601722  64.5772791  75.7201433  81.9771290
  64.4826698  74.8806620  82.4271870  64.9145412  75.4909658  81.1111259
  60.4027700  72.0993757  59.2978477  60.1567459  73.0162668  59.1752863
  61.3596725  72.1090269  59.3197775  18.9334238  90.9252071  40.6654835
  18.4771216  90.6778622  41.4697456  18.2329297  91.1173820  40.0420952
  33.3272255  57.1613794  29.5551509  33.5298908  57.0017534  28.6333674
  34.1414154  57.5043874  29.9234694  97.6552486  83.2202053  70.1325989
  97.5622940  82.3325062  69.7867823  96.8743038  83.3506966  70.6705046
  68.2335567  86.8949413  88.1086349  67.3180437  86.7062759  88.3147240
  68.3994198  87.7466679  88.5127068  98.3144834  15.9218984   8.4754199
  98.6786535  16.1433130   7.6183337  99.0262916  16.0976940   9.0907687
  50.5642319  71.2677288  77.0928288  50.6755877  72.1359396  77.4801779
  50.9796762  71.3339758  76.2330341  52.0335579  94.6127415  73.2740927
  52.5356340  94.4101334  74.0634584  52.1324396  93.8372803  72.7217197
  35.8330464  83.4098721  65.4789734  36.2874031  84.2450905  65.3684521
  35.7987571  83.0374432  64.5978689  46.0899271   2.2786666  52.3139811
  45.4898692   2.8580237  52.7835655  45.5802025   1.4843417  52.1544170
  29.5479810  45.3067690  34.7131366  29.0818489  45.4419714  35.5381698
  29.3982065  46.1125189  34.2185992  53.4974384  93.6886597  89.8605633
  54.0452337  92.9750061  89.5336628  53.8218212  94.4666672  89.4070053
   7.1736216  26.7868281  66.0680485   7.8436731  26.1307765  66.2600327
   7.6361059  27.6233721  66.1183834  80.3283119 103.4048080  81.3916874
  79.9159718 102.8138161  82.0217133  80.5820942 104.1683674  81.9101429
  65.7443953  81.4162827  85.6625652  66.1074924  81.3419342  84.7800255
  65.4118824  80.5405140  85.8593178  87.2051048  82.9899406  74.8126221
  87.8998280  83.4966946  75.2330923  87.5255585  82.0880604  74.8248768
  70.1159477  96.1655807  79.1882420  70.7160378  96.8866634  78.9980984
  69.8914433  96.2780380  80.1119232 104.1228676  74.6018934  93.9839745
 103.5997009  75.3915310  94.1217804 103.6976719  74.1578865  93.2502842
  54.7565174  68.8909435  75.2532625  54.0780783  69.3275595  74.7381783
  54.5776415  67.9571581  75.1424360  94.5885181 104.8774719  85.5869675
  95.1338959 104.2854214  85.0690079  94.8328495 105.7527733  85.2863312
  45.7175350  57.4585104  73.7458134  44.8961735  57.0386505  74.0013599
  45.8993101  58.0787039  74.4518948  77.4930191 107.0755959  77.2609425
  76.7068577 106.7194748  76.8469810  77.2839642 107.9960537  77.4199390
  28.2845247  34.2084222  17.5860042  29.0725601  34.4738203  18.0601233
  28.6072481  33.8971048  16.7403239  23.0773592  96.6403389  82.9707909
  23.9387298  96.7605972  82.5710297  22.6493216  95.9816551  82.4238586
  47.9298401  79.6687794  71.8618822  48.3768606  78.8237429  71.9100571
  47.3833799  79.6957827  72.6473045   2.2097134 107.7821259  23.3042544
   1.8716597 106.9281678  23.5739058   2.3323177 108.2608991  24.1239947
  14.3353069  29.0162569   6.2867660  15.1012123  29.5852094   6.2098903
  13.7556350  29.2980104   5.5790729  13.4948324   9.9897052  58.7361813
  14.4446634  10.0752974  58.8181305  13.3058333   9.1060973  59.0520000
  90.1341152  97.9956532  64.5951509  89.3434715  97.5102234  64.3596125
  89.8228931  98.6973858  65.1669407  65.3792715  80.1151085  88.8532925
  65.2491808  79.4653130  88.1625938  66.0880518  80.6707191  88.5290146
  27.0589149   1.4218193  12.7050609  26.1466587   1.1620765  12.8337115
  27.5586975   0.6170421  12.8421229  76.4228296  69.4841909  85.0394440
  76.7569256  69.7202349  85.9048271  75.9060764  68.6926413  85.1899242
  42.0433128  42.2473818   0.7415885  41.6375149  43.1090074   0.8373565
  41.3152397  41.6613870   0.5348033  12.4758661  76.6106611   0.8137530
  13.4292639  76.6759496   0.8685130  12.2428358  75.9526067   1.4686507
  38.8347769  90.7711411  75.5235529  38.2894135  91.0128212  74.7749567
  39.4409442  91.5049458  75.6251192  94.1893196 102.4530125  71.9489813
  93.2323074 102.4511623  71.9300270  94.4181347 101.7521000  72.5593948
 101.2097836  74.9440289  54.2403650 100.6205559  75.6686354  54.0306377
 100.6852341  74.3594408  54.7874784  70.6012392  90.3145313  49.6195745
  70.0898075  90.6250858  50.3667164  71.1602926  91.0559464  49.3872261
 110.4616655  17.4883700  76.3180399 111.0073627  17.0027209  76.9365835
 110.9589637  17.4776316  75.5002308  75.9089804  75.9423542  75.2249146
  75.3051519  76.0923481  74.4975042  76.7232704  76.3645411  74.9512005
  62.6856697  20.5120569  18.0245418  63.0864227  20.1606422  17.2294730
  62.7341736  21.4620119  17.9174727  33.8016725 101.4478588  63.5437536
  33.6907005 101.1013794  62.6583910  33.6812592 102.3926258  63.4480619
  74.8216915  64.6572495  74.9116516  74.2643166  64.7451687  74.1384602
  75.0446796  63.7268686  74.9416256  48.6071777  65.3908110  83.1855774
  47.8549290  65.2232790  83.7532902  49.3365145  64.9453592  83.6167049
  86.0969461  95.2592235  20.0679416  85.3087629  95.0282960  19.5763415
  86.2755169  94.4902258  20.6092280  20.5151499  41.1565118   8.7676734
  21.4352310  41.4158350   8.8169784  20.5104912  40.4005914   8.1804866
  48.8888168  96.9501781  78.7157297  49.4450903  96.5676212  78.0371761
  48.3525133  96.2203121  79.0254259  39.4455803  45.7699972   6.5059108
  39.4833267  44.8256307   6.6574878  38.5570610  45.9258657   6.1858100
  75.6543827  98.6124134  94.4427490  75.7615805  98.9329243  93.5472012
  75.9599066  97.7058411  94.4108582  39.2359293  41.6583353   0.7556361
  38.9255417  41.2543016   1.5659732  38.8059128  41.1609274   0.0599975
  11.9976163  86.5863991  67.6017284  11.8300033  86.6091347  66.6595936
  12.3659384  85.7169247  67.7585602  42.7431774  82.7481556  94.2756939
  43.0816603  82.2163963  93.5553455  43.5232687  83.0237293  94.7570896
 113.7838914  25.5768591  18.7089652 114.1859486  24.9624592  18.0948848
 112.8519966  25.5578809  18.4911460  91.4626694  56.1086369  50.1167107
  91.7007732  55.1933241  50.2641344  91.4945984  56.5074730  50.9862757
  95.1871300  99.6220493  67.2134638  95.2319336 100.0675583  68.0594778
  94.2740250  99.7151661  66.9417953  96.5106167  19.5968009  93.7999821
  97.4322189  19.7024012  93.5639095  96.4643491  19.8746825  94.7147942
  62.4374771  89.0071583  80.6229782  63.3806849  89.0826702  80.7675171
  62.3460388  88.2709599  80.0181007  42.7824593  90.2614212  72.5363255
  43.1490326  91.0374260  72.1124458  42.3008823  89.8135662  71.8408155
  32.1141434  65.1594162  69.5536232  31.8526912  65.0702143  70.4700947
  31.3382387  64.8997688  69.0568447  21.9246710  36.0569387   1.8487567
  21.2441814  35.7687574   1.2403888  21.4471042  36.3176351   2.6362914
   4.8316801  31.0006624  23.2952041   4.6885050  31.7633253  23.8556403
   3.9812362  30.8411890  22.8858870 110.6497004  59.4862848   8.0842990
 110.0993850  58.7079149   7.9975051 110.8589818  59.7333151   7.1835155
   4.3450296  13.5133939   9.6017951   4.1794718  13.0163723  10.4029197
   3.9524973  12.9851156   8.9067573  78.2489204  96.3560772  65.2396536
  78.3985949  95.5338860  64.7729301  79.0956688  96.8018723  65.2170944
  76.5524387  89.3883896  64.9635220  75.9899092  89.8217964  65.6053591
  77.3904037  89.2807198  65.4134655  42.4662483  19.8451572  11.9685573
  42.0448482  19.4324260  12.7224177  43.4037960  19.7520166  12.1375293
  11.8805063  38.9332109   7.7452868  12.2093141  39.7961527   7.4933833
  12.3812473  38.3197599   7.2075385  93.4487560  45.2592378  34.0912265
  93.0151727  45.7525449  33.3948916  93.6649098  44.4176584  33.6896628
  93.5051537 106.5722084  52.6269960  93.3085918 105.8913517  53.2704496
  94.4186211 106.8038082  52.7948046  57.5010347  89.9035740  76.5924263
  56.8751335  89.7820282  77.3063660  57.4607420  90.8393955  76.3953066
 108.1393623  71.9781208  73.9368153 107.4969196  72.2964621  74.5709753
 108.2216167  71.0437536  74.1276646  74.5389891  86.1164951  69.1712618
  74.6943331  87.0401382  69.3687248  75.3854656  85.6944847  69.3182945
  63.9463711  79.5212412  65.8808756  64.8888731  79.5156097  66.0478926
  63.7001753  80.4450035  65.9286737   6.6956877  15.7460833  70.4265118
   6.9854235  15.8379317  71.3341713   6.4153170  14.8335982  70.3557682
  71.3733625  83.1805706  86.8631649  71.8484211  82.3659420  86.6990471
  72.0017433  83.7353420  87.3253441  32.4155760  84.8697186  70.4195356
  33.1203485  85.2111530  70.9699535  32.7990818  84.8179817  69.5440483
  76.9656265  40.6844812   1.2271422  77.4511040  39.8606115   1.2693233
  77.6080311  41.3534265   1.4639300  62.1733809  83.3071804  75.9904528
  62.1009779  82.5732136  76.6006088  63.1153727  83.4498692  75.8981371
  63.4099579  76.9767618  79.4898605  64.0857363  76.5881205  78.9344215
  62.7479410  77.2936773  78.8754225 106.9374657 101.5161133  92.8504372
 107.4932575 100.7375908  92.8855228 107.0194912 101.9083309  93.7197304
  58.3590031  96.4567089  85.7645512  58.7608385  96.0246372  86.5182590
  57.4655199  96.1141777  85.7403660  25.1639259  16.5248972  -0.1312524
  25.5391681  15.6892257   0.1463813  25.7409370  17.1856075   0.2518290
  75.4838133 103.2359982  53.3993053  75.6662273 102.9840183  52.4940634
  76.1990070 102.8491497  53.9043617  73.6143637  82.5665665  79.6920967
  72.9865456  81.8849468  79.9318123  73.6402655  82.5426579  78.7355471
  57.7357376  57.6459509  16.2966937  58.6080253  57.7857500  16.6652125
  57.8911007  57.4938970  15.3645057  33.4216166  96.7754078  85.0512218
  33.5761619  96.1548138  84.3390369  32.7271342  96.3731956  85.5729103
 107.8142179   6.0509158  81.2013721 107.5867571   5.8395339  82.1068001
 107.1292509   5.6339122  80.6787300  69.2501879  77.7890253  85.3089905
  69.6571636  78.5133553  85.7843208  69.8183775  77.6505423  84.5512199
  19.6430052  16.9071966   4.7998065  19.5950783  17.2193771   5.7033938
  19.5072973  17.6913839   4.2679614  87.1745300  84.8091412  89.5052624
  87.4884224  83.9303589  89.2920685  86.7939568  84.7220516  90.3792191
  98.2035353  83.8487631   1.3548488  97.3445728  83.9114481   0.9371299
  98.7507107  84.4677168   0.8713931  89.3807697  79.8355484  37.2439766
  90.2256680  79.7413635  36.8040776  88.7715149  80.0715637  36.5444446
  80.1535023  58.4398943  19.1938704  79.5537174  57.8422647  18.7474174
  79.6627701  58.7463575  19.9564284  65.7033634  87.8825855  61.9463205
  66.3913107  87.9158974  61.2816048  65.1881504  88.6754990  61.7977381
  35.1354730  37.2009569   4.5506209  34.4501865  37.6102644   4.0223426
  34.9216545  37.4450975   5.4511184  51.8098640 102.3795033  59.9562168
  52.6864862 102.6372528  59.6710348  51.7369795 102.7231026  60.8466434
  74.9436331  85.6050301  62.8437614  73.9933634  85.4960918  62.8806019
  75.0720739  86.4320469  62.3792553 106.3009561  13.9639331  58.5069513
 106.7218603  13.8292170  59.3560219 105.6066431  14.5991946  58.6819220
  64.4247627  69.7202873  85.8081722  65.3111982  69.6085739  86.1516666
  64.5510054  70.0982332  84.9378586  25.1143587  43.2695776   1.7942924
  24.7420442  43.4153658   2.6639766  25.5372179  44.0992075   1.5726298
  94.5396271  66.3078409   3.6804408  95.4634716  66.4194780   3.9046782
  94.5463958  65.7282930   2.9186648  90.9461498  89.9726486  80.6881332
  90.4491520  89.9560356  79.8702383  90.3979015  89.4958496  81.3112736
 103.2494558   8.6081267  75.8570099 103.6146082   9.0115214  75.0695038
 103.9732135   8.1000949  76.2234974 115.1281418  22.1062136  74.4088364
 115.6605734  22.7212764  74.9132633 115.7338537  21.4042617  74.1709089
  50.1692951  78.2821184   9.6751040  50.0903690  78.9790636   9.0237445
  51.1125553  78.1550413   9.7768039  39.6782100  27.8082853  12.0740336
  39.0423000  28.0804163  12.7356929  39.3644464  28.2066065  11.2621612
 110.3502083  58.8580322  94.4387245 110.4097176  58.1617308  95.0928402
 109.4848728  59.2431736  94.5769501  62.8778696 101.2653446  76.7573929
  63.3317041 100.5937672  76.2482262  62.7506399 101.9873524  76.1419582
  50.1820648  40.3796392  21.9873446  50.4599941  39.4641309  22.0160884
  50.8661163  40.8525949  22.4612826  22.6488817  67.1448236  18.0765361
  23.4401405  66.6132742  18.1637115  22.2446621  66.8411165  17.2637671
  78.1651354  92.6341057  69.6125317  78.0073786  93.2135773  68.8671732
  79.1136026  92.5052547  69.6191931  32.6883161  59.4973093   0.4468554
  32.3732031  60.3024774   0.8575171  33.2759083  59.1112428   1.0964126
   5.1651657  33.5628324   0.7665462   5.7459867  34.2379289   1.1174411
   4.3746698  33.6246305   1.3027591  71.9997871  68.3659940  14.8080462
  71.4971149  67.6308065  15.1588458  72.4283302  68.7498575  15.5730552
  65.6285656  62.0142751   7.5901336  66.3675487  61.8308931   7.0100421
  66.0109222  62.0298391   8.4675139  81.5203667  90.9383869  72.7843618
  80.7406998  90.4050064  72.9388332  81.5776825  91.5068340  73.5523510
  99.9956287  22.3355532  71.3202286 100.0840725  21.4907981  71.7615938
 100.7629169  22.3896075  70.7505083  35.5992985  87.3608685  80.8701611
  36.2187719  88.0489922  80.6273270  35.9984779  86.9363308  81.6295433
   2.1442150  12.4568320  56.2060261   1.5544771  13.1028033  56.5948248
   2.5559115  12.0266867  56.9555044 110.1674557  63.7127924  90.8892727
 109.4481087  64.3230391  90.7268715 110.8124161  63.9171696  90.2121639
  41.0053015  71.5066910  72.4935293  40.5140734  71.4195156  71.6766310
  40.3384447  71.4691210  73.1791878  73.7528181  98.0561543  53.9171839
  72.9293013  98.2146835  53.4557486  74.3737602  98.6631107  53.5143614
  11.5942072  -0.0152635  91.3314342  12.3872351  -0.5472802  91.2658310
  11.8956732   0.8213473  91.6856194  99.7046961   8.2012892  90.5742645
 100.1039470   8.3727790  91.4271545  99.0724624   8.9106322  90.4587841
  61.0939491  84.0091711   9.7694129  60.9147251  84.6960550   9.1273040
  60.3105057  83.9845758  10.3188151  96.1082745  53.7497950  67.7220249
  96.1882114  54.6882153  67.5511217  95.7604122  53.3867836  66.9075012
  86.8688978   8.7702895  21.5824389  87.4125160   8.2634688  22.1856284
  86.0108150   8.8053561  22.0051599  63.5709083  18.1144577  30.3824920
  62.8123749  17.9789739  29.8145884  63.8718212  17.2309929  30.5950278
  80.9414972   1.5758181  62.4471188  81.8023885   1.1999369  62.2632456
  80.3585399   1.1619330  61.8106461  53.1176805 101.5948391  84.1382027
  53.7006044 101.1115265  83.5526848  52.7457619 100.9252167  84.7122383
  33.5358763  79.2120266  76.3208151  33.4626794  80.1657391  76.2847424
  34.0546918  78.9823008  75.5499172  65.1609791  37.6905447  14.6991748
  65.1445568  36.9320207  15.2827853  65.2190006  37.3154264  13.8204497
  63.8355625  55.7020765  22.1452350  64.4186867  56.4611250  22.1374816
  64.2105568  55.1186948  22.8049869  73.5897779  67.3141146  74.2848063
  73.8853359  68.2230711  74.3364716  74.1371489  66.8479872  74.9167395
  24.8766029  50.9577852  22.2075480  25.3633249  51.7230230  22.5137347
  24.0077770  51.2969404  21.9922656  41.2007606  79.1007143  12.9404658
  40.6453359  78.4117037  13.3051509  40.7169998  79.4203096  12.1788520
  12.7067745  46.7309099  15.5811042  13.0994737  46.0611063  15.0212974
  12.4858225  46.2681394  16.3893432  75.1733245  15.0022174  63.3634281
  75.0324382  14.3905402  62.6407719  74.6411146  15.7653666  63.1384850
  28.7486815  27.9159404  73.9187002  29.4544672  27.5295115  73.4002686
  28.1945681  28.3591223  73.2762241  88.0934525  70.0856829  34.7409081
  88.3047581  70.9864950  34.9860978  87.3540020  69.8519135  35.3019714
  27.9944313  48.6576944   8.8714427  28.0734432  47.8574854   9.3907279
  28.8894737  48.8521009   8.5933513  79.7337198  69.6195889  93.1464958
  80.5418396  69.2076349  93.4522343  79.6873188  69.3953323  92.2170925
  36.5385508  24.6133090  63.0865526  37.0455145  24.3769599  62.3097897
  37.1807264  24.6284247  63.7962151  34.8466003  50.6558614  23.0981654
  35.5855358  51.2635236  23.1290072  34.0917623  51.2069708  22.8914660
  30.9723687  89.4719601  83.9573860  30.3869319  90.0383377  83.4546852
  31.0104942  88.6591530  83.4532833 109.7963155   8.7822295  70.4271460
 109.5393146   7.8623343  70.3640938 109.3421949   9.2081595  69.7001076
  71.3160610  98.2011890  88.0810738  71.4114475  99.0725708  88.4655762
  72.2134876  97.8827286  87.9838943   6.7460608   1.4862681  66.5735722
   5.8001589   1.4545203  66.4303970   6.8479799   1.9672919  67.3948240
 114.1856779   4.6431876  85.0529766 113.6042274   4.6605826  84.2928123
 113.8699974   3.9085913  85.5792236  99.8084023  37.1079450  46.6347140
 100.2433755  36.2574201  46.6950053  99.8568227  37.4651151  47.5214595
  70.1077068  68.0779463   6.2693614  70.7604015  67.6218801   5.7381076
  69.3112171  67.5564295   6.1700553  30.2645767  44.6197229  17.3736876
  29.5395601  44.6041685  16.7489261  30.9647548  44.1317373  16.9402713
  59.6813583 104.8028660  88.9200878  60.2997303 104.4040680  89.5322990
  59.8691177 105.7403183  88.9666271  28.8022316  40.8532530   9.0121955
  28.7120188  39.9846845   9.4042129  28.6270368  40.7152658   8.0813426
  22.1585167  61.8326955  10.0413054  22.1220911  62.3829084   9.2588824
  22.7080381  61.0912424   9.7873229  79.6561623  97.6812267  77.1973848
  79.4411039  98.0975723  78.0320311  79.0465689  96.9461155  77.1323252
  99.4774818  66.9290400  61.7968512  99.6106911  65.9851789  61.7096376
  98.5288429  67.0433283  61.7397356  41.6261089  51.5319830   2.7915019
  41.7934311  52.4744230   2.7986640  41.8953979  51.2475496   1.9181079
  98.5787309   4.4305850  72.2643185  97.9039158   4.4897319  71.5880394
  98.0909504   4.3185950  73.0802584 104.8067535  39.4111491  90.8728123
 104.5864214  38.6479331  90.3387737 105.6550230  39.7013140  90.5374527
  61.8540478  92.3705292  86.5647316  61.9396830  93.1004143  87.1780586
  62.6109934  92.4548149  85.9849358  92.9976762  14.2199279  50.6903362
  92.4466385  14.1721106  49.9091196  93.7961496  13.7502528  50.4493475
  25.4921282  26.0936456   8.3691138  25.5850113  26.8083578   7.7392024
  25.1271856  26.5089613   9.1504973  94.8066521 103.9143944  88.2290077
  95.4886627 104.4996548  88.5584927  94.7510624 104.1135979  87.2944164
 113.0673279   4.3149138  63.3825111 113.2607378   4.0251685  62.4909544
 113.1335510   5.2690459  63.3439350  97.6007045  23.0353976  71.5220594
  97.1811641  22.5489951  70.8123922  98.5050501  22.7217532  71.5254545
 104.1690063  94.3023109  83.5986042 103.6542988  94.4834518  82.8121567
 103.8092422  93.4822464  83.9366913  56.7201281 103.4973431  92.7314663
  57.4665165 103.1807613  92.2226334  55.9776354 102.9847336  92.4118233
  93.1339073  81.8060112  52.4017191  93.5167885  81.6510296  51.5382290
  92.5107288  81.0890770  52.5195789  49.9793709  32.7417665  25.7308597
  50.5850399  32.3010164  26.3267821  49.7340572  32.0677858  25.0969905
 103.2607902  17.3230696  50.5911922 103.5574878  16.7052508  49.9229813
 103.5894073  16.9616461  51.4143658 107.8949356  97.4792480  80.7633495
 107.2132492  97.4961662  80.0916004 107.4707508  97.0843124  81.5251446
  24.4932592  60.1884275   9.1652888  24.0119589  60.1104551   8.3415812
  25.0326860  59.3986040   9.2031783  93.2428455  97.6680374  30.9935164
  92.8020000  98.4300518  30.6177306  92.8785133  97.5912666  31.8753338
 109.4055176  87.3393250  88.4615135 109.1875076  86.4074707  88.4426117
 108.8638687  87.6978207  89.1645908  69.7298956  85.2891541  73.9897346
  69.5111513  85.6593895  73.1345701  69.8697138  84.3577671  73.8188219
  76.7764378  96.5083122  93.2495880  77.7334404  96.4892483  93.2464981
  76.5254116  96.0639191  92.4398136 108.3516325  10.9521151  68.3639717
 108.3892168  10.9306575  67.4077511 109.1157354  11.4675761  68.6221933
  41.7533112  99.2970943  79.1367960  41.9839716  98.9467239  79.9971867
  40.9778452  98.8002777  78.8759136  44.7757137  46.3170248   7.4903983
  44.2724216  47.1311575   7.5012893  44.1289699  45.6381994   7.2976607
  66.7289495  99.1221046  53.6736870  67.5874615  99.2333031  54.0821314
  66.2935305  98.4581852  54.2083406  79.2601122   0.0329638  79.0429068
  79.0443004   0.9210158  78.7582684  79.1450275   0.0513507  79.9929857
  16.3417948  71.0389143   2.1063346  16.3706148  70.2038866   2.5733775
  17.0079410  71.5762239   2.5350112  70.5996121   5.3640891  63.3197689
  69.8499025   5.9283400  63.5089350  70.7504595   4.8850299  64.1346216
  18.1498707  21.0486608   6.9288844  18.6053598  21.3659435   6.1490745
  17.6242578  20.3122955   6.6162604  45.7117164  72.4198824   3.8146323
  44.8452270  72.0379453   3.6747951  45.6358993  72.8876596   4.6462935
  92.9756654  36.7156649  62.6344061  92.5184406  37.0125247  61.8476057
  93.5981668  37.4164344  62.8284407  30.6051815  11.0054975   6.0653991
  30.9202612  10.5020624   6.8160743  29.7166670  11.2662798   6.3078231
  20.0015342  74.2719560  10.7871932  19.9469936  73.5513311  11.4148540
  19.0982569  74.5731836  10.6892795  69.6158970  80.6949621  18.2570571
  69.2236889  80.0888544  17.6285285  69.7050464  81.5164858  17.7739543
   3.6110758   6.4294005  87.8167820   3.8502955   6.9111586  87.0250034
   3.1786036   5.6386138  87.4945068  10.6532740  12.8677035  79.9402380
  10.4674219  12.3770953  79.1396189  11.0949492  12.2379637  80.5099583
  49.0484798  68.5394674   6.1436099  49.6514976  68.4701067   5.4034823
  48.3001220  67.9971414   5.8944625  83.8933182  98.4791756  73.5958719
  84.2095089  97.6590538  73.9748812  84.5645714  98.7229824  72.9585314
  41.9836319  38.6708551   8.8769835  41.8221462  37.8204256   9.2855376
  41.7306316  39.3089586   9.5440978  33.9279722  11.3005400  72.7954912
  34.7085165  10.7593871  72.6765680  33.1966375  10.7061721  72.6278353
   4.8220432  64.8134332   4.3873519   4.7763860  63.9717107   3.9338607
   4.5897711  64.6102338   5.2934379  66.8506289 102.5364685  55.2303743
  66.9851351 102.1661568  54.3580151  67.3202133 101.9437218  55.8171988
  39.1115832  80.0776958  65.6354523  38.2602262  80.1024628  66.0722733
  38.9050221  80.1523685  64.7037935   9.6208548  18.0629588  87.8500938
   8.7662577  17.8534461  87.4732494   9.9346232  17.2326995  88.2084846
  76.0128164 105.7186127  44.5893145  76.5407658 105.4082775  45.3249741
  75.2970266 106.2061214  44.9970102 107.2474575  92.8828049  93.6239719
 107.0346928  93.4985542  94.3252754 106.3994789  92.5429344  93.3382225
  57.2226417  43.8710790  24.3798083  58.0257786  43.3985906  24.1608066
  57.1751488  43.8327890  25.3350657  27.0740259  54.8822122   8.6805743
  26.6899431  54.0172868   8.5369605  27.2856987  55.1990801   7.8024882
  84.0717697  90.8198833  63.7111807  83.6374664  90.8095074  62.8582430
  84.6713352  90.0742340  63.6837530  91.8270874  99.6697617  92.0814419
  92.7585030  99.5369625  92.2577286  91.3803482  99.1659164  92.7617264
  25.5643070  65.8797460  24.2363090  25.7874477  64.9574285  24.3618602
  24.6073187  65.8979612  24.2449492  45.9942043  35.6358247  22.2694510
  46.4706314  34.9128442  21.8613452  45.7325542  36.1938959  21.5371055
  63.1102169  64.5744234  20.4677123  63.3675182  65.4600244  20.7241363
  62.9272640  64.1291528  21.2950534  76.3806581 102.2884941  50.9006548
  77.2845602 102.1742439  51.1941576  76.4480066 102.3885918  49.9510860
  16.8561815   8.4596492  84.0528393  16.9249891   8.1095172  84.9410439
  16.4089083   9.2990828  84.1602802  86.2332535  86.5558815  86.9926548
  86.0417080  85.8131790  87.5653172  87.1635151  86.4654064  86.7861366
 101.5349770  61.1643314  86.0325241 101.5525436  61.4758253  86.9374561
 101.7652225  60.2372599  86.0938263  82.7544607   0.2862883  83.9578056
  83.5053838  -0.2676915  84.1710091  82.6564373   0.8597708  84.7178936
  25.8755195  45.2434450  27.0001430  25.7528389  44.5699125  27.6691169
  25.7690609  44.7787862  26.1700934 112.6110471   0.7189322  80.6370735
 112.9675020  -0.1063871  80.9657478 113.0901636   0.8799315  79.8242092
  39.2291820  39.7359090  13.1619853  39.1038740  39.2092901  13.9514178
  38.5333431  39.4497686  12.5702399   7.7589201   2.1655322  59.2007637
   7.5815653   2.3759795  60.1175451   8.5576414   1.6386176  59.2261600
   4.1844738  21.5129142   3.8686961   3.6818302  22.2259098   3.4747237
   4.7357357  21.9416910   4.5232886  92.2653354   0.4129458  76.3430643
  91.6596140   0.4213477  77.0841837  91.7357410   0.1130057  75.6042814
  43.1661272  96.8915272  80.9442043  42.8666639  97.6454639  81.4522839
  43.9413548  96.5803909  81.4115906  63.8672889   2.8662062  55.6697130
  63.5921611   2.7615119  56.5805244  64.2878736   2.0350314  55.4495096
  57.3969078  94.4008446  68.0773592  57.9920530  95.0862217  67.7735615
  57.1589136  94.6667004  68.9655638 106.7188861  30.2153021  22.8327197
 106.6185214  30.8622747  23.5309905 105.8231785  30.0161367  22.5601882
  49.4006920  89.1900635  87.8729820  48.4987164  88.9643574  87.6455402
  49.8514843  89.2528820  87.0309162  19.5201563   7.1306563  83.1336498
  18.6494993   7.2879077  82.7683353  19.4154524   6.3472224  83.6735535
  49.7341014   2.6796967  35.5756396  49.4949342   2.6308876  34.6500892
  50.4559757   2.0581681  35.6695861  55.5409241 104.4176769  56.6377306
  56.1881781 103.7541962  56.8766785  55.9473038 104.9004650  55.9180021
 111.1605313  25.0579029  12.9182643 111.6052248  24.2433220  12.6838702
 110.2425792  24.9021297  12.6961631  41.3188923  61.0511308   1.2415904
  41.6171730  61.9415575   1.4270896  42.0192325  60.6692701   0.7125110
  71.6913414  88.8358784  91.1023617  71.8564749  88.1366253  90.4698944
  70.9702921  89.3375111  90.7219887  33.8065994  79.1321855  14.9296683
  34.7610319  79.2004018  14.9549693  33.6128319  78.8087183  14.0498656
 107.0351982 101.2646961  64.6484423 106.8142700 101.5867043  65.5223560
 107.1527004 100.3217030  64.7632694  34.1234291  53.4309393   1.5833682
  33.7115848  52.9298788   2.2873229  33.3912361  53.8297945   1.1132258
   8.1099772  39.4999171  62.2754955   8.1558966  38.5438300  62.2716904
   7.2442984  39.6995497  61.9191408  14.4514250   6.4720107  56.3934851
  14.0480017   5.6573344  56.0938549  14.4256186   7.0473910  55.6289577
  81.9563759  56.7461496  15.3274459  81.9232071  56.2351041  16.1361331
  81.0388077  56.8702799  15.0847644  37.6008010 105.7767296  77.4298239
  37.8774524 105.7642174  78.3460855  37.6653409 104.8643398  77.1476650
  88.3705139  81.2029457  94.6889782  87.4578381  81.3792706  94.9173641
  88.4563923  80.2524185  94.7621536  66.5639675  72.7854829  13.5957641
  65.9914863  73.4903627  13.8984984  66.1040771  71.9821172  13.8393516
  30.0424421  39.4503980   0.1012057  29.9027670  40.2918440  -0.3331834
  30.4076517  39.6797090   0.9557647  71.6320980  35.2643018  13.4455699
  71.1010254  35.8413129  12.8967017  72.3188579  35.8318906  13.7954730
  14.7615564  98.1656748  23.6997813  15.2504480  98.7082678  24.3184966
  14.5918024  97.3529440  24.1761130 116.3770307  46.8212653  87.9667568
 115.8099617  46.1024428  88.2459736 116.2475551  47.4997473  88.6294270
   5.4583525  29.6448851  95.0303841   5.3656458  29.5179797  94.0861797
   4.5887732  29.4573642  95.3837872  12.5324415  15.5740405  84.8999977
  12.3365950  15.1759196  84.0518379  12.1710466  14.9619437  85.5410671
   1.8691910  34.4624048  18.2552833   1.4937675  35.3081232  18.0102366
   1.1359585  33.8496404  18.1993884  74.7686481  96.3336849  73.0129862
  74.3767691  96.8094349  73.7453318  75.1452637  95.5489635  73.4112310
  25.7052887  70.0489622  12.4576777  26.4377439  70.1913553  13.0572337
  25.0392616  70.6757646  12.7400893  95.2141679   1.0277987  72.6785326
  96.0824646   1.0721255  72.2781229  94.9820579   0.0997687  72.6450253
  99.9456787  95.6636715  72.3837185  99.8751831  96.4724064  72.8908777
 100.6844902  95.8143520  71.7940712  32.5008749   3.7162543  38.9985013
  33.4490084   3.8239337  38.9231038  32.3908972   2.9408789  39.5488882
 104.9286175  80.4983425  84.6863365 105.7616806  80.4771042  84.2153931
 104.6946430  79.5772648  84.8008156 100.6494999 104.8517799  68.2141495
 101.4891434 105.3103733  68.1839561 100.8525467 103.9612579  67.9278183
  88.3408260  90.9440422  84.6004295  88.1360340  91.3287354  83.7481976
  87.6506519  90.2962780  84.7428894  80.7928371  92.5283241  70.7193947
  80.9800053  91.9323158  71.4446306  81.4179420  92.2804070  70.0382042
  56.0982597  75.2622896   2.0300502  56.5438259  74.4467645   1.8006629
  56.2452114  75.3590494   2.9709357 104.7091866  89.7385120  75.7627821
 105.0901794  88.9532471  75.3698063 103.7674141  89.6454430  75.6191206
 109.3983043  32.6373625  88.8890839 108.9420284  33.2174922  89.4985771
 109.3260158  31.7690230  89.2853260  13.3243631  17.7461577  88.5202980
  14.1250490  18.0991412  88.9082909  13.6195253  16.9986678  88.0003357
  27.7230394  52.6962381  28.0712050  26.9388950  53.2371336  28.1649226
  27.4207247  51.8043905  28.2427901  92.3574543  94.9327278  68.6466551
  92.3603535  94.0857124  69.0925217  92.4882603  95.5723286  69.3466759
  86.1476803 100.3161335  37.0823932  86.9334984 100.6372356  37.5246644
  86.4676285  99.9619198  36.2526989 104.7249712   7.5059558  90.8310223
 104.0394033   7.4102927  91.4921379 105.5273689   7.2350360  91.2771130
  28.4583843  56.9397360   2.8740996  27.9569328  57.6257425   2.4334544
  28.4092891  56.1892896   2.2819442  79.6139097 109.4905186  80.4537487
  79.2422152 109.5604801  81.3330555  80.5312347 109.7420979  80.5607700
  21.8967521  32.4789720  20.6370276  21.3994205  32.8037935  21.3876170
  21.2360561  32.3184877  19.9632663  17.8653991  36.8751245   5.6562919
  17.1311844  36.2868219   5.4800910  18.2075775  36.5845781   6.5017146
  69.6886253  78.7686110  89.0905571  70.3429604  79.4037819  89.3814754
  69.0543032  79.2876148  88.5960865  75.1183891 100.7525158  64.0009212
  75.2033329  99.8563957  64.3264914  75.8527708 100.8582401  63.3961582
  98.1741238 101.5390301  64.7121191  97.3380184 101.0894394  64.5895624
  98.8084507 100.8339882  64.8416567  47.4997986  78.3654409   9.8882503
  48.3422745  78.6204343   9.5121688  47.1796882  79.1583734  10.3183860
  81.1327934  76.9217682  85.7405567  80.6480980  76.1136341  85.9085464
  82.0528889  76.6702080  85.8203888  40.0025785  90.2663236   3.6222190
  39.8007000  90.9485727   2.9818839  39.1503799  90.0067812   3.9723987
  37.0224524 101.5095139  93.6548710  36.4536381 101.6212463  94.4165802
  37.8682661 101.2539482  94.0229988  88.0005169  75.4974985  83.9092159
  87.2610855  74.9340963  84.1373539  87.6955414  75.9983206  83.1526470
  98.6904907  84.8210621  65.7481813  98.0454445  85.5167961  65.6213331
  98.5221291  84.4967365  66.6328859 105.1995087 102.3405838  78.5108662
 105.5411148 102.7374935  79.3121099 105.3785229 102.9871559  77.8281260
  43.1360042  61.1496072  22.5626201  43.1573284  60.5179315  23.2814712
  42.4805916  60.8020597  21.9577426 101.0774482   4.8659850  64.3073130
 101.6540207   5.3781558  64.8742962 101.2246622   5.2224494  63.4312487
  92.3676395  96.2735653  63.6398315  92.4133587  95.5769634  64.2947245
  91.7838287  96.9268322  64.0253830  72.7591503  64.4709020  -0.1042729
  73.1339729  65.0421529   0.5661124  71.8130672  64.5861822  -0.0155145
  99.7072792  83.8735580  59.3688726  99.4043064  82.9869080  59.1731691
  98.9329052  84.4232368  59.2487955  27.4223459  34.1929918   3.7734241
  28.0776632  34.7333818   3.3320827  27.2098768  34.6777635   4.5709723
  17.7494562  53.6566740  23.7080687  17.3302686  53.9761453  24.5070952
  18.2147300  54.4177538  23.3609313  43.5265064  86.5300369  78.8166857
  44.3936110  86.5778446  78.4141111  43.6535931  85.9883404  79.5955658
   5.2928328  25.6139994  89.3876266   5.7602476  25.6558848  90.2218914
   5.3870844  24.7041274  89.1056919  77.7354574 103.2581997  78.7324429
  77.8513336 104.1611767  78.4367418  76.8403721 103.0354118  78.4766769
  58.8894928  61.6848379   5.2020473  59.4669616  62.3042875   5.6481952
  58.0164230  61.8859583   5.5389995  90.3927517  80.9664726  60.4771090
  90.2491188  81.5243912  61.2415266  90.0325108  80.1164436  60.7299137
  64.8047245  48.9251142  15.0872249  65.4489887  48.8257604  14.3863029
  64.6033180  48.0288416  15.3562278  73.0619812  67.9844475  79.1160297
  73.0046654  68.1548595  80.0561905  72.2576332  67.5084543  78.9094210
  59.4778585  90.8491421  85.6262112  60.1682901  91.3722134  86.0335541
  59.3152761  91.2792301  84.7866821  96.0028076 107.1379089  73.3096838
  95.1469517 106.9771671  72.9123211  96.5962029 106.5452671  72.8482866
  37.8850245  21.9693995  53.4659624  37.2123026  21.3447333  53.7370205
  38.6028170  21.8315936  54.0840292  73.0220878  12.1285015   1.6674441
  73.3425319  11.7635446   0.8426112  72.5606907  11.4025407   2.0873469
  18.5844362  31.2578874   4.0576762  19.1948116  31.9950872   4.0726298
  18.8204706  30.7674509   3.2702846  93.3789171  32.7211619  80.5038452
  93.2565225  32.1825171  81.2855911  92.6733268  32.4529124  79.9152756
  53.0590046  59.8170095  20.2009791  52.7288234  59.1908270  20.8452624
  53.0513275  59.3358331  19.3735522  17.3404110  66.7613607   5.3363151
  16.8462789  66.7842298   6.1557883  16.8762720  66.1232191   4.7944850
  17.4985003  19.3207408  62.1450806  16.8424677  18.9492369  62.7348566
  17.7676176  18.5864497  61.5931606  46.5761459  68.1805616   4.2959899
  46.5169323  67.2855383   3.9618319  45.8725918  68.2420259   4.9421138
  42.4381721  76.7571073   0.6508559  43.3784473  76.8117338   0.8214969
  42.2317589  75.8269315   0.7425040  58.6370707  98.7939739  91.7276001
  59.5790720  98.9636230  91.7367649  58.2588530  99.5654964  91.3057804
 107.2546877  17.2352458  90.3786945 106.4555706  16.7724848  90.6306839
 107.7511705  16.5954352  89.8684216 105.9220028 100.6962395  81.9684887
 105.8512688 100.1419258  82.7456379 106.8546867 100.6891823  81.7533493
  89.5347977 101.9897747  68.3120155  89.5623875 101.3938904  69.0606117
  89.2591572 102.8279591  68.6831045 104.1869068  86.9005871  77.1763182
 103.7493896  87.6452255  77.5890064 105.0066566  86.8055725  77.6613140
 105.6931747  10.3984214  77.5049782 105.8095802  10.2317572  76.5696144
 104.9349321  10.9807349  77.5519609 107.0001424  13.8606406  93.7786961
 107.1659292  13.0827094  94.3112087 107.4589027  13.6900378  92.9561043
   0.9173845  12.1324111  75.0768900   1.7550253  12.3983050  75.4562140
   0.3648304  12.9108763  75.1469851  96.2945843 106.3545895  88.2617855
  95.7708645 107.1416664  88.1119442  96.8724728 106.3028908  87.5004673
 106.7699242 106.6367435  77.7240229 107.1640778 106.8966389  76.8913603
 105.8700085 106.9590569  77.6739693  95.6990339   2.6140267   1.0592765
  94.7949411   2.4937874   1.3497657  96.0700990   1.7316681   1.0597056
 102.1969604  93.8227844  89.1285133 102.7338982  93.4657669  89.8359585
 101.2973881  93.6189365  89.3843269  21.6058611  10.7398558  93.3432293
  20.9911322  10.4037238  93.9954185  21.9653009  11.5335608  93.7395573
  42.9325092  42.9730611  13.0708713  42.7905929  42.8495889  14.0094012
  43.3802498  42.1752458  12.7893466  67.6899767  99.5721149  90.7586193
  68.4710503 100.1140404  90.8702755  67.3190594  99.8558140  89.9230576
  19.0577162  28.3307462  10.1776427  19.6182955  28.2809072   9.4033736
  18.2330406  27.9302316   9.9024600  19.1502464  69.8111349   7.4828261
  18.8559902  70.1794344   8.3158893  19.5632398  68.9809709   7.7205104
  42.4006355  51.5473371  25.9228820  43.0101955  52.2783571  26.0242385
  42.2019470  51.5291982  24.9867076  45.7290733  51.7941480   4.1131419
  45.7875335  51.5168195   5.0274199  44.8678768  52.2059351   4.0423602
  11.0191511  43.3506346  77.0050097  11.6968321  44.0170527  76.8915462
  11.4730619  42.6150656  77.4162674  87.0915508  98.8781929  93.3652592
  86.4190674  98.6297989  93.9995289  87.2498035  98.0811214  92.8594303
  14.1830216 108.9984989  68.8550854  14.7957764 109.0445232  68.1211567
  14.7215710 108.7326241  69.6004105  98.4652246  27.6864291  91.5021610
  98.4789432  28.5058642  91.0076237  97.5383629  27.4528075  91.5529251
  75.1299370  22.6129156  13.9031905  75.9056461  22.6104980  14.4639892
  75.4786003  22.5914245  13.0120105  59.2286861  53.9697176  13.5560340
  58.4641636  54.4537931  13.8681334  58.8721931  53.3314710  12.9381389
  22.6917541  59.7206407  14.3592376  23.4161890  59.8959833  13.7586707
  21.9885004  59.3948179  13.7975425  63.9834738 105.6399536  60.2363920
  64.7528982 105.7571602  59.6791792  63.2537651 105.9638882  59.7083521
  77.4456263  76.0290670  66.3127995  76.5126419  75.9825850  66.1039782
  77.4781370  76.4503860  67.1716690  62.6021183  62.1645647  33.8446921
  62.5375450  61.2174135  33.7224120  63.5026253  62.3076158  34.1359729
 115.2925587 101.1182785  71.6377497 115.9095573 101.0923004  72.3690987
 115.3302574 102.0220184  71.3245773   0.5941832  28.6765485  13.7589473
   0.6414998  29.6203142  13.6063594   0.2638853  28.5948377  14.6536368
  63.6090362  68.9994436  29.4268435  63.0550945  69.7143942  29.7402495
  63.7471950  68.4481912  30.1970786   7.6966833   3.6980677  52.8798103
   6.7444681   3.7877703  52.9182005   7.9718851   4.3426181  52.2278547
  24.3463682   1.3569499  74.5578814  24.6374201   1.8642760  73.8001585
  23.4462332   1.1080504  74.3480396  56.9485044  88.7496758  87.6061535
  56.3074923  88.0389309  87.5928211  56.4329338  89.5402241  87.4466324
  95.8201885 100.3161430  85.1527596  96.0804749  99.4189453  85.3613853
  95.1586246 100.5325317  85.8098316  39.6191286   9.9220229  85.4600525
  40.2286886   9.4444228  84.8974037  39.9740576   9.8153449  86.3425922
  86.0042156   6.1292887  52.1577930  85.6001962   6.9957877  52.1111965
  85.5888141   5.6330920  51.4524794  21.9138216   7.0297099  81.8260860
  22.3452353   7.8364135  81.5443802  21.1167692   7.3253871  82.2659969
  56.1194504  62.3230749  11.7108268  55.6675709  61.7038541  11.1376018
  56.4049709  61.7948728  12.4562854 115.5697883   5.5165721  55.1473856
 115.4906763   5.1384783  56.0231829 116.3080276   6.1222316  55.2137709
 102.1913017  14.5482684  72.5847864 101.5215458  15.2188826  72.7187061
 102.2147239  14.0648795  73.4106255  71.7115974  99.9543190  52.0162106
  71.3603449 100.5524826  52.6758003  71.3183451 100.2467823  51.1939859
  86.2990106  20.3851367  67.1049213  86.2468876  19.5161010  66.7070580
  86.5858902  20.2205039  68.0031586  30.7601618  12.6592494  82.6334190
  31.4571642  12.8817130  82.0162201  31.1924051  12.6434851  83.4873199
  59.6956432  51.8783575   6.6898269  59.8306167  52.0513158   7.6215476
  60.3136719  51.1768633   6.4844531  29.7110021  45.0326734   8.6634082
  30.0106752  44.1477972   8.4550303  29.2098749  45.3032213   7.8940505
  20.6234430   9.4105292  89.0571404  21.1158156   8.7304831  89.5168591
  20.5718493  10.1331950  89.6826935  55.8663643  70.4054456  29.2585296
  55.6824386  69.8714834  30.0313777  55.0362957  70.8412653  29.0654487
  16.8927073  49.2183543  83.9939022  17.7010893  49.7202635  84.0980148
  16.3450312  49.4909621  84.7300816  15.0714563  30.0334216  80.5887890
  14.4762014  30.6722975  80.9809017  14.7170233  29.1836692  80.8505821
  21.0222614  24.2734438   0.4746169  20.6687105  25.1484399   0.3145713
  20.5419243  23.9573103   1.2398356  27.3881029  24.5795012  92.6295376
  27.6200937  25.5029727  92.7275467  27.7910589  24.3178797  91.8016434
 106.9865192  31.3886309  88.0371094 107.5699104  31.3571215  88.7953281
 107.2432579  30.6348944  87.5058746  16.3810528  42.4221903   6.8774528
  16.7776335  41.7927652   6.2751216  16.8767965  42.3211866   7.6900214
  97.6416492  81.2183189  65.2618313  96.8005371  81.6214752  65.4768419
  98.1702328  81.9372082  64.9153996  66.1495113 104.3390083  83.3578491
  67.0867729 104.5207310  83.4267139  65.8859491 104.7489452  82.5340080
  16.5803564  72.2806268  26.5282077  16.1979616  73.1096273  26.8158931
  17.1743381  72.5244241  25.8182925  77.1191883 106.7905903  63.7219524
  76.6411686 106.2195778  64.3233490  76.6283321 106.7392063  62.9017973
  51.1850905  23.1792689  78.3955765  51.2991022  23.3478881  79.3308830
  50.2618574  23.3691264  78.2287645 106.6349853  11.9129611  56.9487143
 107.4317325  11.6611338  57.4156284 106.4053262  12.7686263  57.3110962
   6.1101889   5.6868697  57.7926731   5.7871412   6.5479708  58.0579567
   5.9040426   5.1154090  58.5323811  91.8644108   1.3194800  68.9518690
  92.7878441   1.5577746  68.8698959  91.6047920   1.0594321  68.0680084
  59.1586197  49.4534212  12.0296878  59.9831188  49.4129663  12.5142402
  59.4224823  49.4832903  11.1100596  10.1057791  11.6761924  92.4875736
  11.0611795  11.6388369  92.4422932   9.9184107  11.9238520  93.3930016
  93.2157993  87.5896740  48.6474562  93.5685539  87.3477173  49.5037556
  93.9760303  87.8961372  48.1531334  98.2101597  11.1848212  85.6863880
  97.9447092  11.3226176  84.7771168  99.1150058  10.8781195  85.6278896
  66.0439003  13.8768106  19.4223613  65.5573738  13.0721622  19.6014232
  65.3698051  14.5518118  19.3436831  76.3499975  82.0080280  86.9430733
  76.4993620  81.1355686  86.5787601  76.1888790  82.5621223  86.1793613
 102.1178497   3.5329486  79.1430426 102.2390140   3.4825087  78.1948805
 101.7690910   4.4115592  79.2935228 112.3397554  34.0054942  73.6994171
 112.0543445  33.1170798  73.4861326 113.2957376  33.9609290  73.6806536
   2.5790667   1.6322375  68.8683367   1.8813538   1.9311381  68.2851696
   3.1177019   2.4097014  69.0155172  31.1456179   0.9888411  77.8475666
  30.5815863   0.2642203  78.1178141  31.1050963   1.6084529  78.5760403
  96.4035606 108.7920666  70.5819273  96.4761257 108.7556171  71.5356731
  95.4742527 108.9529228  70.4184008 101.6075624  13.3661128  75.0772047
 102.0759166  13.8524008  75.7557344 100.7394327  13.2112933  75.4495049
   9.4321417  23.7004615  88.8944817   9.2749762  24.5525313  88.4876633
   9.9781870  23.8957167  89.6560287  10.7008743  39.8104954  85.6373119
  10.0502837  39.6396708  84.9562931  11.0245872  40.6903124  85.4440117
 103.4032083 105.4839184  68.5106897 103.4070755 105.2110096  67.5932264
 103.6928607 104.7090631  68.9922857  46.1938572  28.1294274  45.1571083
  45.2864838  28.3570576  44.9544144  46.5174580  28.8695264  45.6706953
  16.8384671  19.2042220  74.6529341  17.5014102  19.8426306  74.3899298
  17.3223758  18.3846951  74.7551060   5.4979473  15.5923522  53.7567806
   6.0705745  15.9361494  54.4424438   5.9334648  14.7936022  53.4592009
  47.7871799  24.7235966  68.0469751  48.0205631  24.9509382  67.1469307
  48.4749842  24.1199231  68.3275652  12.5563228  46.1482668  69.2506838
  11.7061245  46.1150122  68.8121796  12.4506283  46.8165779  69.9277496
  26.6711092   3.9361751  88.6980820  26.2235713   4.5542902  88.1202602
  27.0643353   4.4845864  89.3769455  96.3632240  11.1127162  71.3603067
  96.8449535  10.2856314  71.3703775  95.4419174  10.8531952  71.3518476
  99.5391298  98.0186116  78.3780003  98.7865091  97.6761174  78.8601732
  99.2142797  98.8176989  77.9630709  42.3981524  53.2266521  92.9546165
  43.2879639  53.5758448  93.0048752  41.8351603  53.9777470  93.1420612
  17.7852583  11.7106748  70.1392841  17.6785100  12.3740995  70.8209753
  17.0069563  11.1590481  70.2179432  64.7378958  71.1791806  22.1266479
  65.4612983  71.1163633  22.7503318  64.0363158  70.6606965  22.5205916
  78.7269152  98.8608443  83.9471245  78.9269444  97.9319464  84.0627384
  77.9256573  98.8699436  83.4235382  69.9283160  63.9909379  25.3003139
  69.7324361  63.0562179  25.2357978  69.1580332  64.4230949  24.9313468
  72.7512128  60.7117175  48.4004784  71.9946046  60.3188705  47.9652262
  73.0159486  61.4266824  47.8217125   0.6389433  17.7740932  61.9629812
   0.9122101  17.5587881  61.0712385   1.2322949  17.2733331  62.5228071
   4.2107892  36.0453010  75.3316975   3.6256549  36.6209841  75.8240747
   4.2971870  36.4663720  74.4764376   3.3248268  96.7941152  54.4228983
   4.0887581  96.4719795  53.9444971   2.8864847  97.3811471  53.8068771
  78.8131949 106.2673052  49.4777775  79.4084854 106.7757424  48.9270020
  79.2522495 105.4242127  49.5902872 113.3521129  84.9681067  44.9724102
 112.6162435  85.3155422  45.4764080 113.8485528  85.7427382  44.7083569
  11.9699049  30.2297473  64.8290253  12.3721874  30.2038813  65.6972027
  11.7540026  29.3170309  64.6378040  10.1106644   2.2966434  73.5348511
   9.4235188   2.6153964  74.1200495  10.8602846   2.8642344  73.7141323
   9.1619492   7.1857160  80.9708786   9.1623211   6.2285191  80.9733105
   9.4676000   7.4231249  80.0954056 109.4687010  66.8454122  71.8247604
 109.2059637  66.1292362  72.4029446 108.8266445  67.5355291  71.9913006
   9.6823573  25.0864863  58.8638687   8.8518381  24.9074268  59.3047857
   9.4301516  25.3850436  57.9900885  79.6042849 106.4267590  65.5846262
  78.7385344 106.0248544  65.5126524  79.4517487 107.3562648  65.4143810
  41.0927820  15.8896351  47.3953962  41.6803741  15.1342249  47.4133062
  40.4664469  15.7226324  48.0997038  99.7273268   6.2323594  61.9565916
 100.4238155   5.8643711  61.4127874 100.0308849   7.1147418  62.1698666
  18.7754655  37.9838276  56.8539476  18.3935130  37.2143030  56.4318371
  18.3066940  38.7249231  56.4702034  13.5818672  40.2076149  55.4553890
  12.8566873  39.7587991  55.8900213  13.8417578  39.6152544  54.7498417
 113.5949160  89.7726082  71.9678020 113.1029774  89.0433931  71.5903473
 114.5064116  89.4808602  71.9508696  97.5888956  73.4516596  64.2372847
  96.8599547  73.1256794  63.7094450  97.4436403  73.0746602  65.1050425
  62.8019179  64.1929584  16.6742724  61.8753995  64.0621971  16.4725417
  63.1967343  63.3288269  16.5575332   4.9720919  13.3857286  79.8289776
   4.3523422  13.6271107  79.1405916   4.4674388  12.8276312  80.4206562
  12.0926106  33.0972290  55.0451422  12.7995598  32.9591155  55.6755209
  11.5595019  32.3045325  55.1056433  84.9475302   2.4061640  82.4897671
  85.0659957   2.8804344  83.3127213  84.0231266   2.1577674  82.4874020
   5.1678050  10.3847945  67.2306252   5.0718158  10.5404067  66.2910461
   4.2724532  10.2606976  67.5455475  53.4692907  23.7057304  76.1577606
  54.2029953  23.5020065  75.5777597  53.8808775  23.9980268  76.9710207
  62.5263776  68.9445035   9.2825717  63.3571757  69.0545385   8.8200778
  61.8624819  69.2239051   8.6521644  23.1496572  26.5821409  91.4250183
  23.8105941  26.9669461  92.0006180  22.6094270  26.0459900  92.0054626
  79.4810163  91.6865289  94.9500751  79.3297557  90.9011864  94.4241619
  79.4308344  91.3814687  95.8559704  69.7907771  76.0338120   6.2310142
  70.4928030  75.5290251   6.6415996  69.0209211  75.8570890   6.7716807
   8.9805256  78.4675812  68.5189581   8.6647307  78.1066274  67.6905775
   9.8034941  78.9010977  68.2930899  30.7228756   9.4291681  45.7706928
  30.3340173   8.9346302  45.0492716  30.4307461  10.3295755  45.6287146
  31.8963933  34.2101526  82.5954723  31.2088919  33.6100364  82.8843307
  31.9481850  34.8670316  83.2897758  92.3162950  66.4918947  66.1300945
  92.0882011  65.9684037  65.3618717  92.2591639  67.3983144  65.8278275
  20.7002878  20.0688863  51.2203932  20.8718610  20.4847646  52.0652819
  21.2477183  19.2836893  51.2243700  34.6673489   9.5185399  40.8081675
  34.6492577   9.6509522  39.8603439  33.9141989  10.0117600  41.1333323
  80.3640569  50.5401697  21.4542312  80.3444637  50.5647333  22.4109096
  79.8137344  49.7920411  21.2225265  39.5535517  40.4326296  83.4171772
  39.6743655  41.3564968  83.1978512  39.0729547  40.4438257  84.2448997
  96.4017011  99.9977880  31.6121697  95.6264831 100.3219920  31.1537361
  96.9297744 100.7798993  31.7723966 112.3231574   4.8904359  49.3898439
 111.4259185   5.1074195  49.1366386 112.3904457   5.1755017  50.3011322
  82.3470665  96.9576084  39.6852899  82.5900350  97.8828990  39.7174597
  81.9577135  96.8422090  38.8185048  47.6866150  38.7582755  65.5280018
  47.3186111  38.5127211  64.6791744  47.9030037  39.6861315  65.4358625
   1.7782202  23.2026863  72.5464153   2.7175477  23.0812144  72.4080658
   1.4405996  22.3182344  72.6878023   6.7577826  94.9536502  40.2123737
   6.6159283  94.6017181  39.3335962   6.3308083  94.3247079  40.7940626
  30.7570386  37.4926353  82.8287220  31.5419388  36.9892597  83.0449963
  30.9196138  37.8217673  81.9447136  11.2704015  14.2427075  82.6844120
  10.9505987  14.0626931  81.8003559  10.7969737  15.0294662  82.9547977
 107.6365972  98.4183728  74.0801954 107.9669763  98.8161277  74.8857212
 107.9413582  98.9997446  73.3835220 102.7251912  72.5913357  69.4805288
 102.4192167  72.5332951  68.5754108 103.5966278  72.1956372  69.4646072
  96.6419209 106.8274503  90.8704376  96.7037822 106.7663788  89.9171925
  97.0082570 106.0019600  91.1876106  95.8560682 108.6296727  53.7569094
  95.7854701 109.2195027  54.5074749  95.6437303 107.7658253  54.1103411
  87.6797367  88.3450054  43.9407444  88.3812595  88.4453034  44.5842028
  87.9614104  88.8745999  43.1948090  72.5032009  93.5168247   2.5769919
  72.2203149  93.6701112   3.4784907  73.3530582  93.0848389   2.6628131
   0.8221153  21.5259933  86.1518955   1.3702667  22.2824216  85.9431362
  -0.0739895  21.8364835  86.0221863  50.6378092  35.6652336  14.2542953
  50.3263868  35.1334231  13.5218829  51.4228989  36.0982447  13.9190883
  24.3153930  31.5399098  36.0118890  24.2122340  30.6248593  35.7505989
  24.3141484  32.0260453  35.1873279  21.7767787  13.8872325  84.6327877
  21.0806155  13.2310903  84.6001625  21.3291097  14.7192502  84.4792652
  33.4285831  16.2755990  45.6112146  32.7002716  16.6694427  45.1309204
  33.0099201  15.7022238  46.2532377  66.0255398  33.6487846  35.5373401
  66.9504250  33.4066944  35.4903335  65.7559718  33.7433319  34.6237678
  42.0679186  53.1768568  18.6989230  42.0382677  53.7586652  19.4584292
  42.3361577  53.7421251  17.9745311   8.5120642  25.0827050  56.1613083
   9.1553128  24.3996429  55.9718657   7.8964359  24.6705031  56.7673826
  69.8043646  49.7713606   1.0976619  70.5801309  49.2363011   0.9299487
  69.2924870  49.2609917   1.7251510   8.8888203 105.7841682  49.9017048
   8.8610874 104.9735146  50.4099417   8.0552851 105.8006438  49.4314146
   3.2285780  20.0791907  73.9699459   3.0763513  19.7517526  73.0834675
   2.4574694  19.8005629  74.4639015  26.7974734  14.9334514  42.1071434
  27.0476055  14.0423691  41.8629313  26.7189384  14.9073374  43.0607605
 110.5996252 105.4108291  65.6893539 110.4850031 106.0267805  64.9656820
 111.3264204 104.8515856  65.4150391  90.5075861 103.6172330  74.5999289
  90.3452588 103.6421727  73.6569262  89.6798957 103.3197706  74.9776554
  26.3298869   0.1468531  88.4248066  25.4422116  -0.0240163  88.1100559
  26.6720891   0.8116756  87.8271961 100.1375713  28.8087797  47.5344563
  99.6165504  28.9692640  48.3212328  99.6657064  29.2647696  46.8375731
  80.0035607 104.9057432  67.9214811  79.3259741 105.2644803  67.3484039
  80.3956286 104.1955554  67.4133968  46.4067316   2.0820704  75.5587101
  46.7730570   1.2402236  75.2879095  45.8600664   2.3536940  74.8214149
 113.7632995  52.8362751  67.6870871 113.3486550  52.1737051  67.1345425
 114.6620374  52.5264883  67.7990389  45.7617903  41.3057232  60.4160070
  46.0138559  40.7626915  59.6691418  46.4823055  41.9282913  60.5134869
  80.5933119 100.8992993  55.2410126  81.1555971 100.8729612  56.0152054
  79.7044168 100.8233243  55.5878925  86.8591447  89.6702170  69.7575617
  87.2890408  89.8561167  68.9227772  87.4189080  89.0152597  70.1746082
  18.3642685  17.4768972  51.4911509  18.3172262  18.4004700  51.7381907
  18.9920127  17.0963275  52.1054268  40.3015757  23.0915117  74.3784761
  41.2573290  23.0606580  74.4210720  40.1009941  24.0004206  74.1551304
  80.1760734  51.4728709  36.3409347  81.0296453  51.1341383  36.6109485
  79.7703708  51.7750897  37.1535319  37.6221275  26.4526272  67.9594946
  38.3274341  27.0871568  68.0865622  37.6988435  25.8568072  68.7047100
  77.6120331  98.3373272  69.9064016  78.4136512  98.8535117  69.8215961
  76.9575516  98.8278722  69.4091606  12.0747876  15.1233017  93.5553646
  12.4555147  15.8432579  93.0524254  11.1558628  15.1040971  93.2880783
  97.5386287 105.4571279  44.1471386  98.0112863 104.6775907  43.8553333
  97.9986812 105.7334753  44.9397421  16.6828190 106.1682450  91.4481926
  17.2201048 106.5605583  92.1364117  16.4097058 105.3248014  91.8090820
 108.2531835 104.5910870  74.5834112 108.8001228 103.8262629  74.7626638
 108.8033915 105.1575159  74.0424299 105.0496652  11.8937862  41.7571783
 104.7301652  11.8291032  42.6571560 105.7024433  11.1975276  41.6841364
  23.7721872  30.0377488  59.0035248  24.0347075  29.1530347  58.7493753
  24.5308399  30.5823302  58.7935114  74.6658025 104.3974113  63.4483910
  75.2866323 103.9831101  62.8490925  74.3665690 105.1776474  62.9815674
   8.1991482  16.9850349  55.6209707   7.5308371  16.7645526  56.2697983
   8.9762163  17.1944404  56.1391830 113.4535511   2.4958977  74.4434786
 112.9092809   2.9062438  73.7714529 114.3332662   2.8357491  74.2796659
 104.2034317  95.2401220  10.3404140 104.3629194  94.8098838   9.5003605
 104.1012407  94.5200371  10.9627211  16.9193411  60.7834148  74.3468475
  16.7790234  60.7301903  73.4014845  17.3037374  61.6493177  74.4835520
  47.0462084  36.2015104  79.2467213  46.4692593  36.5451813  78.5646296
  47.7821302  36.8132091  79.2685509  43.8685424  48.9062433   3.7892264
  44.7814287  48.7590985   3.5418052  43.3856891  48.2054602   3.3510703
 105.7666899 101.6834634  56.8778324 106.2157131 102.2178065  56.2227821
 105.3494597 100.9856772  56.3726139   5.9139096  98.5790681  74.7999811
   6.6867958  99.1225600  74.6467018   5.5091940  98.9534568  75.5824566
   9.0606629 106.6110426  88.6103058   9.9910055 106.7149334  88.8100433
   8.8083350 105.8034172  89.0578556 101.3734866  89.9507784  59.0792942
 101.7835570  90.4330909  59.7972441 101.9870902  89.2421245  58.8855648
  44.1949941  75.2074342   2.9554862  43.5311944  74.9834018   3.6077136
  44.3006535  76.1552792   3.0370826   1.4109980  89.3672513  63.2770491
   1.0320984  88.5702800  63.6478567   2.3356901  89.1556787  63.1489134
  72.0923461  45.8851038   6.9560832  72.0774258  45.1632987   7.5845832
  72.7785648  45.6460391   6.3330478 101.1066318 109.5190450  60.9955788
 101.5611030 110.2651413  60.6043911 100.9610105 108.9175860  60.2653217
  36.4874840  28.8283515  78.7638807  35.8629489  28.7129521  79.4800329
  36.2003183  28.2084560  78.0934334 101.3549901 106.5949207  42.3075247
 101.2983824 107.4413299  42.7509403 101.7977858 106.7867427  41.4808655
   7.6261836  15.2144432  61.7401743   7.5413823  16.0868931  61.3556337
   6.7480779  15.0072384  62.0599079   2.2654618   7.9983646  63.5042286
   2.1884497   7.0983434  63.1875896   3.0029565   7.9754633  64.1139936
 113.9115264  24.2178845  72.0884943 114.8201217  24.5055676  72.1775198
 113.9753070  23.2918644  71.8547153   6.2936187  22.2827101  60.0144053
   6.5816188  21.9197178  60.8519793   5.5028725  21.7884564  59.7983837
  43.1983709   5.0701761  86.4835739  43.3133316   4.4954324  87.2403336
  43.3740139   4.5093638  85.7280159 106.0769249  78.6382627  75.0071239
 105.5967189  79.2029857  74.4015455 105.5123568  77.8736209  75.1203394
  73.9447344  56.5302974  11.4229125  73.9770569  56.0215876  12.2330970
  74.8409809  56.8434593  11.3008136  73.8101472   7.0934641  74.9451685
  74.3200197   7.8136998  75.3160095  72.9029979   7.3027867  75.1676559
   4.8911977  27.2265172  67.7903557   4.5235950  26.3549757  67.9370451
   5.8039606  27.1514225  68.0686665  11.6129136   9.6862608  62.2121716
  12.0987451   9.3949580  62.9837561  11.7197657   8.9758885  61.5795660
  17.6621830   4.1906935  63.9717579  17.5000203   5.1283419  64.0754461
  17.3933613   3.8073733  64.8066425 114.4733048  95.3811657  60.7806301
 115.3551818  95.2141356  61.1132383 113.9236141  95.4108238  61.5636969
 110.2263804  14.8383951  36.3596678 109.3473401  15.1146340  36.6189194
 110.7682349  15.0098896  37.1298718  35.4475355  27.0196128  60.3055048
  35.1764202  26.2412024  59.8188782  36.2054849  27.3511505  59.8240232
 103.1363883   7.9148936  50.3661299 102.4424829   8.4355825  50.7706165
 103.8028028   7.8327590  51.0483170  25.7739615  10.7746398  61.0615826
  25.6254768   9.9014723  60.6985903  25.1836586  10.8250403  61.8134022
  69.2583598 103.5942625  88.8309574  69.4880016 103.0821829  89.6063709
  69.2291201 102.9532855  88.1206608  21.5138984   5.4258800  89.3420887
  21.8084979   4.5441461  89.1140747  22.2516608   5.8098626  89.8158932
  27.8671217  22.1059632  79.9008799  27.3188305  21.3250828  79.8244953
  28.5306692  21.8702269  80.5492401  42.1289349  36.5252185  73.8228798
  42.4078131  35.6095934  73.8323689  41.1763906  36.4846039  73.7378216
  38.6668825  22.9978442  81.4073753  38.0298948  23.2699609  80.7467556
  38.2191682  22.3128676  81.9039631  19.1038979  55.1656324  12.2674579
  18.6639727  55.9517620  11.9438857  18.7243952  54.4510904  11.7559546
  53.7718714  51.9384454   5.6763572  53.1477858  52.3741605   6.2567920
  53.3308436  51.1305382   5.4136580  86.6546978  61.2836854   9.0711612
  87.4070848  61.1626517   8.4919375  86.5517486  62.2332011   9.1348285
  37.3653173  46.2086630  68.0422115  36.9678950  45.3437424  67.9412222
  36.9700265  46.7363834  67.3483181  72.5439119  37.0882320  90.4979515
  73.3146095  37.0386291  91.0634518  72.5266171  37.9963160  90.1957607
  19.1923821  41.8189430  64.7842550  19.4088507  42.5044775  64.1522598
  20.0063825  41.3270330  64.8922396   5.1596940   8.2413620  43.7374258
   5.9093493   7.6481020  43.6895657   5.4029417   8.9801824  43.1795692
  39.8732853  48.6634254  67.7031040  39.8671865  47.7230215  67.8815222
  38.9595294  48.9315319  67.8000498  65.0339725   3.1404834  12.3541087
  65.4133346   2.8506284  11.5244693  64.0883579   3.1092983  12.2089499
   2.9082953  89.1410755  77.8987312   2.9819046  88.8149165  77.0018291
   2.0318352  88.8769078  78.1784821  43.6950016  31.6232944  84.7599506
  43.3337069  31.2643242  85.5704117  43.9045477  32.5325966  84.9732399
  12.7912188  31.9035840  70.2471685  13.5233414  32.5166273  70.3135586
  12.0144868  32.4615479  70.2072001  26.6157889  19.0041876  26.6386962
  26.7461562  18.2577980  27.2236228  27.2726274  18.8880646  25.9521747
 110.0144931  17.6844025  51.6731739 109.3546369  17.8272104  52.3517227
 109.7667333  18.2828689  50.9684134  63.4244013  33.5764623  56.0019445
  62.4868965  33.3929062  56.0621405  63.5573483  33.8486528  55.0939417
  57.0319366  30.1462007  85.8866119  56.4259005  29.4537497  86.1501598
  57.2650051  30.5847502  86.7048931  28.3799434   9.8466843  90.3817654
  27.5702262   9.8517418  89.8713112  28.1117225   9.5561850  91.2534904
  41.3490105   6.7262912  58.2389069  42.0115805   6.5668899  57.5667286
  40.5787420   6.2464327  57.9345131  20.9727240   6.1191857  40.6844473
  20.6576514   7.0182198  40.5911827  20.3960490   5.7302976  41.3420534
  38.4047723  23.7384629  85.4794979  37.4863029  23.9136314  85.2746487
  38.6360383  24.4021726  86.1292934   1.8480431 100.9063017  82.7822018
   2.3670088 100.2285831  82.3490715   1.8979346 100.6880110  83.7128448
  61.2095751  75.0421457  18.2142562  60.8068837  74.2016058  17.9961699
  62.1260012  74.9427705  17.9563445  21.8987226  57.5861979  90.5941772
  22.4972034  57.6484919  89.8497486  21.1170959  58.0621815  90.3135872
  24.3883729  27.3049712  48.5148048  25.0462484  26.8759227  47.9676771
  23.6406398  26.7074800  48.5032845  15.8698809  34.4237161  25.9504390
  16.7718840  34.1039324  25.9694314  15.8721185  35.1071501  25.2802587
  11.5439737  10.8431387  56.5804005  10.9546006  11.4839530  56.9781780
  12.1521592  10.6094527  57.2816372  51.7830896  27.1808743  65.2924252
  50.8869028  27.0695090  65.6097221  51.7754936  26.7994356  64.4145441
  44.8703909  28.2317924  57.4425030  45.2710772  27.3661470  57.5221300
  45.1432467  28.6957455  58.2340384  55.2117634   9.4680393  62.5277281
  55.6191111   9.2934793  61.6793013  54.8629189  10.3558183  62.4478006
   5.0207460  31.0547233  89.3038082   4.5858788  30.2064800  89.3910122
   4.3090996  31.6726494  89.1366005  50.2220894 107.7823673  76.3187408
  50.8201028 108.3009509  75.7805204  50.7920767 107.3231929  76.9355917
  66.0058345  70.3622012   1.1621016  66.3962783  71.1429362   0.7693786
  65.0690163  70.5553024   1.1983794  82.8678955  88.0254273   6.5729922
  82.7934469  88.9753871   6.4820785  82.0052398  87.7458076   6.8793696
  94.6080602  76.2596469  18.5147685  95.5325998  76.0368972  18.6235637
  94.2377008  75.5179577  18.0362624  10.5829465  13.2992637  58.2712793
   9.6750355  13.3052671  58.5744190  11.0427403  12.7463591  58.9030361
  69.7295332   8.7655199  61.5135193  70.6462669   8.9764190  61.6905689
  69.7531700   7.8798306  61.1512661 103.7432398  61.4258270   4.2593688
 103.6483873  60.4938357   4.0628356 103.7014879  61.8561535   3.4053725
  85.7222843  36.0494900  43.7179375  86.1769772  36.8647099  43.9298344
  84.8744583  36.3305855  43.3738232  39.4630527   4.3503940  61.8567228
  39.3192315   3.5487956  61.3537455  40.3571177   4.6131974  61.6380453
  79.9311985  45.2736359   8.6475963  80.7769979  45.3227632   9.0930671
  80.1295341  44.8747663   7.8003615 110.4519012  15.0221431  51.2705469
 110.2006801  15.9013247  51.5536737 109.7877695  14.7793627  50.6254005
  77.8926849   7.0949310  43.9059782  78.4666586   7.7055550  44.3684959
  78.3165169   6.9635117  43.0578423  22.4035168  10.0332355  86.5937233
  22.9474545  10.8118415  86.4748287  22.5627637   9.7657496  87.4988842
  78.1587828  68.3713226  10.4873961  77.4099148  67.8793590  10.1506442
  78.9170421  67.9800479  10.0535983  17.8300333  40.1673889  81.0606194
  18.3604193  40.5741358  81.7458057  17.2499061  39.5684266  81.5306473
  24.6446120 105.9613779  64.2724895  24.8098313 105.8980983  63.3317852
  25.4990517 106.1656647  64.6525288 112.4296572   9.0795982  89.9329948
 112.6478015   9.2373705  89.0144348 112.3970341   8.1261456  90.0110626
  48.8090181  38.4696579  71.1195993  47.9425573  38.0768776  71.2254286
  49.4196415  37.7548075  71.2994957  10.6158173  26.6960669  46.7845488
  10.2305675  25.8199763  46.7678213  11.5056419  26.5602493  47.1101236
  13.2650362 107.4066912  65.8925724  12.3967921 107.6643666  65.5827618
  13.6805092 108.2290226  66.1521626  57.6690245  12.4610114  70.8185005
  58.0355740  12.3859596  71.6995478  58.4251976  12.6372921  70.2587128
   6.2843102  35.2842045  82.0820618   6.0080200  35.4455876  82.9841995
   6.7748958  34.4634032  82.1250057  25.8091068   2.2626843  65.7319832
  26.1380839   2.6057640  64.9011421  25.2846289   1.5007973  65.4856443
  45.0260305   7.1704251  58.7576199  45.2413607   8.0960041  58.6428690
  44.3027115   7.0156860  58.1500912  51.2999439  28.6979342  69.7262144
  50.7216597  29.1135263  69.0866041  51.1876822  29.2163563  70.5229998
  31.4309669  12.9484749  85.4623413  32.1624970  12.4613714  85.8415890
  30.6670666  12.6614237  85.9626293  85.1410032  99.4184219  40.8170509
  85.5147518  98.5856294  40.5289555  84.4471384  99.6014559  40.1835823
  39.5073199  38.4993553  64.4850349  40.1478910  38.3218575  63.7962723
  39.9141836  38.1622124  65.2831745   9.3624181  44.1550207  59.4456291
   8.5956109  44.6873665  59.2338562   9.0188646  43.2664442  59.5385122
  37.7495098  35.1798844  53.6093235  37.6773000  35.1768088  54.5637894
  38.6600113  35.4209948  53.4387875  22.0578527  29.3767428  36.9564557
  21.8237972  28.6396503  36.3924146  22.5703788  28.9842224  37.6631904
  50.7668972  19.9938750  48.4738922  51.0248375  20.7065940  49.0584707
  51.3728857  19.2826045  48.6815071  42.9587603  49.3066120  38.9165425
  42.3586130  50.0514650  38.9518642  43.3500481  49.3554497  38.0443358
   7.6816726   9.4688874  33.9442801   7.1204436   9.1194993  33.2520509
   8.1087327   8.6981678  34.3182349  36.0457897   9.1907185  72.3917961
  36.3491321   8.9949119  73.2782936  36.7094517   8.8039529  71.8206596
  32.5261712  49.1262102  71.2097836  32.6844692  49.2952728  70.2810287
  31.7560863  48.5578346  71.2219143   9.3647248  50.4457140  47.7860498
   8.8902116  51.2268639  48.0704355   8.8598990  49.7153473  48.1437445
  45.8855139  96.7009150  92.5539494  46.5473067  96.2688410  92.0139790
  45.4904925  95.9920549  93.0615997  45.3524637  40.9485865  51.8916798
  46.2883472  41.1408186  51.8333530  44.9239063  41.7580223  51.6134977
   9.5575708  47.8069925  63.7933922   9.6970510  47.6567507  62.8584003
  10.0981903  47.1457481  64.2254972  33.0327773  23.6592937  68.4059286
  33.6824417  23.6106777  67.7046394  32.3387671  24.2150688  68.0513954
  37.1537161  53.2906818  35.7166743  37.0001340  52.6408005  36.4024568
  36.6331840  54.0482807  35.9837341  37.0192038 100.9630113  71.5023422
  36.9157778 101.7785847  71.0120583  37.9586827 100.7823413  71.4712238
  33.4145546  24.0974641  74.6256161  33.3006644  23.2247543  74.2492676
  33.3490157  24.6912432  73.8777113  27.8218603  37.3317575  80.8758831
  27.3005867  37.2145319  81.6700935  27.4107862  38.0701447  80.4264069
  98.5151888  91.6796624  75.7253695  98.4054233  92.3935270  75.0972128
  98.7428881  90.9208345  75.1881886  44.2886591  41.9260073  62.9630804
  44.8466730  41.4552164  62.3440456  43.7776232  42.5241709  62.4178553
  41.7260647  20.9554935  69.0119505  41.1664486  21.6332340  68.6328411
  42.5783205  21.0888767  68.5970974 113.9609552 102.8456789  76.2455463
 113.7468601 101.9406062  76.0191870 113.1112791 103.2716113  76.3589621
  42.9926569  91.2908416  18.4819049  42.1606324  90.9551983  18.8155383
  43.0457709  90.9534030  17.5877303  87.1037783   3.6512259  25.9174633
  87.7824607   3.1118089  26.3232350  87.2457399   4.5263419  26.2783647
  78.0755615  22.7408552  41.6835356  78.2643032  21.8354177  41.4369678
  78.3466959  22.8011322  42.5995493   8.3278412   0.8643079  56.7124796
   9.1975677   1.2038413  56.5014696   8.0519027   1.3706981  57.4764538
   3.2398283  70.3334761  44.5268679   3.9176720  70.8880377  44.9131536
   3.0347237  70.7528400  43.6912298  47.5476503  10.2383590  66.4538145
  46.7436266  10.2066004  65.9353828  48.1305122  10.8124590  65.9569120
  28.9548779   9.5255655  52.1005249  28.6339474  10.4256594  52.1558905
  29.8311758   9.5597100  52.4841499  16.6322553  59.9172688  68.6537409
  16.8882513  59.2342234  68.0339432  16.0444665  60.4849386  68.1552553
  73.0397619  74.4077342   4.6463222  72.2799147  74.2111509   5.1942462
  73.7596191  74.5212762   5.2669257 113.7665485  18.2817304  41.5951777
 113.4896352  17.9948163  42.4653673 114.7162520  18.1621695  41.5945101
  39.8050189  74.5677392   7.0909518  39.4603020  74.6998696   6.2078113
  40.1249872  75.4304509   7.3547286  95.7261063 104.8215392  66.9929314
  95.6731320 104.2700314  66.2123775  94.8164845 105.0441413  67.1911001
  21.8561816  20.2805448  40.8161545  22.0092559  20.8560944  40.0667906
  21.2022662  20.7409525  41.3421345   9.7977030  50.8695698  74.0327263
  10.1372623  50.8325481  74.9269104   8.9108431  51.2170315  74.1275024
  62.6007451  96.0651259   4.0155620  63.3719052  96.4949565   3.6457175
  61.8853964  96.3101439   3.4286422  36.5567923   7.0268846  76.3700533
  36.4737844   7.8023434  75.8150721  37.2594452   7.2447467  76.9824696
  88.8727726 106.0680633   8.6200446  87.9554428 106.3098197   8.4924144
  89.1646351 106.6129928   9.3508643 105.0294675   9.0325665  67.9575825
 105.5111541   9.6629304  67.4219990 105.0839307   9.3827409  68.8467646
   3.7083429  26.8432426  65.0119829   4.4402862  26.6344380  65.5924034
   4.0379617  27.5485134  64.4550467   4.6836820  12.7821636  24.5027161
   4.7488987  13.6694670  24.1496277   4.4290504  12.9063368  25.4170346
  42.8433609  22.4068975  85.8364677  42.7062893  23.3413005  85.6804657
  42.2868538  22.2055054  86.5887833  14.4838488  48.6976194  76.4472437
  14.3084657  48.2395220  75.6252813  15.4387248  48.7396288  76.4990044
  22.5581527  17.9553688  61.2251043  22.7493358  18.8406801  60.9154224
  23.4112000  17.5989366  61.4730883  15.4326713  36.5137696  85.2713490
  14.8710668  36.1891413  84.5674706  16.0839951  35.8234572  85.3957653
  35.0347877  18.5700512  80.1632881  34.8951888  19.5026362  79.9988794
  34.1563106  18.2180047  80.3067207   7.7886271  12.0304346  72.6932144
   7.5768209  12.5900388  71.9460773   7.9226911  12.6402044  73.4187794
  58.6075319  99.5369725  19.0886897  58.9662517  98.7737088  19.5414371
  59.2753185  99.7682290  18.4430808  56.5830482  70.4622035   7.1670550
  56.7500306  69.5205514   7.1265525  56.0248114  70.6392412   6.4099139
  50.1019573  19.3396676  90.3121090  50.0369453  19.8528230  91.1175156
  50.9805298  19.5248735  89.9803829  10.6597829  14.4471228  53.6517334
  11.1179185  13.6583173  53.3616829  11.0544944  14.6556640  54.4984579
   0.8693897  64.8300123  70.8491755   0.7551061  65.2500390  71.7016745
   1.1481773  65.5382156  70.2686930  47.8980303  41.6081715  69.7637224
  48.6770773  41.4578152  70.2991772  47.7298737  40.7647991  69.3433952
  10.2244520  18.5050666  58.1657314  10.6672895  17.9535365  58.8106680
   9.4003171  18.7506247  58.5861301  45.4008627  20.4920673  83.2151031
  44.5705652  20.1264358  83.5203075  45.3415394  20.4568577  82.2603893
  22.6549578  44.2445135  63.3870029  22.8779721  45.0882864  62.9938889
  22.1619916  43.7860632  62.7065325  25.7685637  44.2641258  62.3409796
  25.0036407  44.7460318  62.6554537  25.4720140  43.8447714  61.5332508
  34.7510839   9.4949764  62.4220419  35.2189469   9.3995708  63.2516384
  34.6355271   8.5982651  62.1077347  39.6984005  17.4537849  75.5716562
  39.4509101  17.9838276  76.3293076  39.0597939  17.6864827  74.8976660
  96.1761428 104.6759170  51.1108780  95.3663648 104.1887390  50.9587336
  96.6702355 104.1333049  51.7254353   1.5969543  31.0899544  79.9782610
   0.8113945  31.2793899  80.4913330   1.3996421  31.4276767  79.1046238
  44.8761034  29.8461485  55.2626419  44.5283937  29.3368316  54.5305729
  44.8218918  29.2545295  56.0131645  16.5721451 104.1997641  81.2735844
  16.5202557 104.3123727  80.3244495  15.7705866 104.6031224  81.6068172
  24.1121984  10.8983231  63.6119366  23.8960934  10.1415980  64.1568184
  24.3106937  11.5950680  64.2375374  27.9269171  28.9460683  80.0660706
  27.7706742  29.2370486  80.9644890  27.5474811  28.0680561  80.0292683
 115.5542803  27.8496623  68.1072950 115.6126707  27.0653105  67.5617552
 114.7619321  27.7204204  68.6285543  58.9011992  71.4603226  12.7101630
  59.1803945  71.6740768  11.8198890  59.1859521  70.5556970  12.8397864
  32.5628471  20.2523804  75.4760027  33.0424428  19.5078886  75.8392525
  32.3740959  20.8077860  76.2323952 114.1122082  32.2302008  85.8091164
 114.6614400  31.4463854  85.7945728 113.2270690  31.9055319  85.6437397
  97.2230018  78.3201699  17.9761237  96.9649948  77.8968410  17.1572989
  96.5758861  79.0143232  18.1011313  38.5252786  22.3265028  70.3298140
  37.8600121  21.6408300  70.2705908  38.2086229  22.9084253  71.0206985
  19.3660939   6.4191759  87.4738312  20.0877762   6.0011768  87.9436016
  18.8660932   6.8694824  88.1546021  73.9526070  84.6685462  19.8272628
  73.2655634  84.8476558  19.1852874  73.7389792  83.8011126  20.1709956
  49.5018291  35.1761651  50.1648521  48.8133574  35.4448295  50.7731819
  49.6454906  34.2500591  50.3595781  52.2355355  73.3279650  18.5084361
  51.8520797  74.1805749  18.7139815  52.7579845  73.4837191  17.7216548
   9.0646708  41.2674427  27.3850918   9.9382448  41.5050983  27.0742536
   8.9903402  41.6931105  28.2392073  49.5966434  11.9212544  93.9902973
  49.1750860  12.6238406  94.4851685  49.1015387  11.8739319  93.1724548
  58.7520647  19.2202687  49.9558210  59.0704012  19.8928630  50.5579042
  59.2678785  18.4430552  50.1705456  32.6830125  17.7807140  81.1536789
  32.4794436  17.7112329  82.0863914  31.8473768  17.6242208  80.7138348
  41.4125538  43.3416510  62.0434666  40.8114576  44.0255213  61.7481089
  40.8485699  42.6918030  62.4628210  41.6265631  45.4392481  55.1442575
  42.1027994  45.8884668  54.4459486  42.2898579  44.9051857  55.5813551
  16.0746491  48.5222054  48.9821148  15.2187157  48.2176065  49.2834902
  16.6889751  47.8581762  49.2949963 102.5708355  69.6951764   9.1441363
 102.4611915  69.3737667   8.2492084 101.7348827  70.1120620   9.3530101
  54.0025568  37.9651165  94.0340614  54.7324324  38.1837082  94.6134758
  53.2494688  38.4147024  94.4174194  20.0041342   1.4831491  86.3571644
  19.4629896   1.7883144  87.0853615  19.3751049   1.2018502  85.6927681
  50.0744438  33.3275962  57.7463579  49.7428608  32.5031924  58.1022310
  49.5894432  34.0045118  58.2183647  37.7953935  35.6318688  44.5991993
  37.9494333  34.8773408  44.0306997  36.9809794  36.0149765  44.2733288
  39.3464112  13.6844838  55.9801769  38.5918236  13.7618494  55.3963566
  39.1344738  12.9441404  56.5486860  38.0157303 100.0120978  28.8343352
  37.6947458  99.1338401  29.0389556  37.8267540 100.5252461  29.6199531
  11.6394579  13.8382733  30.9702778  11.1012232  14.5237076  30.5744052
  11.4932907  13.0701423  30.4181552  41.3854504  12.3216510  34.8163128
  41.9150114  12.0264924  34.0755844  40.4812050  12.2281814  34.5165992
  26.9862485   1.1471379  71.1835670  26.0612345   1.1659747  70.9381533
  26.9804668   0.9869939  72.1272564  20.1018238  20.5927467  44.2757273
  20.2000284  21.2321687  43.5702324  19.9281406  21.1207151  45.0550318
   8.5213286  11.0067391  78.8283491   7.9007030  11.4374077  78.2404900
   9.0839183  10.4935205  78.2484102  65.5576277  18.7205827  69.6134520
  65.5367517  17.9949033  70.2373028  64.6365213  18.9299774  69.4587135
  14.1375017  27.4831724  80.6771660  14.4170022  27.4565029  81.5922642
  13.3257091  26.9762969  80.6598091 116.3596894  37.4559689  78.3621597
 115.5937792  37.3148346  77.8056574 116.2017867  36.9074535  79.1305542
  44.1085672  28.7775278  74.1741753  43.3921003  28.4498715  74.7178221
  44.1757488  28.1444025  73.4594202   0.5677665   3.3884937  49.7157049
  -0.2857789   3.4039640  49.2827463   0.3698761   3.1757951  50.6277561
  15.0293028  41.1599493  82.2299862  15.4159665  41.9383287  82.6310444
  14.9239159  40.5441189  82.9551697  36.5650272  45.3657198  71.2015867
  37.4445915  45.3348875  70.8252239  36.0880303  45.9817553  70.6455231
  48.9859390  20.8350754  65.1501942  48.8437557  19.9662387  65.5258799
  49.8349428  20.7708812  64.7128105  94.1712227  19.2655170  78.5819292
  93.2444467  19.4141293  78.3942318  94.3906965  19.9240160  79.2410517
  15.9241557  25.8237147  55.2547789  16.1534595  26.5519357  55.8321428
  15.1406634  26.1219025  54.7927666  40.8553362  48.6038767   9.5930976
  40.2112399  48.7273585  10.2903193  40.9378528  49.4670265   9.1876334
  86.0488690  73.2123803  88.1709003  86.1671383  72.6140165  88.9085960
  85.1380069  73.0872225  87.9046345  11.8721724  35.7519126  76.8232107
  12.6184893  35.3170991  77.2357368  11.1251092  35.5205131  77.3751020
  62.5661755  16.6114736  94.1911793  63.3589077  17.1477795  94.1774750
  62.7573347  15.8862305  93.5964489  34.0614605  18.6703861  66.0955954
  34.3573785  17.9608059  65.5253696  33.8258839  19.3777001  65.4952288
  57.2823228  77.9596214   1.0246486  57.4628116  78.8409905   1.3515204
  57.5785006  77.3789053   1.7255610  44.1254915  37.1720748   7.2506732
  44.1198636  37.1179502   6.2950248  43.7219335  38.0180030   7.4450416
  58.2145739   1.7588460  51.2034607  57.4848127   1.1490361  51.0947657
  58.6075115   1.8197694  50.3327656 113.2832791  20.9119558  41.9999123
 112.3880034  21.0377479  42.3143816 113.3284979  19.9836457  41.7709398
   7.5192946  13.6589062  80.7555199   6.6303736  13.6275113  80.4018688
   7.6199758  12.8304350  81.2242699  33.6673951  12.8058982  69.4046164
  33.3818126  11.8923104  69.4101715  34.5504713  12.7830386  69.7732401
  46.7825747  27.0740867  60.6445408  47.3362780  26.8030977  61.3768053
  46.3201284  27.8474998  60.9673500 109.8250194  17.5007761  68.0447102
 109.4138016  17.5155687  68.9089537 110.5829777  16.9257450  68.1499243
  32.2497773  17.2578335  67.5177765  32.8224421  16.5735757  67.8642988
  32.8490567  17.9201674  67.1736717  95.8325113  87.1919208  24.0038699
  95.8516086  87.5783806  23.1283587  95.4218019  86.3363581  23.8791102
  89.1284813  80.7347612   0.9305972  89.4249023  80.8495216   1.8334788
  89.5704282  79.9396949   0.6326407  43.8899708  25.6629968  47.6584053
  44.8059464  25.3887033  47.6138306  43.9298201  26.6080332  47.8051996
  35.5818963   4.7330293  75.1703644  36.3519311   4.3309364  74.7683668
  35.8190274   5.6546926  75.2730131  64.1000223  41.4095974  31.5068007
  64.4134140  41.0445833  30.6792855  63.4140205  40.8053589  31.7905760
   3.8859879 104.6398174  80.7561016   4.5960842 104.8656573  80.1552773
   3.6944233 103.7214350  80.5660725  37.7400184  28.2694197  46.5743780
  37.7611113  27.5842094  45.9063387  37.2432637  28.9815402  46.1714506
  33.9932537  53.6068344  89.7120857  34.1766858  52.7395344  89.3510056
  33.8255358  54.1548777  88.9454365  80.2866377  74.0555577   3.8795680
  79.8090566  74.3301122   4.6623630  81.1378349  74.4868855   3.9547175
   1.9697689  20.7918715  57.4171638   1.2699872  20.9204626  58.0574799
   1.8321964  21.4834809  56.7698765  85.8351261 105.0109255  84.7058964
  86.3830627 104.2415523  84.5507717  84.9855883 104.7795885  84.3303967
  16.9852984  10.6797409  91.0786057  17.9251206  10.5211926  91.1670876
  16.5893137   9.8101383  91.1353397 115.3141502   9.5756173  69.0876293
 115.6516033   9.7923928  68.2185125 115.9487352   8.9530569  69.4425297
 110.0873198  23.1614161  73.8564682 110.4897960  22.7436471  73.0950785
 110.8215620  23.3560395  74.4389153  31.9634271  46.0606670  80.4639816
  32.9194355  46.0236597  80.4941559  31.6825676  45.1694870  80.6717014
  22.7883387  19.6706963  93.6256599  23.3654213  19.6696091  92.8619766
  22.1618915  20.3731632  93.4514809 112.0904457  12.8619230  60.5065107
 111.9546734  12.1157515  61.0904837 112.1367072  12.4761236  59.6317244
  52.0574856   9.3863970  61.8397617  52.8662014   9.6522760  61.4021397
  51.6541815   8.7605953  61.2381363 112.4852062 101.4214235  49.7405291
 113.3807040 101.0852086  49.7762156 112.5823117 102.3703741  49.8198700
  36.6573702 108.9092699  72.5122404  37.4935995 109.3329625  72.3187494
  36.8900954 108.1580242  73.0578613  18.1934083  34.1512275  78.4219599
  17.8096163  34.1879320  79.2980814  17.5133789  34.5032954  77.8476429
  15.7534111  22.5570297  89.0847778  15.4483247  23.4541249  89.2203140
  16.6522789  22.6546335  88.7705421 111.9572807  97.3190975  51.8447685
 112.8309918  96.9283234  51.8573380 112.0388938  98.1056093  52.3841858
  38.2037020  44.2029428  65.1582670  37.5912786  44.5362234  65.8140802
  37.9949784  43.2714891  65.0871325  39.4564795   9.2713332  80.8971405
  40.3964996   9.3673307  80.7442284  39.2528296   9.9319273  81.5592384
  26.6262245  14.3781507  82.8957748  26.2621045  15.2319455  83.1296158
  27.5735807  14.5149839  82.8909206  11.0329413  52.2858404   1.5473670
  11.3897585  51.4331325   1.2987727  10.0998091  52.2237264   1.3432807
 103.4341468  56.9212008  65.5141354 103.5486819  57.3586178  64.6704626
 103.7057545  56.0173941  65.3541470 113.6008073 102.7758526  54.3556976
 113.9896918 102.5385671  53.5138607 114.2934919 102.6092654  54.9949694
   1.6622578  88.9424252  66.7682695   1.2439619  88.3461737  67.3893547
   2.5181090  89.1286754  67.1543550  10.4068816  15.4390848  28.8995457
   9.7413629  16.0092330  28.5145164  11.1919928  15.5999517  28.3761406
  28.7210213  95.5357622  88.6483383  29.0575587  94.8603486  89.2372322
  28.4815489  95.0616049  87.8520679 102.5978722  21.4680004  39.8918033
 102.8258779  21.9325614  40.6970549 102.8528096  20.5605459  40.0584364
  52.6569891  40.6057119  48.2039642  52.9071283  39.9915743  47.5136757
  53.0835629  41.4271069  47.9598808  68.2610692  88.4893398   7.2993773
  67.9927243  88.2966809   6.4009875  67.5222243  88.2033997   7.8365725
   3.7629500  29.5171762  80.1421261   4.0966636  30.0400448  80.8711529
   2.9340130  29.9345183  79.9077749  63.2991266  32.8095865  88.7394524
  63.3905745  31.8684363  88.8881302  62.3844337  32.9975367  88.9498043
   7.0471083 107.6236501  58.0561113   7.9937493 107.7241077  57.9560280
   6.9446360 106.8292352  58.5801697  53.0111599  21.8923569  68.4080553
  52.7632666  20.9691167  68.3589888  52.5088120  22.2363114  69.1466808
  25.2057767  35.3544140  37.2561502  25.4084444  36.2105870  36.8791556
  24.4248176  35.0640321  36.7849708  31.0314059   1.5469643  85.4534626
  31.6037726   1.9279462  86.1194038  30.3173900   2.1778683  85.3619480
   7.6373559  17.2287202  80.8955860   6.9650185  16.5545976  80.9943390
   7.1598154  18.0553341  80.9655666  35.1598907  26.3463449  66.8178225
  36.0284972  26.3550067  67.2199154  34.5636654  26.5756321  67.5306845
  42.8568602  40.0490761  64.3405914  43.2730150  40.4824638  63.5954618
  43.5481167  39.9901962  65.0000906  54.8833657  95.9053712   8.4230823
  54.5989670  95.2573590   7.7785415  54.5095922  95.6007533   9.2499656
  23.2673287  29.9554586  80.6074905  22.7811289  30.7275867  80.3182411
  22.6572084  29.4880962  81.1780643  43.4349489  33.0402827  42.4741077
  42.7307749  32.6274395  42.9740381  43.9235735  33.5473180  43.1224871
  47.2656298  54.3828201  48.5079479  46.7814112  54.5707655  49.3119621
  46.6469240  54.5788050  47.8043699  32.8742170  23.3334613  85.0847149
  32.8763080  23.5773826  84.1591167  32.6221561  22.4100518  85.0884914
 110.7282897  64.9110556  39.2805767 110.1616492  64.1733742  39.0548038
 111.3914992  64.9236155  38.5904860  99.0284921 108.4812187  93.4942818
  98.8508035 108.8323201  92.6217079  99.5971967 107.7273341  93.3378696
  61.0611773  36.3890123  64.1185522  60.5469036  36.8609953  64.7735214
  61.9120407  36.2522483  64.5351553  82.1854652  96.6315894  18.8380736
  82.8301538  96.1731296  18.2991618  82.3547043  96.3232093  19.7282905
  49.9060869  16.9711971  43.6951494  49.7634792  16.8880296  44.6380043
  49.4782114  17.7944911  43.4599018  22.4566317  13.4921443  48.2066774
  22.8884959  14.0150821  47.5312042  22.8133726  13.8235867  49.0307617
  46.3116407   8.2266021  94.6217728  46.3481426   7.9128283  95.5253506
  45.3834629   8.1859380  94.3914223  43.9546680  53.8246107  67.6423025
  44.0575409  54.4092989  68.3931589  43.9209604  52.9476595  68.0244732
  50.6552935  41.1291981  70.5746412  51.4341354  40.5844069  70.4613447
  50.8831120  41.7277813  71.2859964  81.3000011  10.9688842  53.6466312
  82.1645355  11.1262310  53.2671022  81.0410213  11.8150425  54.0115690
  72.3796261  93.8202434   5.5986041  73.0273784  93.1840615   5.9017867
  72.6276649  94.6383600   6.0291785  17.5027907  45.7760906  52.7350712
  16.8285966  45.0972080  52.7636242  17.8296983  45.7513237  51.8357658
  37.8291821  31.3630509  69.2464972  37.1410704  31.0078406  69.8091316
  38.0628610  30.6379151  68.6670113  43.0441348  80.3864150   1.4813346
  43.6400126  81.1113529   1.2925738  42.4121017  80.7509952   2.1008891
  57.1847248  34.6775937  61.8369389  57.7239847  35.4672885  61.7944336
  57.6658916  34.0900612  62.4196196  74.6025991  28.0155516  21.4508724
  75.5576944  28.0542517  21.4005661  74.3040895  28.7343955  20.8937502
  20.0555515  34.1089129  82.1093464  20.7465029  33.9378405  82.7493095
  19.2742836  34.2712569  82.6380253   2.3699843 103.5679024  77.2367620
   2.1308695 103.7066858  78.1531668   2.5538145 102.6304530  77.1765232
  49.4220400  29.9332595  67.8611326  49.7969818  30.7664537  68.1465054
  48.4791231  30.0391984  67.9873133  60.1534939  30.2679682  53.1696415
  59.2284584  30.1722264  52.9429817  60.6010723  29.6166110  52.6296043
  44.3048716  43.2207108  50.9976435  44.9465561  43.0028439  50.3216219
  43.4942865  43.3829355  50.5150843  64.3505383  22.7397132  72.0824623
  65.1096106  23.3199120  72.1408510  63.6032009  23.3017135  72.2870970
  48.0845308  30.5730104  61.3512564  48.1241560  29.8317480  61.9555712
  47.6552629  31.2671161  61.8514347 101.0331882  95.8655219   9.1467685
 100.3502048  96.0026793   8.4902972 100.9166349  96.5847545   9.7675342
  60.9133005  46.0329247  38.9779782  61.3185072  45.3731060  39.5407248
  61.0673094  45.7159328  38.0880189  30.8437300  22.7849245  58.3784389
  30.3652525  22.1359801  58.8943481  31.6872883  22.3710513  58.1958151
  10.5171585  33.7582445  73.1745052   9.6949530  33.9934087  73.6045170
  10.2484643  33.3335972  72.3598242  10.9355152  20.5370831  75.5182266
  10.4867232  20.0465775  76.2068653  10.4265964  21.3426828  75.4274559
  27.7839375  11.3917267  81.1018181  27.2614312  11.6751349  80.3515530
  28.6261868  11.1374152  80.7247639  55.7958984  19.3172061  64.7431278
  56.6126442  19.6402597  64.3626070  56.0747194  18.7382841  65.4525900
  43.0026865  54.6282434  58.7742519  42.0830393  54.6123791  58.5092354
  43.0161858  54.1790152  59.6193838  43.1513596  25.2216625  64.4551945
  42.9968166  24.4482088  64.9975204  43.6441088  25.8162212  65.0208187
  32.4595857  22.9444671  61.2618637  31.6072536  23.3313060  61.0615683
  32.2622228  22.0369697  61.4936495  60.9704542   3.2513237  20.0864768
  61.0873556   2.3693199  19.7334397  60.9442997   3.8167560  19.3145740
  44.8958302  27.6575398  87.1331501  44.4581938  28.1356835  87.8374767
  45.8167219  27.9069400  87.2105408   8.7690913 104.6435499  63.5053587
   8.6952769 104.4927573  62.5629997   9.7066342 104.7643559  63.6558771
   3.5825239  83.7368225  84.9445248   3.6233174  83.8975810  85.8872414
   3.7344729  82.7959894  84.8551941  37.1197510  37.1391153  82.9289818
  36.3731217  36.7132449  83.3501816  37.8815746  36.8208218  83.4132767
  13.6660862  49.2970514  66.7986107  14.0909743  49.4347382  65.9520006
  12.8168690  49.7304726  66.7136955  50.6902170  16.7669380  86.0221004
  50.2682972  17.1576524  85.2568913  51.0097694  17.5145662  86.5272522
   3.7723385 106.4567151  92.3424339   4.4234453 106.8874320  92.8963089
   2.9407440 106.8588515  92.5933743  53.1570816  11.6535497  59.7290850
  52.2084332  11.6619360  59.6017122  53.5017681  11.2451434  58.9349604
 107.0363786  51.0200262  33.6524367 106.3108005  51.5831280  33.9220333
 107.3794289  51.4340639  32.8605270  44.6454716  32.6617646  64.6341658
  44.8198557  31.9517827  64.0163088  45.3983879  32.6552749  65.2251863
  44.6220636  39.9614620  66.4106131  44.0668392  39.2104721  66.6203022
  45.1394510  40.1054573  67.2029543  40.3112411  37.5498605  67.0935917
  41.1991215  37.7560043  67.3858356  40.0378227  36.8226528  67.6527357
  46.4664888  27.7983785  71.1946583  47.0350075  27.0297146  71.2412643
  45.5912399  27.4608278  71.3850117  38.7000942  32.7573705  21.1530471
  39.2696786  32.9616499  21.8947196  37.8128886  32.8357220  21.5037060
 101.3024820  85.3030591  20.9117145 100.5184711  85.7373552  21.2477988
 101.4811958  84.6078019  21.5448874 111.0328527  44.2063904  70.1615000
 110.6200578  44.1635466  71.0240555 111.4155867  45.0828695  70.1224089
  85.2106441  59.7004952   0.9204120  84.3234504  59.4727771   0.6424350
  85.7513822  58.9714448   0.6165713  47.0436049  44.7934008  59.2066479
  47.9412842  44.4770288  59.1051054  47.1376610  45.7310772  59.3744230
  45.3212357  21.9324851  90.4569054  45.7660770  22.5068736  89.8336601
  45.9577417  21.8033314  91.1600399  33.0595422  56.8483400  63.0232954
  32.6317453  57.6928234  63.1649780  32.5539708  56.2318754  63.5530090
  34.3604326  29.8426318  84.1183090  33.4314847  29.6590352  84.2582321
  34.7281408  29.0084434  83.8264942  52.3332405  43.2063484  30.2455926
  53.1306362  43.3921146  30.7414579  52.4810314  43.6147308  29.3925905
  56.3231564  26.4073300  60.7919025  57.1495819  26.8168759  60.5359173
  56.1518192  26.7432046  61.6717100  46.0012054   7.9554510  75.0380468
  46.4945650   7.8060818  74.2315006  45.9671164   8.9080817  75.1250219
  30.8581066  33.2055306  50.9647226  30.6989765  33.6079240  51.8185329
  30.5669618  33.8624620  50.3323412  41.5018749  47.9941225  32.4787474
  41.4964485  47.6029301  33.3523440  42.3597717  48.4129333  32.4091816
  38.4754801  21.1009002  84.9316788  38.9536905  21.0615993  85.7599354
  38.3571863  22.0364785  84.7675705  57.7449942  34.5923281  58.7280607
  57.1243429  35.1564074  58.2667160  57.4179268  34.5613313  59.6271133
  33.1087041  41.0959625  88.8182926  33.6406302  40.3440046  88.5578156
  33.0352736  41.0193682  89.7695923  23.2905245  40.8254147  76.1335802
  23.7945151  40.3128195  75.5015421  23.2458448  40.2695131  76.9115305
  44.3760014  29.2543817  89.4103527  43.7487888  28.8127089  89.9828529
  44.7074032  29.9830818  89.9351406  70.2891768  87.8099518   1.0251731
  70.2920664  88.6097484   0.4992885  71.1706246  87.4515920   0.9209460
  46.0838747  43.8338995  46.3983440  45.6477213  43.2759380  45.7543898
  46.6536808  43.2380676  46.8846989  31.3646841  53.3943415  72.8056288
  30.8689117  52.7016973  72.3689556  30.8484459  54.1870260  72.6593971
  92.1914055  20.2931553   0.7188910  91.9391551  20.1408058   1.6296023
  92.7234270  21.0883670   0.7475394   8.0899984  27.7429652  77.2935343
   8.2582396  27.4936748  76.3848114   8.9503849  27.9788780  77.6403999
  29.7588897  45.4471731  87.4660492  29.3517923  44.6710968  87.8510284
  29.8542047  46.0559416  88.1985474  89.1044868  86.8979316  15.0425643
  89.0305771  86.1519461  14.4473475  88.2018532  87.0949297  15.2929229
  82.6621070   5.8295017  32.5922317  83.5496970   5.9167772  32.9397983
  82.0944878   6.0975271  33.3148688  17.3429714  87.3663949  69.1330576
  17.3985754  86.4355397  69.3490458  16.4040600  87.5426816  69.0730858
  39.1591549  66.0045815  86.2621021  39.8824310  66.3731575  85.7549000
  39.2411089  65.0583220  86.1433506  26.5199900  48.4532547  73.4910774
  27.0430398  47.8362226  72.9792929  26.5965271  48.1416845  74.3929100
  36.8147802  53.3096409  47.9464531  36.3852739  52.5377512  48.3151484
  37.2882032  53.6953163  48.6835814  34.7649121  29.4152641  80.7260132
  34.5991111  30.1848125  80.1814556  34.8007011  29.7571993  81.6193390
  42.3769903  57.2846699  66.8523550  41.6697121  57.8803110  66.6049623
  42.2407150  56.5108824  66.3056278  16.6341853  36.9319367  51.5626335
  16.5535414  36.1354899  52.0874214  16.4760101  36.6435122  50.6637335
  59.9667597  45.5293941  56.0298443  59.3493700  44.8069620  56.1445427
  59.7920179  45.8559322  55.1471949  30.3027868  24.0182638  87.1394062
  30.6230879  23.7958336  88.0135727  31.0959077  24.1403198  86.6175938
  27.7674794  37.3895597  91.1451912  27.1790886  38.0900860  91.4267826
  28.5603714  37.5190949  91.6655540  24.0662503  61.9877863  62.9970026
  24.1364694  61.2602425  63.6150503  24.3290186  62.7572823  63.5020351
  40.0593472  22.9202056  67.8014469  39.2434955  22.5807834  68.1694269
  40.3178787  23.6219501  68.3988953  21.7788339  69.6109962  58.7551165
  21.2773705  68.8633490  59.0803719  21.1377549  70.1421070  58.2827091
  15.3884614  15.8343315  51.3245249  15.8627653  15.6016302  52.1227217
  14.6480870  15.2281141  51.3005161  14.3713295  31.2665248  76.7781067
  14.8623836  31.5679097  77.5424767  15.0289106  31.1869407  76.0871029
  22.1605825  22.1869159  65.1934910  22.6956129  22.6663160  65.8260679
  21.7757940  22.8672457  64.6409321   2.6021421  48.6728573  81.1988831
   2.2847296  49.5712948  81.1078167   3.5544610  48.7479830  81.1382484
 116.1811051  47.0794392  71.6280174 116.0923127  47.0349073  72.5800514
 115.8594051  46.2330437  71.3176107  49.4923925  28.2938862  39.1009688
  50.1131868  27.5986004  39.3187356  49.7298002  29.0172935  39.6811008
  62.7037907  12.1581519  84.9202347  63.1451559  12.3924780  85.7366371
  61.7981625  12.4405646  85.0479507  56.5635300  34.5203567  65.6572437
  56.5091610  34.0011644  66.4595652  55.6729174  34.5132542  65.3065491
  67.0522035 103.1674390  18.3833713  66.3818682 102.5038724  18.5463447
  67.8787149 102.6856284  18.4144420  20.2105212   2.5584218  77.0708656
  20.5635333   1.6740528  76.9733667  20.8507037   3.0128253  77.6185083
  51.0131550  35.4284453  83.3305740  51.0346222  35.5603671  84.2784023
  51.4151096  34.5697379  83.1991100  33.9418006  15.0579107  61.7799902
  34.1600060  14.4795370  61.0491657  34.5879960  15.7622445  61.7292166
  41.6817760  30.2892065  61.1046982  40.9028149  30.5914259  61.5717220
  41.3752699  30.1161432  60.2145672  59.1570807  18.6503339  64.7212315
  59.2383718  19.5476770  65.0443411  59.0667725  18.7444746  63.7729645
  71.4450420 109.1444293  74.7131586  71.2744082 108.8162641  73.8303089
  72.3928178 109.2755088  74.7409344  38.0662179  51.6379929  45.2123642
  37.9164338  50.9961843  44.5181894  37.2004461  52.0059252  45.3892612
  31.9244218  53.7267017  82.3065472  31.9782758  54.4900751  81.7315769
  32.5295997  53.0932283  81.9209194  72.5358070  70.4733484   2.6002044
  72.1043194  71.2236159   3.0090445  73.1939162  70.1983945   3.2385844
  41.9420338  24.4564700  49.1595364  42.4884272  24.7012067  48.4126854
  41.7894936  25.2791381  49.6244907  37.8574181  29.6060419  67.1295404
  37.5602865  28.7144780  66.9477224  37.8738451  30.0324440  66.2727165
  41.0364485  21.8371439  79.7784805  40.2937412  22.2667766  80.2027798
  41.1397457  21.0127187  80.2537537  39.0156555  44.3205786  89.9541759
  39.6346450  44.1773558  90.6701183  38.6841702  45.2069759  90.0978756
  25.5197334  37.9404449  62.7234316  25.5951142  38.1789374  63.6473703
  24.9402881  38.6051059  62.3510027  56.8306255  26.6356659  70.8294582
  57.1528673  27.4607038  71.1923695  56.1953497  26.3226533  71.4734173
 107.9358638 100.0776391   4.5436210 107.1284689 100.4486852   4.8995322
 107.6412595  99.3781428   3.9604014  47.6182890  25.2619028  70.9778357
  48.3534336  24.8569632  71.4380693  47.3751402  24.6240282  70.3068447
  45.6479454  11.8782878  86.4120960  46.3223171  11.2128007  86.2757778
  45.1058006  11.8347418  85.6244278   0.3031769  17.2567773  82.8236198
  -0.4072382  17.2393525  82.1823406   0.6118087  18.1628108  82.8145981
  75.3599061  81.4352183   5.9020061  76.0693873  81.6091948   5.2834529
  75.1717890  82.2868566   6.2964076  53.6516476  44.0993834  57.7082586
  54.5209265  44.4455433  57.5063705  53.8221121  43.2820940  58.1764603
  40.5306816  33.2414222  90.3067207  40.5923223  33.5901093  91.1960220
  41.4384985  33.1829071  90.0089359  41.0121918  34.0640044  58.0705118
  41.1057997  34.8455548  57.5258589  40.0688457  33.9806700  58.2097292
  57.1571779  20.8482051  62.1657515  57.7253771  20.0939274  62.0093966
  56.4993668  20.8004212  61.4720392  27.3034501  52.9470873  88.3447361
  27.5064564  52.2315025  87.7422714  27.3614049  52.5516367  89.2145061
  19.4733441  43.2783890  21.4992094  18.5683656  43.5264921  21.3102913
  19.4591558  42.9998064  22.4148631  56.8097032  73.2094758  19.9544448
  56.9558765  74.1530662  19.8873347  56.6717626  73.0543332  20.8888644
  32.3767757  53.9258242  61.6549873  32.3091698  53.8945532  60.7006931
  31.4702201  53.9780760  61.9577408  18.6848891  42.3480415  54.6848726
  18.2186890  41.9116926  53.9717913  18.4301126  41.8629885  55.4697609
  41.8392467  15.7312512  82.6863956  42.4817038  15.5670106  81.9960976
  42.3424864  16.1428344  83.3889484  20.0968432  34.7067952  66.5164709
  19.9603140  34.5923185  65.5760002  20.2642989  35.6433129  66.6219378
  17.3792124  63.0424309  58.0242729  16.6122627  62.9873228  57.4541998
  17.3455966  63.9279890  58.3860493  50.2470922  35.1824927  68.8804054
  50.3382015  35.7410288  68.1084156  49.9402618  35.7730222  69.5684195
  82.7776684  86.5365033   9.7465724  82.3384727  87.3006802  10.1198977
  83.5239805  86.8987231   9.2690295  45.4821348  34.6633220  59.5062256
  45.0556231  35.0292969  58.7313843  44.7678232  34.2767048  60.0126982
  46.5469551  20.8416605  59.6438646  46.3107443  19.9152243  59.5974493
  45.9081125  21.2217999  60.2468586  38.0672193  25.9229088  81.5088081
  38.8388038  25.4352570  81.7970562  38.1851506  26.0211778  80.5640030
  62.0294714  14.2400813  51.8961382  61.9918299  14.7210705  51.0694218
  61.1586380  13.8535547  51.9882202  24.2415881  18.6586046  64.3305731
  23.3611059  18.7313747  63.9622116  24.1900563  19.1204858  65.1673746
  56.0709143  15.2943623  73.5637474  55.3220415  15.8461642  73.3380699
  56.8190432  15.8914328  73.5569811  43.3400488   5.2312469  62.4699783
  43.0316639   4.9026614  61.6254902  42.8004885   6.0038513  62.6378775
  34.4012880  33.0174184  74.7601604  33.6261487  33.3040786  75.2430820
  34.5622230  32.1269703  75.0723028  37.1049714  38.8940120  91.5040112
  37.2958803  39.8166275  91.3350010  37.5761151  38.4222221  90.8172321
  28.1754231  31.2659812  53.9162683  28.6067057  31.1088943  53.0763006
  28.8840151  31.5280223  54.5040321  42.3372793  35.1568913  63.5727596
  41.7410994  34.6482372  63.0231476  43.0471182  34.5497251  63.7818289
  19.3152928  31.3468766  83.6553383  19.1173375  30.8014178  82.8940773
  20.2455568  31.1958790  83.8227844  38.6655951  49.9721861  52.9467106
  38.8642263  50.5175209  52.1855354  38.8095951  49.0758371  52.6433039
  35.7768035  43.4337521  75.4731655  36.1195731  43.3591366  74.5825624
  36.1733246  42.7011061  75.9445810  44.3365622  36.9686484  58.3390570
  44.3100405  37.5642490  57.5901985  43.9065742  36.1723804  58.0271244
  25.8103800  46.6388607  68.8251591  24.9882364  46.4391470  68.3774662
  26.2791395  45.8046246  68.8485670  43.4528494  19.7658551  78.6234283
  43.4801579  20.7200933  78.5533094  43.8986921  19.4549441  77.8355265
  44.1793203  27.9696965  37.3823762  44.5256376  28.8545251  37.4980211
  43.2494640  28.0466008  37.5961280  69.0710449  32.7177000  84.9215412
  68.3827877  32.0943642  84.6891975  68.6019564  33.4654379  85.2917862
  18.0481207  41.7866659  72.5475931  17.6692903  42.6321125  72.3068810
  18.3142507  41.3975525  71.7145300  42.7112627  33.8411188  73.4453249
  42.9403162  32.9125118  73.4071684  41.7587614  33.8491774  73.5397100
   2.0686775  45.4725361  37.7085876   1.1869351  45.2591419  38.0139160
   2.6492506  45.0856924  38.3639646  58.0082560   0.7772207  63.4308720
  58.5269117   0.1233328  63.8995552  57.2371244   0.2984022  63.1270361
  40.9829855  34.0083289  77.2875261  41.6959476  34.0999174  77.9196024
  40.7775688  33.0734420  77.2919798  47.2731686  14.1028094  71.5066814
  46.7898703  14.7277546  72.0471382  47.7696276  13.5773158  72.1340704
  94.7821630  68.6013155   7.5572223  95.4375423  68.0094390   7.1879024
  94.2870439  68.9131074   6.7996806  48.6927176  59.7117662  56.9912291
  49.0564728  60.5270720  56.6459942  49.2255878  59.0239096  56.5923166
  45.6621504  52.1350193  86.4939785  45.3450155  53.0141211  86.7009544
  45.4548025  52.0177031  85.5669022  33.1278038  44.1315842  75.3806114
  33.9877224  43.9512682  75.7604218  32.7317381  43.2680416  75.2637434
  13.3747029  28.5283971  47.9602003  12.5330007  28.8959432  47.6906109
  13.9501345  28.6712122  47.2087240  54.0617514  52.4169016  60.0000048
  53.1249142  52.3574924  60.1871872  54.4628572  51.7662477  60.5762005
   3.8965994  23.4749365  68.0173922   3.2347497  24.1465974  67.8529024
   3.7803406  22.8448820  67.3062325  35.3220391  69.8890877  80.4458046
  35.2073240  69.1375732  79.8641634  36.2666559  70.0435734  80.4540539
  44.4762707  60.0273275  74.4172382  45.0817919  60.7607746  74.5250940
  43.8965702  60.2980328  73.7052727  82.4420084 105.8913760   0.6716937
  82.3969568 105.1418738   0.0780219  82.0376886 105.5800872   1.4815444
  33.1474543  40.6380987  66.4329815  32.4799299  40.9677744  67.0346117
  33.8321757  41.3068581  66.4451742  59.7772169  92.1880150  51.1849356
  59.0624237  91.7368507  50.7357740  60.5614805  91.9420338  50.6943655
   3.7897753  15.6774379  44.7826529   2.8596281  15.7795764  44.9842119
   4.0890955  14.9883223  45.3757477 115.2989960  73.9018106  51.2759876
 115.1633549  74.5085764  52.0037746 114.5260048  73.3373690  51.2874985
  74.8265600  83.6692524  26.2364268  74.8680592  82.9821491  25.5712914
  75.6093216  83.5333633  26.7703247  59.0776777 107.6765919  71.1033058
  58.5277081 107.2931767  70.4201078  59.9312592 107.2596931  70.9857130
  78.3744240  98.6454296  60.2649450  78.2831907  97.8027916  60.7097769
  79.2056179  98.5793495  59.7948599  45.4261112  71.5311956  72.6201487
  45.9742737  72.0961285  73.1647587  44.7406244  72.1108055  72.2879076
  71.0988855  34.8955703  51.4587927  70.7457924  34.0345550  51.6828680
  72.0161295  34.7291446  51.2415361  51.1755180  89.8049927  59.3732977
  51.3722706  89.1410637  58.7124443  50.2374458  89.9688339  59.2763186
  52.1581745  30.4515815  91.8249130  52.7716255  29.7788525  92.1204567
  51.3159323  30.1868081  92.1947193  59.9084616  73.9207363  68.9896297
  60.3100681  73.3140564  69.6116257  60.6451035  74.2773199  68.4932041
  66.8006992  77.9699326  39.4928193  67.0882273  78.7708092  39.0544605
  67.4794531  77.3272181  39.2868018  95.5680431   2.5565387  78.2672977
  96.4828933   2.7716399  78.0856085  95.1891006   2.3757983  77.4070835
  32.3439169  67.8830671  73.3634567  31.4199424  67.8644180  73.1141424
  32.3887515  68.5288715  74.0685511  51.3741207  83.1673908  60.1516294
  51.9334364  82.4088669  60.3190851  50.8218956  83.2344055  60.9305954
  64.4884253  61.2232924  57.1682596  64.6250916  60.9138012  56.2728453
  65.2624607  61.7529917  57.3593569  52.5256395  76.0259771  80.8050251
  52.7478456  76.0032177  81.7358017  52.0244694  76.8344545  80.6981277
 100.3481770  60.1447153  60.4990673  99.5442581  60.4114437  60.0531960
 100.6356239  59.3629980  60.0273418 100.0615597  63.8596582  60.7644844
 100.7829380  64.1874552  60.2274609 100.4888630  63.3620596  61.4616489
  66.1090279  83.3955574  56.3772964  65.7607365  82.5190353  56.2140894
  66.8220711  83.4913349  55.7459259  61.5608358  83.8267612  41.8106318
  61.5264225  84.6659088  41.3514137  62.4919510  83.6064625  41.8375301
  59.7526217  87.1966171  92.0468044  60.0154829  87.6886463  92.8246498
  60.2074814  87.6296520  91.3244343 101.6769981  88.4435654  70.1178122
 101.4628220  87.5935745  70.5023623 102.5175381  88.6791515  70.5105114
  29.0357780  60.4047155  69.9823427  28.1596398  60.7895756  70.0045395
  29.2558670  60.2570057  70.9021139  52.5431013  65.4150391  67.2135496
  52.6827717  65.6695414  66.3014364  52.6254702  64.4613934  67.2114229
  86.5277767  73.0746460  34.5738125  86.5949821  73.4876299  35.4347181
  87.3963261  73.1848097  34.1868639  25.4955816  60.3320026  94.3581104
  24.9448919  59.7925854  93.7906551  25.0470185  60.3254414  95.2036762
  91.6016960  97.2610474  33.4172249  90.9819126  97.9695225  33.2435369
  91.9039917  97.4210739  34.3112278  67.9131889  92.8196430  59.4206381
  67.8865719  92.4660683  58.5315323  68.8175964  93.1113720  59.5354080
  77.8556156  67.0117378  89.8555946  78.7758970  67.2590923  89.9457741
  77.3727703  67.8221464  90.0178528  74.8761034  69.0789175  77.6102209
  74.1581345  68.6780548  78.1001854  75.6516457  68.5834074  77.8733492
  29.5235753  57.2358418  92.0137596  28.9291167  57.6874018  91.4146423
  29.8796105  56.5124083  91.4978981  41.4456224  81.3322449  66.3973522
  42.3723459  81.0946178  66.4282274  41.0103130  80.5541134  66.0491514
  67.7198744  75.8917475  73.6181164  67.6285505  76.0513306  74.5574951
  66.9211769  76.2542534  73.2348347  43.8387537  74.0273476  79.7248650
  43.6505795  74.0693140  80.6624508  43.1101370  74.4920778  79.3133068
  86.2368774  52.2815180  47.0292044  85.7665157  51.4549065  46.9210291
  86.4302731  52.3262739  47.9655981  66.7721081 107.3200035  90.6722641
  66.7072630 106.4622021  90.2525043  66.4347506 107.9325867  90.0186825
  49.8074425  15.4628378  20.4309577  49.4494617  14.5781284  20.5042571
  50.7507026  15.3500276  20.5482882  74.9715805  96.7875671  86.8183708
  74.7983074  97.5102043  86.2150478  74.3945599  96.9542122  87.5636959
  54.3365383 100.1302624  61.2527895  54.2159414  99.8043251  62.1446705
  54.3932009 101.0807514  61.3507509  86.5975380  70.0480700  63.2753897
  86.0671520  69.8785973  62.4968004  86.8510532  70.9677553  63.1969690
  52.8515053  79.5238352  80.1694584  53.1309032  80.4264069  80.0160408
  52.9542255  79.3983793  81.1128235  74.7789478  79.1723251  42.1266603
  74.8082590  80.1264286  42.1977234  74.2650175  79.0066910  41.3362980
  61.8528318  81.4230633  51.8909740  61.0221434  81.0359001  52.1672058
  62.5202131  80.8321667  52.2398043  51.8945932  91.7238426  80.6188679
  52.8462601  91.6280746  80.5815697  51.7552948  92.5614643  81.0606956
  72.8132057  68.9265823  81.8298435  71.9556761  68.9923191  82.2500229
  73.1991577  68.1310129  82.1963596  75.0336218  94.3362522  52.1702385
  75.6089687  93.5723686  52.1291304  75.2403450  94.8346329  51.3795996
  74.3004084 102.1629906  45.2372408  74.1662788 102.8952217  45.8389711
  75.2508402 102.0564938  45.1976871  48.0233765  70.1690197  67.6084471
  48.9071560  70.2979279  67.2641468  47.8010750  69.2698336  67.3670483
 100.3249454  54.4344139  93.6298180  99.3966961  54.3187332  93.4268475
 100.7072639  54.7706223  92.8192425  83.0870819  76.9628525  54.5428085
  83.3867645  76.1251497  54.1897202  82.9455757  77.5111866  53.7710953
  25.9651029  21.7529684  41.2064857  25.4714906  21.4058881  40.4634494
  26.2476337  20.9766536  41.6899604  95.7876587  85.0076962  85.5011940
  96.4666176  85.4591656  86.0026073  94.9648380  85.3128624  85.8833790
  44.3616629  76.8808889  65.2517080  44.8062134  76.1270905  64.8638868
  43.7629843  76.5010929  65.8948040   5.5542241  68.9190006  62.9177237
   5.2176724  68.0233240  62.8906393   6.2197171  68.9041090  63.6055660
   2.0717774  70.5648994  89.8175144   2.4555264  70.2798986  88.9882183
   2.1235905  71.5202856  89.7896099  74.3768263  65.3954554  41.8495512
  74.3562269  65.8878326  42.6701403  75.2402496  64.9823761  41.8396950
  68.5085106  71.3554478  70.1795340  69.4198227  71.1165524  70.3488636
  68.1570578  70.6193829  69.6786118  30.9402645  23.6225420  10.1819056
  30.1936138  23.0309826  10.0880832  31.3395965  23.6439901   9.3122500
   1.9782887 100.0817013  85.4658318   2.3735295 100.9126186  85.7296467
   1.5099774  99.7812557  86.2447166  46.8187225  47.3759847  37.4706859
  47.1304500  46.5652471  37.0685023  46.3025081  47.0869928  38.2231730
  72.6256895  59.1987419  70.1954556  73.2672167  58.6252880  70.6147718
  73.1151915  59.6372795  69.4995356  85.8819485  72.5232172  40.7110119
  85.6109047  71.6559601  40.4099751  85.2025414  73.1132078  40.3846025
  83.1303596  88.2265663  58.0493450  84.0133953  88.0834103  58.3899260
  83.0185127  87.5498009  57.3817301  92.3953247  66.3312674  91.3787556
  91.8986988  65.5480576  91.6157627  93.3115578  66.0744524  91.4826488
  74.5232487  66.9377375  82.9744911  75.3069639  67.2627544  82.5313377
  74.7525120  66.9466400  83.9037895  76.8466568  66.0539913  73.7071991
  76.3732147  65.8575821  72.8987980  76.4341545  65.4973078  74.3676329
   1.3441143  57.1539640  43.6030912   1.3316689  56.2062359  43.4693527
   0.6068669  57.4785185  43.0860186  47.9046619   6.9844156   0.7544154
  48.0502117   7.7795797   1.2670154  47.9345691   6.2760597   1.3975066
  70.5798101  62.6892757  55.1110840  69.9354124  62.0365238  55.3847647
  70.3062534  63.4946442  55.5501509  66.3239908  79.2727852  68.4130192
  65.6983662  78.6114788  68.7088299  65.7905960  80.0502872  68.2480669
  86.3168049  88.8755989  63.3691454  87.2628498  89.0204334  63.3849955
  86.1568642  88.4283829  62.5380945  71.0954189 104.6625519  50.4324484
  70.3942156 104.3128967  49.8826456  71.3525105 105.4783249  50.0027370
  80.1872063  65.6995916  19.4104886  80.3683281  65.7152748  18.4707105
  79.3245077  65.2909946  19.4813633  54.7328424 103.2808495  79.2957497
  55.1733541 103.1046581  80.1270962  54.2729759 102.4666786  79.0910959
  37.0073450  52.8070837   1.9229144  36.9406021  52.1640211   2.6287765
  36.1027324  52.9545789   1.6469592  90.5195236  80.8274460  70.5403376
  90.3819656  80.7329273  71.4828730  90.7837677  79.9550581  70.2481842
  21.8361712  92.1164608  48.2847881  22.3381042  91.3084793  48.1777477
  20.9933305  91.9315052  47.8704882  16.1582636   5.4032088  66.9873381
  17.0007395   5.8567191  67.0156956  15.7752585   5.6616164  66.1490250
 103.5361767  68.0625296  78.9312983 103.1752586  68.8430882  78.5109377
 104.3732929  67.9182816  78.4901047  98.2367611  76.3511181  41.4018869
  97.8958797  75.5098438  41.7056751  98.9301777  76.5677404  42.0251703
  60.8845282  78.2896280  72.2112560  61.5537643  78.9285278  72.4565458
  61.2994862  77.4396753  72.3582983  62.3223400  83.8197327  50.5863428
  61.8734550  84.3972683  51.2037468  62.6795244  83.1182289  51.1309147
  57.7177763  83.2888603  47.0905256  57.6373100  82.5791454  46.4533043
  57.0368910  83.9134884  46.8406010  88.9551258  83.1234932  61.9270897
  88.0171871  82.9657650  61.8192434  89.2189598  83.5614109  61.1178637
  54.4083214  93.8873196  64.2052794  55.1640034  93.8630104  64.7922945
  54.6775866  93.3694267  63.4466505  85.9388828  91.0570240  46.3939619
  86.8134689  90.8468914  46.7213249  85.3815842  90.3564358  46.7328215
  84.5674419  75.3998518  71.0422373  84.9497032  74.8091602  70.3932428
  84.3166828  76.1760330  70.5413485  35.6408286  76.9277477  90.2719307
  36.2925005  76.2537622  90.4650688  36.0614872  77.4876451  89.6193981
  23.3670843  17.5279623  15.4011649  23.8467253  16.6998487  15.4211825
  22.5369680  17.3137241  14.9754447 110.6425858  92.4644566  79.1625500
 111.4537621  92.8840256  78.8758707 109.9523926  93.0742931  78.9018393
  71.3632536  72.5948334  82.7395153  70.8570719  71.7913723  82.8597546
  72.0602512  72.3499775  82.1308422  67.7173853  98.4719372  74.2113018
  68.0650234  99.3276787  73.9601421  67.9895687  98.3608150  75.1222372
  24.3049133  35.3889280   3.3657760  24.6003521  34.4942480   3.1969756
  23.4174049  35.4195123   3.0085296  69.3040037  67.0132303  52.2266674
  69.1912699  66.0942030  51.9839525  69.4845057  66.9923449  53.1664658
  77.1527386  79.7627020  85.1525784  77.5290155  79.0079641  84.6997929
  77.7898788  80.4644012  85.0187397  82.9487228  63.2511854  74.6448183
  82.1603870  63.0401564  74.1445971  83.5826683  63.5327911  73.9852476
  38.4430206  24.4157224   9.9767703  38.7180841  23.5327869   9.7297973
  38.7883413  24.5355039  10.8614367 103.7180138  85.2778625  51.0131598
 103.2429218  84.9588776  50.2458525 103.5447311  86.2191391  51.0279274
  83.7278938 107.8736210  79.3824339  83.8527584 106.9324017  79.5038128
  84.5854759 108.2551670  79.5700502  78.8399267 102.4800968  68.9940453
  79.7077417 102.0769119  68.9702368  78.9748621 103.3599281  68.6420155
  69.1684008  93.1122875  67.3567963  69.6210861  93.6941814  66.7462969
  68.7407541  92.4639797  66.7972946  88.6600685  95.1176453  81.0086632
  88.4581947  94.3076420  80.5402851  87.9649830  95.7230663  80.7507229
  34.3943667 105.0575161  75.9377813  34.8909140 105.8685589  76.0467196
  35.0273418 104.4355011  75.5790663  92.4138927  74.7282124  27.5229096
  92.2389507  73.7909794  27.4379468  93.3647728  74.8026514  27.4422503
 108.1791019  87.9935265  72.0976114 108.6151600  87.7643394  71.2769079
 107.9987717  87.1518040  72.5162029  94.7952080 103.4451008  55.3442383
  94.8814201 102.5257874  55.0918961  94.9358177 103.4477711  56.2910509
  73.6174345  85.1187897  80.4199505  73.4761858  84.1722965  80.4406834
  72.9209709  85.4525566  79.8544645  74.4154501  69.7134447  74.8490143
  75.1575661  70.2505589  74.5715094  74.5776844  69.5417023  75.7766008
  12.8618229  33.1037336  13.1757659  12.3689020  33.6743932  12.5861758
  12.4391973  33.2165723  14.0271682  69.0828800  93.7435627  49.6729946
  69.9150610  93.5962009  49.2235661  69.3060017  94.3125153  50.4096985
  13.2605636   9.9710088  12.9403800  12.9439438   9.2074304  12.4577445
  13.6877430  10.5132538  12.2772616  59.6418810  71.2462807  83.1122684
  59.6995974  72.1540594  82.8142166  59.2508745  70.7766867  82.3754978
  95.5057621  64.6128702  71.7333078  96.0404778  65.0852442  71.0951996
  95.9896278  64.6905279  72.5555420 114.3244280  10.4768992  72.3635530
 113.4236301  10.1532031  72.3665857 114.6380438  10.3041125  71.4758492
  79.4769621  71.4796782  76.7581654  79.3924379  71.9293022  77.5989532
  79.6693182  72.1773815  76.1317158  75.7192087  88.0738449  87.7727795
  75.8148003  88.5348892  88.6061668  76.4325666  88.4097099  87.2300529
  80.3268528  81.8071556  67.5063324  80.6495190  81.9302177  66.6135979
  79.3768740  81.7394447  67.4104500  72.0909309 102.4720383  66.2128353
  71.9688272 101.5731716  66.5183783  72.6441669 102.3879623  65.4362440
  93.9778233  61.2162304  67.3705101  93.4152126  61.0735321  68.1316471
  93.8742447  62.1457958  67.1670151  86.7700005  62.9459763  59.6143150
  87.4691677  63.4162760  60.0684214  86.0649681  62.8843355  60.2588034
   2.3369110  23.5295158   3.5580462   1.9853914  23.8898664   4.3721789
   2.4302757  24.2876440   2.9811973  96.6044426  93.9776993  70.3646231
  97.3843098  93.4273529  70.4364061  96.7076683  94.6308327  71.0567188
  54.9864483  89.6422863  53.0286455  55.8303070  89.8868847  53.4085226
  55.1323938  88.7699604  52.6626110  70.3494501 104.8886395  69.4768143
  70.6258106 105.0954056  68.5840082  71.0949278 104.4236660  69.8566723
  65.1864290  96.8133926  44.8205805  65.0358915  95.8690834  44.8636103
  65.3694725  97.0682049  45.7249069  71.0192060  50.3063488  66.6902065
  71.2091494  49.5915508  67.2978401  70.6390190  50.9924269  67.2388315
  72.1036434  96.2044334  91.5052032  71.4990902  95.6599331  92.0094490
  72.4925518  96.7929077  92.1522522  94.7906494  90.2355671  95.1829815
  94.0061283  90.2376938  94.6345615  95.2640533  89.4460392  94.9207497
   8.0363140  53.4481859  89.1265678   7.2640667  53.9840984  89.3072796
   7.8804932  53.0906010  88.2524490  27.3641241  16.5661817  28.1206340
  28.2465542  16.9362121  28.0957240  27.2840011  16.1968857  29.0000838
  35.5677164  11.2765651   6.8360824  34.9435365  11.9538456   7.0966929
  36.1799848  11.7263847   6.2538260  94.2497540 107.6444530  84.9089718
  93.8874626 107.7244282  85.7913399  93.7647438 108.2874584  84.3917274
  81.3415241  68.4977627  46.7239952  81.9202232  67.9611683  47.2656584
  80.5293369  68.5569334  47.2270775  27.3085106  24.1502481   7.3553103
  27.8442467  24.8774725   7.6721210  26.4124382  24.3939977   7.5874156
  97.2980118  88.7820911  50.6797457  97.5228977  89.6462440  50.3349543
  97.9777813  88.5986137  51.3281965  91.5571785 108.0407810  41.9040442
  92.0866203 108.8356781  41.9678497  91.1999321 107.9196930  42.7837849
  45.6802225  74.1253948  73.8503551  45.6767178  73.4156275  74.4925785
  44.9126625  73.9575052  73.3036375  24.2779339  12.3971849  13.9051265
  24.2606390  12.7252203  13.0060500  23.3624351  12.2043091  14.1073531
   4.7846566  69.3092823  71.0808516   4.9030838  70.2242088  71.3360262
   3.8514195  69.2351532  70.8813095  68.6103500  26.3667918  19.7615445
  69.4814457  26.1070681  20.0615001  68.0617655  25.5998946  19.9263442
  61.8338669  36.9660574   4.4703788  61.4067924  37.8069311   4.6340102
  61.5645588  36.4138036   5.2043456  86.8302727  76.7285872  79.2928743
  86.7164135  75.8249331  78.9984655  86.2196255  77.2340345  78.7563515
  65.4486609  64.4942665  61.8203735  65.1936388  65.2199316  62.3901176
  65.3611422  63.7157583  62.3703718  70.2681828  97.7661896  63.6619520
  70.5687523  97.6431370  64.5623684  70.3618050  98.7056923  63.5044813
  82.0610523 105.2469349  64.8208189  81.3409710 105.8595276  64.9706602
  81.7834473 104.4402122  65.2548218  98.8150501  63.1712437  52.4262094
  99.7017574  63.4951115  52.5845766  98.8482475  62.8045130  51.5426683
  57.1601677  75.1406097  52.3915195  57.2816801  74.7882700  51.5098619
  56.8046951  74.4083643  52.8951931  66.0756576   7.5066524   9.3863982
  66.9319046   7.8800922   9.5952338  65.4916561   7.8550392  10.0600451
  36.7124748  86.0888004  66.0615063  37.0199585  85.4654503  66.7196321
  36.4168978  86.8454075  66.5678740  76.9068384  83.3416367  75.1968384
  77.3469687  82.4919796  75.2210808  77.3164845  83.8027859  74.4648743
  16.6052997  32.6069551   9.1767711  16.3535726  32.9363638   8.3140105
  15.9377992  31.9542318   9.3880481  93.1543159 106.2455177  80.5367374
  92.5818253 106.9932079  80.7083035  93.3567429 106.3080692  79.6032810
  91.5395832  90.5436707  73.0780983  92.3936844  90.9524918  73.2181168
  91.6278172  89.6689224  73.4566069  65.4451990 106.6382217  81.4863586
  65.7068062 106.9944477  80.6373024  65.7378387 107.2923279  82.1209812
   5.8239327  64.1099215  53.3566713   5.1742230  63.4191465  53.4868336
   5.7818756  64.3049717  52.4205017  98.0000401  66.6974831  77.0004272
  98.2146358  66.3889074  77.8807449  97.8051662  65.9001303  76.5080023
  99.8267365  81.2988663  58.4137630  99.8326397  80.4710197  58.8942480
  99.4990349  81.0688400  57.5443220  65.9622431  88.9898586  85.0530338
  66.1888361  89.3946171  85.8903313  65.6805277  88.1045437  85.2834320
  86.8393993  89.8924065  74.5446444  86.5332890  89.1523361  75.0688791
  87.7723885  89.9600315  74.7475719  70.4721594 100.0674152  49.5975733
  69.6290541 100.1471138  50.0437212  70.2924681  99.5042419  48.8447332
  88.4387411   7.4473525  89.2569160  89.1792072   6.9337607  89.5796680
  88.4186186   8.2197715  89.8219013  69.7977257  73.6882257  71.8010902
  69.8713446  73.1946182  72.6178932  69.1292143  73.2221508  71.2990046
  36.5836942  30.1968294   2.4785823  36.3472545  31.0548788   2.8308219
  37.4972666  30.0752454   2.7371043  47.4530602  76.1950064  91.0195541
  47.4727201  76.0707140  91.9684505  47.2529650  75.3273058  90.6684303
  45.9510124  19.5537477   7.3641604  46.6111934  19.6203333   8.0540580
  45.3719127  18.8488680   7.6540393 109.4483471  95.9919834  63.5604858
 109.4107151  95.0785255  63.8440752 109.6955872  95.9460449  62.6369095
 107.0359375  43.3313661   3.0039710 106.5956452  43.0386835   2.2060222
 106.3980129  43.9004903   3.4345263  98.2298851  91.0210705  62.5702477
  98.1104374  90.8412552  61.6377115  99.1242313  90.7353497  62.7566338
  88.8963223 100.1823139  84.8391533  89.2498398 100.0153255  85.7128716
  88.9674091  99.3414783  84.3872833  60.3632402  85.0758648  72.8793430
  60.8347797  84.8107624  73.6690235  59.4462109  84.8790264  73.0705261
  69.4470692  81.4251137  71.2637758  69.1364145  81.9562054  71.9970369
  68.8610172  80.6684017  71.2509108   1.3723622  62.1905422  51.9470644
   1.4062367  62.6342297  52.7945471   2.1892510  62.4384499  51.5141010
  47.2673023  16.7763382   1.9862575  47.7453697  16.7343383   2.8144664
  47.3204696  17.6957660   1.7253798  59.9479246 101.8237114  57.7202702
  60.0738573 100.8776474  57.6471949  60.8293724 102.1732712  57.8510046
  88.9755630  74.7683668  74.9840021  89.7307682  74.3477106  74.5729733
  88.8147163  74.2525625  75.7741308  19.7701776  12.1462780   0.2692622
  20.3104389  12.7692705   0.7553023  18.9379967  12.1311336   0.7419986
  63.1758499  75.3551674  60.5633020  62.6233053  74.6977329  60.9860420
  63.7342167  74.8529625  59.9697876   1.9258557  63.5057545  85.5918884
   2.4456845  63.7574959  86.3551998   1.0199795  63.6686373  85.8547401
  88.1543732  54.5971870   5.6551284  88.1993484  53.7710810   5.1737165
  88.3643532  54.3597937   6.5583378  96.5044416   3.4819461  51.0212421
  95.8209432   2.8510237  50.7954359  96.0799898   4.3356467  50.9359884
  76.5310764  88.9603329  55.9954405  76.4892387  88.5701847  56.8685198
  77.1158171  89.7113895  56.0964966  81.0286999  88.2645893  84.1374302
  81.8089771  88.0800247  84.6602345  81.0585499  89.2095852  83.9879704
  97.9393673  72.1302938  71.2608767  97.8292751  73.0728626  71.1356544
  97.1743393  71.8655682  71.7716503  57.3864925  14.3186670   6.5681857
  57.9365814  15.0793987   6.7550487  57.7334392  13.6277776   7.1325702
  50.3391552  96.6118717  56.5306091  49.5794964  96.0345173  56.6068411
  50.9197760  96.3387871  57.2409153  69.0838766  83.5111618  34.8888302
  68.6246300  83.1814957  35.6612611  68.3981514  83.9142990  34.3563867
  95.3665638 101.6465282  61.3103437  95.2468395 100.7076740  61.4533377
  96.3132954 101.7778778  61.3621426  75.0058222  88.4592819  75.4249096
  74.8684454  87.9230309  76.2057972  75.9500170  88.6152363  75.4045200
  53.0553055  83.4274960  71.7815971  52.2549391  83.8085365  71.4204073
  52.7489519  82.8236771  72.4581861  99.3986320  95.7859039  21.2288070
  99.5044327  96.1236286  20.3394389  98.5213184  95.4031658  21.2368798
  62.0010614  84.7709465  63.6567831  62.9369259  84.9708176  63.6358166
  61.9410706  83.9573097  64.1574144  79.4738054  69.5418310  60.8411646
  79.9526787  68.8244295  61.2561941  78.5541248  69.3584871  61.0329962
  25.4528511  65.6593519  15.6838244  24.8131883  65.4725080  14.9966926
  25.7295454  66.5600019  15.5149859  69.9585438  77.2266960  81.1574078
  69.2258883  77.5895214  81.6552067  69.7955179  76.2835741  81.1443329
  66.2830353  76.3070726  71.3531876  66.3114548  75.6443024  70.6631422
  65.3967667  76.6654301  71.3047314 115.9652545  41.8088537   9.5345897
 115.5319765  41.1503416   8.9915771 116.8372013  41.4490705   9.6973628
  53.6403799 103.0923748  94.7940445  54.0183020 103.1593323  95.6709290
  53.8902473 102.2192669  94.4915771  36.2749231   8.4496265  14.0927714
  35.8360994   8.3880144  14.9412269  36.9010866   7.7256447  14.0938395
  83.5086441 109.5416451  62.3373079  83.2871723 109.0773869  63.1445551
  82.8434181 109.2604733  61.7090893  93.0543518  77.1563005  68.1421232
  93.3046627  76.4168692  67.5882149  93.0604935  77.9102135  67.5523710
  91.3573742  79.6232224  90.5390644  92.1065521  79.9134064  91.0593987
  91.5371323  78.7015152  90.3536606  29.6278370  26.6630750   8.8280124
  30.2511633  25.9378248   8.8693351  29.4822109  26.8006998   7.8920096
 101.9907475  59.3831444  71.0714102 101.8343353  58.4832907  70.7849979
 102.1356010  59.8708105  70.2605915  89.7067261  95.0895691  73.9560366
  89.9856281  95.2053070  73.0477142  89.8400497  95.9476566  74.3587065
  73.5330153  93.6813068  45.5018568  73.2209921  94.5835686  45.4325867
  73.7687445  93.5795307  46.4239740  40.9612549  30.7864099   3.9940089
  41.8442428  31.1052232   4.1808814  40.3891313  31.5201955   4.2186278
  63.0870247  86.3284874  49.1835451  63.3448839  85.7326603  48.4801722
  62.5757790  85.7846165  49.7827673  74.8453808  55.1673937  35.3746867
  73.9085340  55.0899887  35.5551147  75.1624250  55.7983494  36.0209155
  76.4968634  64.4818974  45.3876019  76.3149023  65.0483036  46.1374712
  77.2758293  63.9881468  45.6438398 105.5634403  84.4689751  38.6467385
 104.7932339  84.0809727  39.0620279 105.4479313  84.2902565  37.7134919
  60.6876993  74.5026970  90.6154346  61.6249037  74.6821690  90.5401421
  60.2731180  75.3630114  90.5505276   4.4255613   9.3119479  29.9302578
   5.2086138   9.3306876  29.3800616   4.6168589   8.6520529  30.5967259
  79.7167826  88.3838558  70.7808256  79.4226789  88.8538074  71.5611315
  80.1534557  89.0502357  70.2502728  28.9203346  46.4320284  11.4491290
  28.0246008  46.1201959  11.3201064  29.4514501  45.8784776  10.8766479
  27.2276186   4.3333388  49.7384644  26.3702940   4.2679644  49.3178082
  27.0465445   4.7291232  50.5909920  54.8218620  11.1580902  31.9591445
  54.3724525  10.5649763  32.5612086  55.2954281  11.7641693  32.5289172
  89.1512871  38.7245822  56.4135170  89.0332413  39.1405487  55.5595446
  90.0924397  38.5600805  56.4717627 109.5931244  72.5629187  85.9350300
 109.5435429  71.6209698  86.0978317 110.5213642  72.7745724  86.0340977
  49.5492840  86.1062241  76.0916138  48.9010525  86.6233253  76.5697622
  50.2228880  85.9062481  76.7416143  25.2383411  17.5566917  36.2497825
  25.0191200  16.6612821  36.5074843  26.1561430  17.5109249  35.9818667
  93.4377193  62.2271681  26.7649055  94.0132046  62.5708294  26.0815716
  92.9580116  62.9926443  27.0813847  57.9593563  76.5274525  90.5747509
  58.0738926  75.6151056  90.8407021  58.2923841  77.0360756  91.3140965
  80.8826412   5.2479315  78.9828348  81.4547361   4.4910289  79.1094875
  80.6327022   5.2074481  78.0597305  66.0838604  82.7562046  50.0719595
  66.8699121  82.2174549  49.9819469  66.4157486  83.6364365  50.2488232
  67.7526522  66.5559101  41.1714315  66.9203520  66.8790340  40.8263254
  67.5987864  66.4530945  42.1105719  32.6327026  22.5912910   2.2608584
  32.9533184  21.9139677   1.6653174  32.8339517  23.4151989   1.8171138
  86.2592125  79.3931150  69.4815636  86.6945076  78.8300085  68.8415146
  86.6392803  80.2594852  69.3360281  73.5942554  99.1911602  56.3041544
  73.7429142  98.7535000  55.4659510  74.1985083  98.7612057  56.9093370
  65.5171394  81.3053513  54.3423319  64.9959755  81.8794632  53.7810659
  66.3912010  81.3182354  53.9523602  78.2024765  54.5393467  55.2602148
  78.6006498  54.4090414  54.3995667  78.2186937  55.4874945  55.3905392
  84.2521572  66.4729881  66.9491434  83.4041595  66.8867445  67.1101856
  84.6753693  67.0379162  66.3026333  41.8454790  76.0341692  63.6118603
  42.5926208  75.7342815  63.0940962  41.9821215  75.6465530  64.4763327
  34.6955538  60.4203892  90.5529881  34.0632892  60.1152372  91.2036514
  34.1599274  60.6929255  89.8079681  91.9918060  73.6006212  90.3210258
  91.6601372  73.2049990  89.5149803  91.3094044  74.2186737  90.5828953
  78.4295559  80.8125782  81.6469479  78.5243082  81.7650127  81.6363907
  77.7608633  80.6310654  80.9865475  75.0928354  66.9495440  62.7309418
  75.6879091  67.4885225  62.2097683  75.5588007  66.1214352  62.8464651
  59.5749426  76.9055033  56.2865448  60.2980852  76.6878128  56.8746758
  59.6006012  76.2254143  55.6134510  26.5048015  14.2726093  11.0842151
  26.0392797  13.7443739  11.7326659  25.8120811  14.7161632  10.5946940
  70.3264809  73.5008240  61.7259645  70.6255484  73.9494467  62.5168657
  70.7822323  72.6592207  61.7411375  74.3856812  95.4111576  68.9901114
  74.4378662  96.1384678  69.6102190  74.3339729  94.6300316  69.5409203
  77.6876688  37.8780842  57.6140738  77.7949142  38.1391954  56.6994429
  78.2910728  37.1434712  57.7257681  77.2942066  87.1748161  94.1390324
  77.3912716  87.0189571  93.1996059  77.6532364  86.3887215  94.5505905
  59.3079376  90.1403332  60.2983856  59.8904991  90.1019287  59.5398521
  59.3909359  91.0384464  60.6189060  83.3231449  58.5990047  74.5451450
  82.8571510  57.8731489  74.9601316  83.6251831  58.2431650  73.7094498
 115.5278873  67.4506521  44.1308641 116.0324287  68.0204010  44.7114325
 116.1726665  66.8383121  43.7765646  74.1246367 108.7445545  63.1037331
  73.4253168 108.3645821  62.5719357  73.7609720 109.5704365  63.4229612
  51.1089504  49.7674852   0.0650233  50.7943142  49.7589498   0.9689921
  51.1998260  48.8429552  -0.1656896  74.1598368  83.6558247  66.7225933
  74.7193527  84.3705559  67.0264530  73.2766342  84.0248394  66.7264080
  85.8350563  56.4493895  51.6708803  85.9298134  56.5539312  52.6176262
  86.3008785  57.1985388  51.2993765 112.7663994  35.7269621  54.4273329
 112.7333164  34.8076320  54.1628170 112.8961563  36.2070012  53.6094332
  70.7910967  52.0125580  61.7820406  69.9261284  52.1293116  61.3890696
  70.6173801  51.9121027  62.7179670  83.6101723  87.3034477  85.3588104
  83.3749199  86.3844109  85.4863358  84.1763210  87.5111294  86.1021614
  69.7509146  81.5838337  57.2214985  69.7122765  81.0105610  56.4559269
  70.5147648  81.2785912  57.7109814  72.8315926 100.3476524  59.0372276
  72.8102589 100.4398918  58.0847168  72.4934244  99.4671440  59.2002249
 100.2032852  65.5614805  64.4116449  99.2818642  65.7212305  64.2074728
 100.6636715  66.3182783  64.0489531  68.0465794  91.1275578  48.2532406
  68.2462502  91.9167233  48.7568045  68.4929991  90.4237366  48.7239599
   6.8289732   4.1705752  84.2741966   7.3110651   4.3079901  85.0896358
   6.3801073   3.3344603  84.3993187  74.8837233  84.4273853  44.1826868
  74.6882105  84.3605614  43.2480526  74.5865202  85.3037262  44.4274998
  89.3855476 100.6165695  56.7675924  88.7549496 101.2623787  57.0861864
  90.1830673 100.7943439  57.2661781 112.3499730  44.6997839  12.8927917
 113.1581070  45.1263242  12.6078052 112.5352814  43.7634187  12.8212947
  74.8504496  91.3192272  62.5077105  75.3665924  92.1072865  62.3380470
  74.2065287  91.5908623  63.1617785  83.5998344  91.9470119  35.7041740
  84.1123581  92.6908493  35.3875566  83.6085129  91.3236523  34.9778247
  81.6935349  73.2160711  53.5590696  82.1063995  73.5175610  54.3683147
  82.2178650  73.6096573  52.8616381 112.8675379  24.4051982  44.0057802
 112.8896869  24.5812560  43.0651712 112.8577961  23.4502459  44.0705490
 108.5999298  75.8602238  46.4947462 108.8073921  76.6578150  46.9816065
 107.6434231  75.8400249  46.4645243  15.5620550  18.8186217  83.7167931
  15.2028727  19.1620875  84.5348644  15.3337168  19.4765044  83.0600739
  76.6420078  97.5887680  51.3477468  76.3038254  96.8083858  50.9085798
  75.9928799  98.2676315  51.1633253  49.1469372  61.4164262  17.8000373
  49.8473156  61.3564974  17.1503371  49.6026886  61.4500242  18.6411017
  10.9822786  57.4476724   3.8529223  10.3058374  56.9429975   4.3045539
  11.6328562  56.7960172   3.5915297   7.9331373 106.6732793   5.1373309
   7.7592253 105.8199553   4.7400588   7.9742979 107.2783332   4.3967551
  91.8526745  91.3400269  89.3644905  91.2135220  90.6565857  89.5660305
  92.2511673  91.0598373  88.5405254 107.7406788  62.5693989  84.5979214
 107.1640015  62.5292778  83.8349915 107.4327374  63.3297110  85.0912094
  54.6500194   7.9514223  24.2373198  54.7638405   7.0025831  24.2919654
  53.7013805   8.0790859  24.2343921 108.2010997  12.6038504  85.2238178
 108.8837303  12.4911071  84.5623493 107.4488414  12.9401828  84.7367573
   2.3263382   7.3208667  85.1375389   1.4639067   7.0073748  85.4098701
   2.1808552   8.2324267  84.8843098  66.3374186  98.7686157  85.7412815
  65.6320477  99.4046211  85.6222248  66.6053438  98.5387421  84.8515606
  91.3493633  90.1572037  68.0496740  91.5199471  89.5693779  68.7856054
  90.5115414  90.5689335  68.2612181  68.0252123 109.4794846  33.3436108
  68.3317804 109.9915409  34.0919757  67.0709562 109.5415592  33.3857012
  92.1533680  92.6014042  69.7713614  91.7416477  91.7815208  69.4983816
  92.9671288  92.3308086  70.1965714  83.9423180 109.3468094  41.8694401
  83.1067181 108.8841915  41.9325829  83.8507938 109.9020100  41.0950994
   0.6639790  29.3558264  86.1393452   0.0329660  28.8851119  85.5948448
   0.9179091  28.7241507  86.8122005  78.9036369 101.8068123  83.0876446
  79.1359997 102.3454475  83.8440228  78.4395456 101.0574055  83.4607887
  98.6877979  13.0291796  76.9303179  98.3999075  13.8608981  77.3065948
  97.8769935  12.5492144  76.7616129  94.5240593  73.3693266  89.2523861
  94.7586441  72.4639225  89.0488148  93.6260986  73.3163118  89.5796394
   3.1824646 102.9935932  39.7659755   2.6282654 103.2445335  39.0269709
   3.5705910 103.8160992  40.0644207 110.6889499  19.2420722  59.7338629
 109.7786726  18.9789344  59.5982838 111.2007106  18.4744502  59.4787550
  79.0190744 106.5078640  79.6554613  78.4857130 106.4768696  78.8612318
  78.9695644 107.4199009  79.9417734  50.5299461  43.5755640  28.1092185
  51.4286602  43.6760145  27.7954406  50.3056228  42.6673418  27.9066104
  41.0159349 106.7779636  63.6042261  41.7149878 107.4256134  63.5141897
  41.0921288 106.2328625  62.8211021  24.0428865  43.7725549   7.8892631
  23.8000191  44.6461111   8.1961173  23.2387197  43.4206110   7.5075835
  62.4023342  97.7467346  70.9174681  62.1253538  98.1141090  71.7568445
  63.2758141  98.1107140  70.7732725   5.0814972  68.0366230  59.4664526
   5.0587521  67.1255112  59.7590113   4.6661435  68.5265160  60.1761818
  97.6696014 105.4380035  16.9320560  98.3542442 104.8651981  17.2775674
  97.9980469 106.3237858  17.0861828  41.8276834  72.0877504  94.4536781
  40.9220886  72.2026110  94.7416592  42.3058844  72.8007603  94.8769760
  70.1429605  88.3289814  72.9591322  70.7824516  88.0811691  73.6268711
  69.4394541  88.7559700  73.4480047  24.9710726  20.4519606  55.8523560
  25.5925345  19.7707988  55.5953741  24.4230150  20.0371695  56.5185452
 106.8497753  81.0251808  54.8857450 107.4727917  81.0238838  54.1590595
 106.7632580  80.1033878  55.1287079  76.4601374  85.8370495  75.9100151
  76.4425373  84.9080467  75.6800747  75.6960058  85.9588432  76.4734888
  50.1141930  83.7390804  52.5252295  50.2385330  84.0977764  51.6465282
  50.6245756  84.3157291  53.0937529  89.6264744  95.8424187  87.7264118
  89.2741299  94.9524784  87.7165985  90.4428387  95.7822800  87.2302532
  81.5344048  95.4078579  81.1516953  80.6323242  95.1023865  81.2474537
  82.0488834  94.8085880  81.6924667  82.2794819 101.0266113  64.6099567
  81.5834045 100.5468082  64.1610765  82.9281425 101.2013054  63.9280844
  86.1919559  20.6837989  49.4827890  86.0644449  21.2175704  50.2670383
  85.3418840  20.6973983  49.0429878  44.0103710  65.6475931  12.2298259
  43.2057369  65.3031736  11.8422908  43.9106167  66.5984445  12.1834678
  49.7010994  82.7154922  62.7114058  49.9624777  82.0310783  63.3274412
  49.0987396  83.2683945  63.2090902  98.7374687  91.8313026  84.0092945
  99.2390251  91.2648106  83.4229946  97.9464054  92.0468521  83.5153484
  88.5888672  97.3245430  72.1036100  87.8623009  97.1014214  72.6854610
  88.3833218  98.2055092  71.7907476  82.1169758  84.8452568  72.4635839
  82.5935173  85.3234673  73.1421518  82.6299191  84.9843502  71.6674805
  75.7029247  86.1626911  65.5728531  76.6191912  86.4396191  65.5709505
  75.5297995  85.9014130  64.6684265  13.8476599  35.3567892  18.4878272
  13.1228578  35.4650217  17.8720588  13.5491073  34.6771150  19.0921039
  55.9783936 108.7547302  67.8291273  55.7276535 108.1369305  68.5159254
  56.3621664 109.4941330  68.3005428  64.3454885  87.0133972  51.6582775
  65.2564430  86.7527294  51.5224504  63.9033365  86.7718124  50.8444166
  52.3556602  10.5557447   3.0626983  51.4739883  10.6428629   2.7003402
  52.5655449  11.4286905   3.3945769  94.8790646  88.9341259  62.4005222
  95.1397419  89.4133663  61.6140032  93.9223289  88.9628792  62.3924398
  61.1403942  95.2428150  91.0590076  60.7604885  95.9585381  90.5494499
  61.7297220  95.6752777  91.6769886  71.7843998  69.1809183   0.4030246
  72.3447025  69.6028906   1.0543555  72.3945987  68.8205724  -0.2404290
  88.4365559  55.9157228  25.4235911  88.7986660  55.5575466  26.2340331
  89.1313744  56.4760256  25.0778794  92.0817913  19.9484587  47.8163338
  91.6174568  19.1296054  47.6428413  91.4410032  20.6327582  47.6230335
  72.0954813  -0.0910138  59.7276068  71.2120951   0.0338603  60.0744009
  72.4562825   0.7935096  59.6670914  83.3394051  52.5611830  51.6008615
  82.6540852  51.9341993  51.3696527  82.8773785  53.2625008  52.0601177
  99.8291779  85.2695942  88.5479355 100.4936504  85.9585285  88.5567474
 100.3070736  84.4729519  88.7786102  69.1155863  89.9604321  63.1090355
  69.0060425  90.1069641  62.1694803  68.4056473  90.4589939  63.5135698
  11.0608458   4.6920253  93.8813305  10.6221842   5.4654647  93.5269165
  10.4954886   3.9608622  93.6323547  51.6491865  29.8839236  80.7941437
  51.9144129  30.5404139  80.1500034  50.7719873  29.6182776  80.5181313
  39.4595312   3.2003451  44.6056509  38.9287447   3.6760188  45.2445793
  40.1256155   2.7565051  45.1306105 105.4003525  94.1010189  71.0931778
 105.8566952  94.8152065  71.5380573 105.7837009  93.3052826  71.4620543
  66.4775229  94.8718166  84.9561119  67.3332739  94.8282528  84.5294666
  65.8495378  94.7243214  84.2489243  98.4655285 106.4472008  67.8335524
  97.6553345 105.9941387  67.6000023  99.1449451 105.7771873  67.7580070
  99.2120743  84.3768692  73.0611181  98.5214329  83.7615299  73.3072901
  98.7610626  85.0538158  72.5565767 112.4041094   6.8388606  62.6213503
 111.6349996   7.0801688  62.1051407 112.4161590   7.4687625  63.3419800
  54.6955084   4.0293742  33.7712145  55.1494669   4.6781588  34.3090153
  55.2025007   3.9936209  32.9600978 108.1760502  99.6338081  43.8623810
 107.9150772 100.0114059  43.0224133 107.4208069  99.1132069  44.1359282
  85.1844883  74.9097347  58.1978893  84.3962955  74.3675995  58.1650352
  85.9049129  74.2931271  58.0674362  97.0354176  89.7031212  81.7213249
  96.8129539  90.3956127  81.0990810  96.6827393  88.9050579  81.3276958
 105.7108307  83.8594055  81.6269112 104.9617386  83.4348297  82.0450401
 105.8994770  83.3142853  80.8630562 104.1834354  93.0208302  63.1558752
 103.6022854  93.7059498  63.4861612 103.6413765  92.5204182  62.5459719
  65.3908241   0.5320221   1.5873260  65.7399261   0.9730583   0.8128280
  66.1105812  -0.0196881   1.8935985  96.0816444   1.8610144  93.2372665
  95.6395925   1.0174514  93.1412029  96.5860666   1.9604064  92.4298573
  79.8789883  84.1947556  50.8417940  80.0162983  83.2477665  50.8663654
  78.9890766  84.2990780  50.5050325  84.0181923  90.6072712  86.1521912
  83.8248158  91.2116337  85.4355431  84.6515560  89.9921513  85.7824421
  30.6660116  40.2365976   2.6027507  30.9327877  39.8469740   3.4353656
  31.4170158  40.7659918   2.3345012  61.7823124 105.5311584  79.1832924
  62.0644999 106.4348698  79.0422058  60.8709812 105.5163956  78.8909054
 108.1998444  92.3180199  84.0368938 109.1168118  92.2643566  84.3061829
 108.2347202  92.6015568  83.1233120  42.3999596 107.2998238  90.5668736
  42.3616695 107.5152493  91.4987373  42.6163340 106.3676548  90.5452347
  24.3545008 107.0000744  86.6641140  23.5671043 107.2056866  87.1680641
  24.0315986 106.8042755  85.7845497  85.8958340 100.3740692  88.2179832
  85.9612751 100.6169605  87.2944355  85.3885651 101.0813522  88.6162949
  36.1950290  45.6523138   1.2749404  36.3784158  45.1557832   0.4774112
  35.8403576  45.0046926   1.8840617  90.1020241  91.7023659  43.1126547
  89.7547626  91.7727280  44.0018606  89.6675587  90.9322262  42.7460957
  73.0985403  85.9334087  72.0381165  72.6389837  85.2948761  71.4928436
  73.8490248  85.4533577  72.3882055   5.5565415  86.9937229  22.7543688
   4.7515831  86.7262745  22.3108149   5.4031334  86.7845726  23.6757541
  12.8362930  16.7367750   5.7197875  13.0960357  17.0291000   4.8461169
  13.5961283  16.2553030   6.0470027  94.8419285  85.2402306  72.1548605
  94.6526527  84.3478870  71.8648148  94.6710110  85.7834721  71.3855028
  81.3928032 106.0296726  56.4980745  81.0715008 105.1596642  56.7349195
  82.2794724 105.8768177  56.1714506  70.6733215  56.8437677  26.5707225
  70.6906212  56.0977941  25.9711760  71.4967048  56.7811113  27.0548266
   3.9982832  46.3315206  12.3402423   3.8011539  47.2610098  12.2244185
   4.0213526  46.2080103  13.2891673   5.8849119   8.0612994  50.6044436
   5.3631662   8.3318186  51.3599777   5.6333994   8.6696196  49.9095154
   8.9599012  13.1941653  90.3037357   8.2039713  12.6278640  90.1484585
   9.4087099  12.7954818  91.0492897 100.9945869  97.9146099  92.7921486
 101.8763924  97.9933262  93.1561089 100.8855247  98.7003994  92.2565365
  65.3065872  82.1495533  64.4196033  65.8359575  81.3870239  64.6531868
  65.9112310  82.8889942  64.4816875  90.8469868 101.3125038  64.4954967
  91.5224171 101.2088299  63.8252068  91.3071156 101.6966915  65.2417612
   5.7669138  10.3673602  70.9473705   5.9969305   9.9077559  70.1398563
   6.5984510  10.4685832  71.4105320  24.1689276  32.6336718  83.4750938
  24.6892523  32.6259089  82.6717091  24.3711638  31.7998839  83.8994980
  75.0586843  97.4189663  70.6140995  74.9152422  97.1019554  71.5058136
  75.9841633  97.6623821  70.5924129 114.7877468  19.8425055  76.1229324
 114.4781460  19.2348242  76.7945814 115.2672781  20.5130816  76.6093445
  91.7867851  98.5958958  72.3378229  91.3979912  97.7622318  72.0731211
  92.6680183  98.3662987  72.6326704  64.9518347  98.3319187  64.6635151
  65.1697206  98.0195141  63.7853575  65.5156612  99.0944862  64.7931957
  96.2097073  73.5803986  80.9057331  95.9937668  74.2650986  80.2726555
  97.1561909  73.6560583  81.0268593 104.5761776 105.4498005  86.9235134
 103.6562538 105.1852989  86.9229889 104.7171688 105.8279610  86.0555649
  60.9891033  99.8165703  66.1538601  60.0830030  99.9020958  66.4503384
  61.5105677 100.1804638  66.8693256  95.2347183  62.0890474  79.1031170
  96.1435890  62.3833752  79.1626883  94.7210598  62.8322601  79.4193840
  92.3017311  58.2065630  29.3091822  92.5006199  58.2980442  30.2410126
  91.4889145  58.6974716  29.1884398  80.3682899  64.7863913  67.0377970
  79.7519779  65.1757050  66.4174509  79.8203325  64.4843006  67.7621698
  17.1282184  52.0642763   5.2757281  17.7824009  52.7408796   5.1011199
  16.4569223  52.2020250   4.6074313  54.1405952  66.4374643  11.0014647
  53.3599270  66.6607290  11.5083617  54.8581779  66.8710046  11.4633578
  44.4641960  14.6709305   8.6591739  44.7411049  13.7576824   8.7335223
  44.9417198  15.1233774   9.3544978  25.4915117  25.3767062  87.3384476
  24.7794794  24.8523761  86.9719601  25.5605196  25.0848723  88.2474613
 106.6399778  23.8374472  82.8877068 106.5562977  24.7732974  82.7049160
 106.6170849  23.7769557  83.8427258  95.2855682  66.2594032  85.1676559
  95.4617023  65.8483315  84.3213558  94.3940926  66.5987873  85.0881767
  13.1412291  20.4441977  83.0319309  13.2225775  21.0690928  82.3114300
  12.7624487  19.6626521  82.6295185  46.4136207  26.5881544   2.6284999
  46.9683826  26.6188627   3.4079379  45.5221164  26.5256601   2.9713458
  68.6279571   7.7464586   9.9356097  69.2875183   7.5863987   9.2606276
  68.9768780   7.3187547  10.7176322 110.2853407  36.0022784  85.1707935
 110.5850948  35.4254389  84.4682026 109.7845806  36.6844130  84.7233963
  99.1059017  79.6060848  56.3135052  99.9321747  79.2490864  55.9878302
  98.7251377  80.0553608  55.5589199  60.7806730  77.5360394  42.2967911
  60.0584412  77.7502680  42.8873158  61.5125895  77.3303175  42.8783512
 112.0862200  34.1430860   5.3082007 112.0298054  34.6628195   4.5063800
 112.2800877  33.2559591   5.0054664 104.3175853  13.6475325  31.2995720
 104.0155758  13.9189196  30.4327583 104.4325460  14.4670630  31.7805910
 105.0169659  83.2290840  64.3303728 105.2447510  82.3310852  64.5711040
 104.0992641  83.1798553  64.0627193 104.0095997  92.4700356  67.9711771
 104.3051052  92.5923538  67.0689869 104.6219730  91.8332195  68.3395338
  18.3087814  41.8333059  15.5196303  17.9879463  42.3521047  14.7819728
  18.0994499  42.3593431  16.2914390 112.8269113  12.6345397  46.2773657
 112.3716177  12.8652812  45.4676151 112.4406303  11.7989112  46.5395689
  18.1927370  20.6638289  80.8457470  18.5549616  21.4249373  80.3921604
  17.5732779  20.2855349  80.2217293  81.7806911  60.7896709  69.2114401
  82.5078773  60.1680756  69.1789913  81.0028172  60.2427626  69.3211555
  58.5442162  78.2359028  78.4393692  57.6112175  78.3035135  78.6422777
  58.9086771  77.7187347  79.1576529  61.3093328  73.9854193  62.2726345
  60.9099054  74.0555191  63.1396866  61.4205551  73.0446434  62.1355200
  91.1562920  85.8519650  61.1997604  90.5176449  86.1569500  61.8442249
  90.6343555  85.3828621  60.5487919  80.7226849  99.3743896  81.6881657
  81.1654758 100.1062584  81.2585831  80.3545666  99.7525883  82.4867249
  94.6872902 103.0101681  64.9166727  95.0696087 102.1682262  64.6693039
  93.8566399 102.7825642  65.3343391  12.6924360  55.6233221   3.0260772
  12.2769583  55.0014406   3.6234683  13.1971395  55.0764566   2.4240417
 115.6370891   3.9874507  70.5010748 115.8585991   3.5627509  71.3298082
 115.6457628   4.9233390  70.7017279 111.2839473   6.5715266  89.1191864
 110.6375326   6.5816260  89.8250771 110.9097065   7.1370173  88.4436131
  87.5012016  70.3883219  75.9828997  86.5952301  70.6316328  75.7925129
  87.4711132  70.0273514  76.8689203  43.7030315 100.6248283  91.0481644
  43.3481836 101.2084770  90.3775978  44.3773127 101.1446095  91.4856529
  11.4370321  11.0765124  89.7871876  11.4368891  12.0328761  89.7472095
  10.7453512  10.8628607  90.4134178  45.7131183  45.2871900   9.9035281
  45.2527607  45.5641275   9.1113013  45.7365883  46.0705381  10.4531116
  64.9545193  82.1283340  90.7585335  64.9290180  81.4960194  90.0403690
  65.3052807  82.9262066  90.3628159 101.8813324 102.4588203  80.7322884
 101.6441727 101.6877651  81.2475109 102.0648193 102.1154213  79.8578501
  92.1424484  92.9594231  57.0490980  92.9618549  93.0823803  57.5283718
  92.3668098  92.3539162  56.3425159  50.1923704  91.5144920  55.6694937
  50.7671499  90.7886410  55.4265785  50.7881451  92.2413063  55.8512115
  26.5881514  19.8097182  49.1324806  26.0731577  20.3101111  48.4995317
  27.3449396  20.3655482  49.3183613   6.2217688   1.4138938  22.0303345
   6.0384440   1.4252616  21.0909224   6.2477659   2.3374606  22.2804809
 106.0256100  99.2613316  41.2128067 105.5728340  99.3804932  42.0476913
 105.8663368 100.0756741  40.7356024  94.1764545 102.3997021  44.2480040
  93.5376549 102.0658493  43.6181545  95.0003719 102.4276352  43.7615728
 105.9328270  93.3734798  85.3342628 105.5341625  93.8347435  84.5963383
 106.6462326  92.8685856  84.9439240  80.0427818  98.8030052  86.4072037
  79.5585203  99.5846081  86.1410713  79.8635149  98.1638145  85.7176208
  95.7977581  94.0213013  65.7049704  95.8902740  93.1072712  65.9737396
  96.0726738  94.5251942  66.4709616 116.4328861  64.5897627  87.7960682
 116.1586380  65.4608393  87.5092888 115.6296349  64.1789627  88.1158543
  32.3201216  15.4836708  23.6499042  32.7670658  14.7910219  24.1364402
  31.3917864  15.2584892  23.7109107  32.6136530  54.8442369  16.2160892
  33.3873928  54.9934393  16.7595023  32.5781429  55.6047731  15.6359500
 103.1844807  97.3322773  63.3655739 102.9173470  96.6494656  63.9809084
 103.3621216  96.8636322  62.5500679 113.0414880  -0.1356839  74.3401146
 113.7839855  -0.4454278  73.8214779 113.2211603   0.7933474  74.4845343
  91.2700558  79.3933392  52.1503782  90.4794693  79.1084576  51.6920710
  91.7536545  78.5846901  52.3190498  62.0922232 106.2770939  67.4957943
  61.7372799 106.2254810  68.3832502  61.6761017 105.5524826  67.0288801
  70.2779722  69.2225027  66.5246153  69.8520708  69.7963762  67.1614122
  71.2106466  69.4199419  66.6104555  69.4880962  94.7531605  52.3345089
  69.4767046  95.7093239  52.3776340  70.3762722  94.5121002  52.5976944
  77.7794266  87.7288151  54.0049410  77.2298717  87.0776463  53.5688210
  77.2095966  88.1171799  54.6687937  73.4541798  74.0913296  58.1711960
  73.7159348  73.4641218  58.8452387  73.8602781  74.9153423  58.4401226
 105.6186212   6.7164279  93.4853458 105.7220138   6.9729567  94.4017220
 104.6867241   6.5168048  93.3961868  15.7079290  10.9925414  61.4563465
  16.0093855  11.4406348  60.6660557  15.5193686  11.6984034  62.0747519
 108.2708740  85.3755474  74.9127197 108.1345177  84.6030331  75.4612255
 109.2215061  85.4390240  74.8204756  86.0046959 101.1450672  29.4485712
  86.8408203 100.6808472  29.4083214  85.3512859 100.4531479  29.5512080
 106.7733479 100.9142971  23.1140423 106.6681194 100.6285095  24.0215015
 106.1215782 101.6066074  23.0038548  82.7046299  97.4646664  82.3466969
  82.0598888  98.1269741  82.0979118  82.4184132  96.6704369  81.8955898
  38.0882715  18.5183287  80.3250885  38.5402559  18.2144595  81.1122417
  37.1852564  18.2215167  80.4377651  79.8231220 101.5534401  78.9993858
  79.9413633 101.9914341  79.8422480  78.9443541 101.8083000  78.7182236
 104.1578388  68.2058477  74.9179697 103.3190918  68.5753107  75.1940536
 104.5501995  68.8855505  74.3699789  65.1912451 106.0634899  68.3379316
  64.4521570 105.6097603  67.9328299  65.2788544 106.8739700  67.8362560
  60.0405550  68.2573271  87.3436928  59.3174028  68.8773680  87.4376774
  60.8285284  68.7972879  87.4050808  20.6590437  13.7769271  61.1384010
  19.7516512  13.6185408  61.3987780  21.1148714  12.9625369  61.3510656
  55.9783792  96.2878418  45.5742216  55.8653879  95.3568649  45.7659292
  55.7802057  96.7283249  46.4006138  58.3321857  79.4561720  55.7951880
  58.5194159  78.5261774  55.9227943  58.5386610  79.6179485  54.8746300
  63.0311001  50.5575090  23.1367129  62.6589096  51.1505800  23.7893790
  63.1517113  51.1024194  22.3590583  93.6631012 105.9893990  71.7741060
  92.7686024 105.6550312  71.8396139  94.1353130 105.3158951  71.2845850
  76.7045593  95.7096481  47.1558952  76.5031719  95.0054932  46.5395880
  77.6276016  95.5804253  47.3739052   2.5658869   9.7448016  45.9315586
   2.7353357  10.5125380  45.3855753   3.0228304   9.0300418  45.4882145
  78.6131239  70.1343966  66.8669748  77.9217958  69.8695707  67.4737358
  78.3862400  69.7038698  66.0427141  45.5469501  36.6747766   1.4451426
  44.7316253  36.1767297   1.3867587  45.3585327  37.4966531   0.9920806
  14.1567968   4.7069693  91.5942860  14.1261839   5.4915953  92.1416950
  15.0470709   4.3729258  91.7040634  88.8168812  79.1803312  57.9252720
  88.5133266  80.0790691  57.7973795  88.2801342  78.8462210  58.6439514
   1.1782192  14.2258216  82.6657486   0.8164000  15.0006247  83.0958652
   0.8989786  13.4940577  83.2160091  57.5202263  39.5770174  18.4704036
  57.0771015  40.3211504  18.8779944  57.6650417  38.9615350  19.1890449
 105.6993866  82.0022488  48.4438896 105.9312534  82.3036766  49.3223000
 104.9734402  81.3941097  48.5832024  77.6705360  98.5818005  46.5332556
  77.4889135  97.6450825  46.6094255  78.4811926  98.6281586  46.0263872
  78.8253117  81.2022114  75.2327681  79.1743755  80.6860733  75.9593964
  79.2829370  82.0407677  75.2930593 107.8449596  18.0381728  78.5363722
 108.3533014  18.3847762  77.8031015 107.1009172  17.5981665  78.1252384
  64.6033453  20.4202891  25.3897762  63.9379763  21.1074877  25.4254508
  65.2107309  20.7100917  24.7090888  24.8489451   1.9293452  78.7849236
  24.5309042   1.0746623  78.4940481  25.7999968   1.8294192  78.8268375
  80.4608154 103.5517788  57.1758175  79.5489216 103.3283806  57.3622656
  80.9568119 102.7790260  57.4461317 111.1519540   6.9801760  57.7755880
 111.9176210   7.5344897  57.6248503 111.1648096   6.8046809  58.7164783
 107.2450829 107.2104454  64.4019890 106.4163113 107.5981045  64.1207886
 106.9917965 106.5300751  65.0258303  32.0894039  27.5434213   6.9975680
  32.0043743  27.6389986   6.0489577  31.4139831  28.1181818   7.3576945
  93.2834053  71.3834143  54.3959999  93.4179783  70.4965973  54.0618181
  93.0392456  71.2592602  55.3131723  66.6048813  81.3614178  74.7257376
  66.7596579  81.2548161  75.6643105  66.1632442  80.5539989  74.4625902
  18.1280111  21.8034507  91.4304066  18.8373541  21.7861415  92.0728683
  17.6759028  20.9682990  91.5502357  28.3382200   5.6744815  59.9783564
  29.0953325   6.2599993  59.9918890  28.5840582   4.9791480  59.3681860
  92.1114159  65.2693748  94.5894051  91.8129730  65.8864021  93.9212513
  91.3090992  64.8586464  94.9116039  40.3267073   4.7735739  89.6670723
  40.2901720   5.6617785  89.3121243  40.7585596   4.8723078  90.5155945
  91.0267735  66.0501289  73.6482000  90.7485676  65.1378870  73.7297058
  90.8505058  66.2735415  72.7342796 108.2526792   3.3384276  94.4931889
 108.2119383   2.6656676  95.1728630 108.9978374   3.8853408  94.7419071
 108.4328378  28.3444739  70.9191751 107.9179443  27.5375605  70.9233713
 108.5698141  28.5363627  69.9914646  10.3447222  18.3683158  46.6791725
   9.6228575  17.9309798  46.2276411  10.6742357  17.7133227  47.2945070
   5.3702793 106.7736816  32.9644585   4.5727024 107.0061874  32.4890327
   5.8659802 106.2321472  32.3502398  56.0563076  28.3150011   2.4377460
  56.5458572  29.1259771   2.3003024  55.3561771  28.3444315   1.7856807
 102.0922565  96.8488216  78.8604641 102.6031780  97.4950886  78.3730793
 101.2089634  97.2162724  78.8921499   5.4546331  14.1996527  65.9805584
   5.4516958  15.1475096  65.8472204   6.3773512  13.9783431  66.1064434
  32.3700785  10.0616599  63.8477135  31.6004824   9.8306037  63.3275557
  33.1041216   9.6649504  63.3786345 101.9417061  17.0618296  56.3730478
 101.4077009  16.3953162  56.8052816 102.5401891  16.5646983  55.8154535
  78.4895945  89.0974426  66.8609095  79.0277004  89.8540020  67.0939302
  78.1332874  88.7909985  67.6947975   9.4179510  32.1490432  89.0516663
   9.7265600  31.3808585  89.5321846  10.0923513  32.8117324  89.2008495
  31.7626165  19.4348670  89.5840645  32.3763537  18.8167144  89.1872787
  31.0382532  18.8895655  89.8909569 103.0137920  73.3321953  52.5959396
 102.8197193  73.9117289  51.8592548 102.4633884  73.6576986  53.3082104
  16.7074452 102.2258949  85.5177212  16.7291890 101.4306259  84.9854469
  15.8264599 102.5769615  85.3879261  81.0306931  61.1169147  92.9973507
  81.2181187  60.9648657  93.9236259  80.6877136  60.2807665  92.6819897
  82.2109127  78.3663654  71.6310644  83.0561829  78.7643957  71.4229393
  82.0743179  78.5648441  72.5574446  79.8423862 108.6218357  90.8544350
  79.9534559 108.9184093  89.9511433  80.5992031 108.0585957  91.0163784
  93.5636806 102.4401093  59.2745686  94.0817070 102.1116924  60.0094366
  94.1804028 102.9617596  58.7609911 105.7885421  20.8225394  90.8191776
 106.1832489  20.8532477  91.6906643 104.8652042  21.0269881  90.9670925
   7.0181822   7.9205752  62.2245073   6.6649794   7.3486663  61.5430307
   6.3721537   7.8801490  62.9296684  98.3419228  70.4139566  74.2946196
  97.8823566  69.7833347  74.8490095  98.3463192  70.0110054  73.4263754
  23.2408690   1.3653327  91.2796116  22.4720358   0.8408023  91.5032387
  23.9825987   0.7792140  91.4297199 108.2376003 104.6594143  38.0344605
 108.4386444 103.9465618  37.4281120 109.0261173 104.7480297  38.5698247
   8.0123400  13.6439849  65.3079414   8.3892511  14.5238543  65.3098488
   8.6231302  13.1206561  65.8268738  83.6531639  86.8269348  82.5827408
  83.7826633  87.2086906  83.4509087  82.8336620  86.3377857  82.6559925
   0.0310765  80.4972839  70.2052832   0.9053383  80.1151466  70.1286316
  -0.4863968  79.8245478  70.6478691  59.3249464  80.8420658  91.9668674
  60.2193832  80.6138992  92.2201538  59.2470312  81.7730045  92.1754932
 101.1359991   8.3984996  78.4192324 102.0667900   8.2300807  78.2726097
 100.9774746   9.2458583  78.0032063  98.6475086  78.8507843  37.3767352
  98.1952477  78.9493322  38.2145786  99.5753765  78.9428091  37.5931334
  77.1984863 100.7067013  61.8536139  77.8428745 100.8017254  62.5550175
  77.5796843 100.0553894  61.2647867   7.7468180   3.2643271  86.5383720
   8.5773157   3.7181712  86.3951111   7.8724932   2.7883197  87.3592567
  20.4371584  96.4096552   8.0111808  20.6370056  96.0684591   7.1394748
  19.5528829  96.0928922   8.1954402  71.8962288  99.9676514  67.4271011
  71.7570972  99.0315056  67.2838926  72.5647783 100.0085735  68.1109142
  68.6078548  70.1723003  82.6463127  68.6336088  71.0023069  82.1702290
  67.8274536  69.7292662  82.3132610  32.8017557  43.8747984  46.2327498
  31.9654691  44.3391710  46.1979217  32.5602424  42.9526716  46.3197726
  93.5377598  78.9115524  45.4894304  94.1871548  79.4111872  44.9945879
  93.3971500  78.1203604  44.9693584  39.7596144  20.6964064  94.5401287
  39.7254156  21.3082171  93.8047695  40.6942247  20.5539656  94.6899319
 115.2137245  13.0774260  72.4085188 114.9750627  12.2103167  72.7362204
 115.0875200  13.0186606  71.4614964  76.6330230  36.3650995   5.2076930
  75.7403171  36.0522466   5.3541392  76.5484417  37.3174101   5.1610393
 105.7645954  19.6401835  82.1566010 105.4938663  20.4090262  82.6584244
 106.5599598  19.3365145  82.5940990   7.0516085  11.8641616  63.4330130
   7.5215792  12.6254035  63.7733984   7.7337526  11.3140059  63.0480051
  84.9999059   3.8618136  69.8861933  84.2531456   3.5135699  69.3990517
  84.9793352   4.8034049  69.7152472   5.5583548  16.0233355  42.6137400
   5.0485968  16.2742854  43.3840656   4.9015402  15.8157206  41.9491148
  64.2660856  92.6563358  32.8463674  63.4472513  92.6410484  32.3508811
  64.9081898  92.2557831  32.2602892  70.7707834  81.2622929  49.4574404
  70.9509373  80.6740570  48.7241173  71.4913702  81.1104107  50.0689268
   2.9612516  19.9457885  92.8797340   3.8790106  20.2002288  92.7838421
   2.8568434  19.7740031  93.8155842  92.0568562  99.8228264  39.3583345
  92.5429630  99.0807247  38.9988542  92.6124573 100.5817604  39.1806865
 113.9315701  77.4308300  74.4250631 114.8752785  77.5171947  74.2901564
 113.7551212  76.4992380  74.2937851  97.9979134 109.4719696  76.8671560
  98.4190750 108.7955189  76.3368034  97.4830437 108.9855385  77.5109911
   0.5829596   0.6683017  70.7572556   0.8398270  -0.2533960  70.7301760
   1.2428736   1.1164904  70.2282333  69.2026615  94.8402786  84.1267776
  69.2101574  94.9915886  83.1816387  70.1067019  94.6085072  84.3394089
  99.5500183  97.7787590  69.6294880  98.8668442  97.9007339  68.9702177
  99.2370224  98.2658958  70.3917027   9.8298716  25.0645686  74.2566538
   9.9931311  25.9460498  74.5921612  10.2255606  25.0629378  73.3850670
   3.8596415  24.7700453  63.4448767   3.1412577  24.8170710  62.8140545
   3.7138628  25.5136157  64.0297556   3.5157560  10.6223345  58.2011509
   4.2339872  10.3437949  58.7692976   3.7603926  10.3039122  57.3322487
  61.4269054  64.9305540   3.4073657  62.3314941  64.7087675   3.1865424
  61.4486969  65.8695703   3.5917396  88.7899590  90.8355427  87.2464752
  88.6579609  91.0110378  86.3148022  87.9150105  90.9017181  87.6289749
  22.1329950   7.3461295  86.4486504  21.2420916   7.1037341  86.7011738
  22.1335291   8.3032466  86.4614201   2.2181820  22.0275546  63.9780045
   3.0997252  22.3972178  63.9283466   1.7154860  22.5188781  63.3282900
 116.5037441  88.0713558  90.8541107 115.8872986  87.3456287  90.7563400
 116.5590096  88.4580326  89.9802303 114.1089309  12.7789641  51.4294147
 113.1532015  12.7275325  51.4162827 114.3247570  13.4029723  50.7364035
  42.6385486  50.7448583  32.9980678  42.4080074  51.3485151  32.2918910
  43.5347164  50.4740434  32.7986545  69.1757679  98.9628220  39.2722845
  68.8799620  99.8727131  39.2435765  69.6752787  98.8477421  38.4639072
  82.9933167  96.6969776  85.4867458  83.1135178  96.9778824  84.5796204
  83.6079216  97.2337246  85.9871387  99.8537792  19.1037894  84.2083931
  99.0778650  19.0096236  84.7609520  99.5052398  19.2588950  83.3304977
   0.4755949   7.7610636  60.1275635   1.1659836   7.4041224  60.6862974
  -0.3389812   7.4766112  60.5420351  25.8594297  20.0920726  59.3211412
  26.3656115  19.6964884  58.6115456  25.7114004  19.3754054  59.9381638
  95.5084705  95.1691914  83.8617325  96.4561558  95.2937794  83.8108349
  95.3455925  94.3659496  83.3672619  71.0635090  95.0338840  81.9784355
  70.4655313  94.3829536  81.6110802  71.8006563  95.0533295  81.3681316
  11.4969229  10.5111075  69.3268919  11.4732431  11.4562751  69.4763184
  12.4282049  10.3043128  69.2482615 107.9038715 108.1464958  79.8706007
 107.9802513 107.4273777  79.2434931 108.8079739 108.4036827  80.0513744
  49.5214796  82.8395176  71.1954594  50.1801586  82.8981400  71.8875122
  50.0011396  82.5097370  70.4355907  64.8883986  37.6905299  41.6080570
  64.6941446  36.7626143  41.4758635  65.8415388  37.7266265  41.6883898
  64.1648626 108.7936115  86.9019985  64.5921421 109.2801094  86.1970234
  64.8543453 108.6589622  87.5521660  86.0300922  99.0162945  71.8452454
  86.0053253  98.2896137  71.2227058  85.9578323  99.8004341  71.3010693
   8.8077711   9.5879889  84.1335392   8.4932112   8.7020446  83.9535904
   8.2937121   9.8760749  84.8878479  39.5212912  13.0814982  49.6390629
  39.9408220  12.2253276  49.5542288  38.6439680  12.9551745  49.2776918
  55.4058349  16.9279009  10.4784698  55.2920711  16.9004923  11.4284915
  55.5640304  16.0171991  10.2298182  14.2212080  19.7024584  78.4832096
  13.6325907  20.4116965  78.2248688  13.7441515  19.2323924  79.1670895
 101.3774599  22.3717452  75.7977772 100.8878912  23.1105471  76.1593390
 101.8522562  22.7405692  75.0529480  22.9089521  32.3467875  50.5938244
  22.3238730  31.8395091  51.1564827  22.3248171  32.9131461  50.0895786
 114.8003830  -0.2317476  30.9011793 114.9081100   0.5068064  31.5004826
 114.3782724   0.1456595  30.1294136  76.1285866 107.1783739   2.5619811
  76.7483127 107.4203973   3.2501620  76.6211498 107.2840982   1.7480773
  75.8076477  81.9628143  95.1585865  75.5826521  81.1416531  95.5959702
  75.5648708  81.8211651  94.2435837  22.4339998  55.6604200   0.6410808
  22.5325477  54.8557764   1.1500663  23.3204878  56.0166555   0.5821818
  63.7087679  83.8149357  70.0377941  63.4650660  84.5421219  70.6105471
  64.3615580  83.3247566  70.5376148  76.4975155  77.1149259   9.2166823
  77.1754730  76.7315107   9.7730941  75.8114136  76.4484220   9.1813392
  78.1899309 107.8505135  60.6249142  77.4504948 107.2457886  60.5634785
  78.9221525 107.3050976  60.9123278 102.1920681  77.8345728  77.8605890
 102.5292969  78.6835861  77.5747871 101.4718533  77.6478767  77.2583675
 114.9481357  14.6567298  74.7553968 115.2005829  14.3887664  73.8718224
 115.5712427  15.3465510  74.9836922  81.3944530  82.8220940  57.0372248
  80.6080914  82.5343895  57.5010109  81.4666557  83.7540245  57.2434235
  93.1594181  94.1322136  46.6717482  92.5599289  94.2216110  45.9308958
  93.2436180  93.1872559  46.7990351  72.7339983  89.9828434  64.9098730
  73.4560919  90.0775242  65.5310392  72.0950365  90.6410408  65.1832485
   3.9810633  13.4775687  68.3092737   4.4166922  14.1075183  68.8834047
   4.4434809  13.5544635  67.4747181 109.7474254  16.1015940  43.1491852
 110.0468506  15.1930953  43.1840229 109.4291509  16.2146998  42.2535658
  67.2535324 104.5680714  57.1102571  68.2074261 104.6095753  57.1780777
  67.0904541 104.2331696  56.2285089 113.0815853  59.2590666  59.0645599
 113.9340986  59.3583823  59.4883347 113.0103220  58.3212424  58.8867044
  85.5248941  21.7819358  42.4377012  85.1052917  20.9961081  42.7879095
  84.7969307  22.3486853  42.1825743   2.1040783  92.2307777  63.3704281
   2.1294175  91.3033676  63.1348801   1.5349827  92.2671795  64.1392136
 101.9929136  11.5912486  80.5800343 102.9390873  11.5402652  80.7156467
 101.6269554  10.9694529  81.2090683 115.1331438   0.4005004  67.8620863
 114.7663368   0.3060961  66.9830132 115.5491604  -0.4430341  68.0398846
  17.3537039  15.3652430  67.9370022  17.6099180  15.8312274  68.7328959
  16.7930101  15.9830142  67.4677420  60.2454651  42.9605394  19.9650878
  60.1459110  42.0478635  19.6942824  59.4468582  43.1530672  20.4564017
  30.2130961   7.5189353  47.5168514  30.4608988   8.3676768  47.1501684
  29.6380877   7.1315814  46.8568850  17.6390814   1.3509227  77.8630400
  17.9028009   0.4637385  78.1071091  18.3262514   1.6497565  77.2674513
  72.4672020  28.8839536   0.3437251  71.6038788  28.4882646   0.2239722
  72.6459682  28.7901312   1.2793941 106.4004482  35.8999968  69.9394655
 106.1408342  36.7457534  69.5740366 105.6936039  35.3044368  69.6906376
  30.5768383  48.6372381   9.8825377  30.9645546  48.1894403  10.6344623
  31.2882364  48.6940199   9.2446345 105.0881923  25.1114417  51.8669271
 105.1099218  24.8389102  52.7842522 104.2057670  24.8874140  51.5713453
  84.6870136  78.5015392  56.2676048  84.2336845  77.9871798  55.5996466
  84.3265724  79.3835640  56.1762476  72.2902286  48.0768591  -0.1708013
  72.3849190  48.8010126   0.4479522  72.9496753  47.4396139   0.1035613
  20.2941774   5.5300379  51.0611486  20.3606485   5.3733111  52.0030880
  21.1168074   5.9622718  50.8316231 111.3633836   2.6306678  43.3877516
 110.5366434   2.2655249  43.7030268 111.3916744   2.3940325  42.4606943
  63.2626986  20.0452948  62.3362398  63.9049028  19.3358851  62.3595667
  63.5041498  20.6111479  63.0695486  78.3643806  40.6826120   4.6710795
  78.9285457  41.1241060   4.0362185  78.7182892  39.7951704   4.7295493
  63.1589401  58.9517217  10.6962794  62.6675022  58.3480840  11.2533587
  62.6532257  59.7641092  10.7188910  98.1473351  74.7907257  70.3118849
  98.9670563  75.1465511  69.9688387  97.4667931  75.1961899  69.7745800
  71.0256910  96.3783646  74.1049433  71.2242270  95.4923439  73.8020039
  71.1183167  96.9247246  73.3244658 108.8243831   1.9989253  67.6554823
 109.6654428   2.3502494  67.9477501 108.5448660   1.4233065  68.3673525
  93.1943703 104.8299026  45.2863932  93.6458778 105.3562641  44.6266079
  93.4853363 103.9336777  45.1179934  52.1952318  30.0020743  56.7635870
  51.2728571  29.9735881  56.5093517  52.3377680  29.1841269  57.2398949
   6.1698113  86.1129570  86.8817997   5.6809292  85.8096695  87.6468182
   7.0001469  86.4289856  87.2380447 100.5621529 100.0616360  64.8472595
 100.5641270  99.2430592  65.3434038 101.4034557 100.0670338  64.3907356
  43.6847866  73.1105047  18.0613250  44.2634857  73.6830335  18.5648555
  42.9797542  72.8879839  18.6693210  23.8188324 108.1910038  30.6896806
  23.4687004 108.1892395  29.7988176  23.7914334 109.1100025  30.9559798
  39.3693422  16.6914798  85.3263092  40.3235697  16.6378928  85.3793812
  39.0605902  16.2615634  86.1238575  86.5108776  88.8786697  85.3582859
  86.5997410  88.0294323  85.7908630  86.5849495  88.6808300  84.4246864
  91.0403633  64.5354748  85.1504040  91.9128418  64.5200872  85.5438137
  90.6511021  65.3522110  85.4628849  96.5858650 102.8785324  47.1407270
  97.1440792 102.5600338  47.8500795  95.7457733 103.0622482  47.5611162
  25.2397322   7.1433497  72.5887585  25.1343321   7.7440119  71.8509722
  24.4774984   7.3092604  73.1434679  12.6102995   7.9898501  51.3561630
  12.3004412   8.2385302  50.4853106  13.0945658   7.1763755  51.2148190
  36.0353159   7.5110770  56.9764042  35.9332155   8.3105231  56.4599848
  35.2592634   6.9907904  56.7683458 114.7759819  98.1337738  86.7279339
 114.4435692  98.1951046  87.6234627 114.2534637  98.7661457  86.2346649
  25.4190039  11.3530493  88.9257431  26.0945200  11.7271949  88.3601284
  24.6095442  11.7818309  88.6479855 102.5624657 103.5133266  33.6033177
 102.2298145 104.4108009  33.5928345 102.0898151 103.0910683  34.3206239
  72.0894039  80.8841997   9.9656981  71.5016544  80.2741724   9.5199889
  72.9668129  80.6084257   9.7004909  64.9665022 106.2981606  49.4645262
  65.7343578 106.5385056  49.9830437  65.0488281 106.8130302  48.6618042
  33.2970464  24.8182493   0.6823272  33.2691610  25.7750421   0.6853122
  32.7792394  24.5659261  -0.0821572  75.4062450  50.1123052   2.4787063
  74.7824657  50.8003526   2.7104777  74.8611343  49.3901449   2.1663302
  19.3995667   6.5624678  70.3874922  18.8669991   6.0578346  69.7727156
  20.1672316   6.0131860  70.5462694 102.8312207  86.5537833  46.7697334
 102.2768832  85.9158038  46.3203764 102.3347712  86.7933082  47.5522947
   1.8033158  95.7565057  49.5117712   1.5636526  96.1244773  48.6612511
   1.5147625  94.8448729  49.4682217  51.5585567  64.5217710   4.7103137
  52.2438909  63.9529382   5.0609988  50.8866717  64.5355337   5.3919429
 113.5312248  97.2260379  33.6209846 113.0266763  97.8674387  34.1212487
 114.4147373  97.5924622  33.5839844  91.3787604 109.0991511  54.9964571
  91.3300062 108.3470195  54.4064140  90.4681338 109.3682091  55.1172829
  88.9605082 100.6391113  53.8608932  89.5808268 100.2665269  53.2343006
  89.1230465 100.1592564  54.6730185  12.5136839  76.1193966  94.2188072
  13.2981573  75.7395887  94.6145058  11.8242966  75.9742450  94.8668194
 103.2396246  95.7634210  81.2470436 103.1966902  96.3832568  80.5188942
 102.4887420  95.1849436  81.1137390  42.2950697  10.2317548  54.3486834
  42.1179581   9.3755412  53.9591169  42.0111847  10.1442337  55.2586174
  37.5791240  13.9449215  90.9910393  36.6906738  14.1215432  90.6816959
  37.5905776  14.2768407  91.8887806  73.5990047  15.0075662  42.7659130
  72.9907227  14.6567547  43.4164143  73.0648470  15.1328897  41.9815683
  46.5714884  29.8855066  67.2598553  46.5438747  29.0412617  67.7100992
  45.8070278  30.3578877  67.5895405  19.8781800  32.9710031  44.1445637
  20.5502009  32.3235011  43.9315844  19.0698040  32.6036954  43.7870073
  73.2730875 102.9647213  50.5298185  73.0772031 102.4714284  49.7332478
  72.4658651 103.4426170  50.7201862  53.2283068  28.8064122  67.9294205
  52.6473713  28.5400414  68.6420155  52.9855919  28.2390046  67.1977282
  29.8063636  16.0773313  66.5467072  29.6816158  15.7556951  67.4395800
  30.6791139  16.4703858  66.5534639  37.4340081  41.4620018  65.2718735
  36.6861868  40.9890223  64.9067879  38.0342126  40.7746506  65.5608940
  35.6674504  10.1392031  68.9388704  35.6995463  10.9302199  69.4769192
  34.7424555   9.8931736  68.9296579  33.2145249  92.7548765  77.6815557
  32.8241764  93.1256913  76.8901300  32.4798046  92.3534631  78.1455421
  26.5188633 109.0452402  28.2127094  26.8472849 108.3560332  27.6353335
  27.3064648 109.4853049  28.5324883   4.5846831  97.4597418  41.5460014
   4.4331251  96.5198230  41.6450691   4.6912133  97.7808594  42.4414158
  10.2082526 109.4656082  72.4192762  10.4430758 108.6564057  71.9650936
  10.5363547 110.1628477  71.8514395   1.0430938   4.9209452  58.3455849
   0.6142764   5.7752037  58.3964777   1.3896330   4.8796242  57.4542761
  12.1521317 107.7027980  76.8997955  12.0385824 108.4172829  76.2730169
  11.8606745 108.0683338  77.7350616  39.8786449  12.2397578  79.1997385
  40.2526808  12.8349161  79.8494434  38.9438868  12.2182953  79.4046736
  65.1739944  57.2910315   9.3355674  64.6634782  57.9915916   9.7415465
  65.2250971  57.5363754   8.4117526  44.1628027  31.5710402  60.3810644
  43.5016727  31.1340880  60.9179211  43.7361145  32.3740339  60.0821209
   7.6104635   3.7578791  73.4872913   8.1596768   4.4559446  73.8440847
   7.8032517   3.7569919  72.5497055  78.7722535 101.4684688  31.8945360
  78.0428548 101.1479675  32.4250889  79.2341227 100.6766253  31.6190481
  42.0755434   9.0028328  39.0077901  41.6634846   9.4043112  38.2427716
  42.3272038   9.7428656  39.5602846   0.9783281   9.8121858  73.6929417
   0.1417755   9.7921026  73.2281780   0.9936590  10.6678748  74.1216564
  12.0784509  21.4524698  72.8925943  11.7483616  22.2057343  73.3823538
  12.3631537  20.8348918  73.5662222  54.3966532  15.1370168  34.5438409
  53.5177946  14.7950852  34.7079086  54.2622995  16.0681713  34.3673992
  21.4103889  25.1766849  61.0999012  20.9331965  25.7508659  60.5008698
  22.3149109  25.4872680  61.0597706  62.1158123   4.9193662  51.8155861
  62.9502773   5.0199825  52.2736025  61.7774630   4.0761152  52.1167135
  85.0037075 101.9899511  27.0016432  85.6544412 102.6915091  26.9772816
  85.1536388 101.5532088  27.8400993 111.6856005  55.8852959  63.4903622
 112.3906629  56.3061190  62.9984045 112.1136784  55.5382299  64.2730045
 103.9013029 102.2391497  64.6042681 103.9153243 101.2839686  64.5437288
 104.3840147 102.5351673  63.8325214   1.7457985  99.7159104   8.2594985
   0.8412813  99.5258908   8.5084266   1.7258810 100.6248002   7.9599112
  21.1216378  11.3534796  58.0614233  21.9285989  11.3080776  58.5742426
  20.4274201  11.4413702  58.7145472   6.0993611 105.4091664  37.6870060
   5.5562626 106.0657062  38.1231642   5.6976448 104.5723777  37.9207635
  29.9116755  37.1121335  47.7951145  30.6862903  37.5062156  48.1962347
  29.4614840  37.8442287  47.3736954  75.9646747  92.3029827  75.8465528
  75.1029275  92.2598683  75.4321051  76.1794125  93.2357346  75.8561945
  43.5517073  37.7903247  55.8369970  43.9689398  38.0825710  55.0266027
  43.4832716  38.5822701  56.3702583  39.0914106   2.8362757  54.6182966
  38.9630961   3.6122707  54.0727663  38.6479974   2.1335073  54.1431808
  76.7898130  24.3905258  39.8274493  77.3272085  23.9070654  40.4549074
  77.2691727  25.2057576  39.6796513  22.2199249  29.0788770  41.2583065
  22.4933338  29.9711013  41.4714193  23.0391717  28.6053801  41.1138487
  47.4573517  29.4149899  47.4804306  47.7756071  28.5372591  47.6914597
  48.2149792  29.8594475  47.1000576   9.4793469  30.7767892  24.1123080
   8.8851398  30.6674409  23.3698845   9.0106106  31.3586926  24.7105598
  12.7385187  23.1117058  61.2061548  12.6785457  23.9289165  60.7113791
  11.8677664  22.9978561  61.5870237  15.8133828  80.0342559  50.0663280
  15.4041611  80.0641798  49.2015314  16.6156565  80.5473112  49.9695539
  74.7085760  85.2552246  49.2449379  74.2644210  85.3295230  50.0895929
  74.2692796  84.5264434  48.8066196  47.6892519  10.2346623  85.7693386
  48.5759020  10.4971635  86.0166740  47.7144957  10.1759386  84.8142719
 116.1027341   3.7713367  36.9353628 115.4901181   3.2028037  37.4019504
 115.8288552   4.6590310  37.1660614  90.3337158 103.3193212  57.8938580
  90.9096361 104.0732228  57.7666569  90.0174774 103.1085735  57.0153284
  69.0457392   3.6712754  24.9184847  69.5905018   2.9747123  24.5520639
  68.3683062   3.2103157  25.4132891  86.6156370  90.5676448  67.0327520
  86.0552962  90.0826990  66.4268875  87.0995499  91.1772954  66.4756298
  27.4957085  30.8949900  35.0267434  27.9039097  30.2551460  34.4434738
  26.5599799  30.6988454  34.9801064  66.0875988  36.3244033  51.4974213
  66.1082554  36.0986543  52.4273920  66.8084478  35.8250594  51.1136723
  98.5818506 105.2050611  36.5267563  98.7506867 104.7874450  37.3713398
  97.6735426 105.5016779  36.5835500  24.2982531  28.1037569  38.1194282
  24.9626851  28.7277865  38.4115696  24.7663093  27.5153255  37.5270581
  34.9380040  43.5190821  52.5104761  34.2561626  43.6697769  51.8557930
  34.4586921  43.3691931  53.3253574   7.3019444  80.3991842  35.6420779
   6.8888174  81.2469863  35.8057523   6.7095887  79.7628044  36.0425401
  65.5132818  29.1887856  35.0694895  66.1474085  28.9854836  35.7570839
  66.0248184  29.1760468  34.2605400  47.3720026   7.0025599  81.5326023
  47.0876408   6.3690788  80.8737564  48.0820227   7.4855530  81.1097240
  93.2092191  79.0877890  39.1728687  93.3537007  78.6109399  39.9901652
  92.5945247  79.7832512  39.4067883  15.3996921  27.1443820  36.0610056
  15.7989454  26.2780643  36.1405134  15.6845319  27.6123309  36.8459392
  28.2883787  18.5734415  23.8724685  28.9129591  18.5222590  23.1489277
  27.4811053  18.8934731  23.4698272  33.2226216  88.3411979  37.0307136
  32.6502549  88.2805609  37.7955341  33.9350163  87.7291869  37.2155690
  10.7384658  34.2911792  53.1274080   9.9466658  34.5316839  53.6084938
  11.3044965  33.8865423  53.7847614 116.3670123  13.5409951  62.5592089
 116.6070683  13.7199283  61.6500378 115.4131090  13.6188209  62.5748205
  19.2059577  43.2507420  50.9106255  19.9345171  43.6522675  51.3841295
  18.7990975  43.9763546  50.4371500  79.7105882  92.0354211  47.8952456
  79.8594936  91.4470302  47.1550703  80.5878655  92.2395562  48.2191992
  27.0205736   7.1440929  77.1728086  26.4123774   6.6089255  76.6629839
  26.7064047   7.0709860  78.0740213   7.8552735  40.7741690  87.7663040
   8.2488447  41.0373497  86.9343948   8.5011542  41.0248852  88.4267712
 100.8187438  99.9260890  32.6981974 100.1889158  99.2118036  32.6015234
 101.3559509  99.6718132  33.4485197  91.1483849  73.9260387  58.8995600
  91.8360783  74.4218039  59.3440008  90.4153992  74.5382427  58.8349867
  11.3889945  10.5705488  65.1235437  11.8501389  11.3598394  65.4074430
  11.1425638  10.7504010  64.2162657  34.0298057   6.7253566  62.6759624
  34.4304395   5.8576554  62.7290630  33.8778615   6.9751930  63.5874033
  25.0624776  11.2538373  57.6625872  24.5403433  11.7175055  58.3172750
  24.9191713  11.7424548  56.8520641   6.9293517   6.4349961  69.1505289
   6.5564638   6.3911837  70.0310230   6.9247836   7.3675156  68.9346170
  64.2262793   7.0229709  56.0928392  65.1132536   7.1662593  55.7627201
  64.1893768   7.5258851  56.9064426  33.7722230   1.8953922  48.0907488
  33.6224771   0.9509736  48.1341267  34.2684579   2.0223203  47.2821236
  57.0591761 100.4107314  36.6648793  56.5801812 100.9700763  37.2763777
  57.6444078  99.8952650  37.2198844  33.9445496   0.3207762  57.8056431
  34.3792987   1.1134824  58.1200361  34.4016147   0.1030796  56.9932842
  82.3702682  85.5111008  17.4425334  83.1894458  85.0750499  17.2079200
  82.3183597  86.2593274  16.8478126  56.2726021  31.8496418  58.6869621
  56.2614632  30.9664655  58.3180380  57.1747398  31.9748521  58.9814138
  78.6946043 100.7356357  51.2616301  79.4187502 101.2881839  51.5558004
  78.9800110  99.8429792  51.4564133  39.4685173  11.3227439  73.3288813
  39.3677068  10.9281468  72.4626446  39.6429777  10.5826890  73.9103603
  15.4721701   3.2828319  75.0663662  16.2117016   3.7866807  74.7265673
  15.5051327   2.4555147  74.5860624  42.1212101  20.2294302  47.3107481
  42.8247833  20.1367855  47.9531145  41.3169098  20.1376939  47.8215504
  76.4357079  85.4180126   1.8095035  77.2017397  85.1324277   1.3116378
  76.6321934  86.3225012   2.0534820  90.7060636 103.5255688  46.3390827
  90.8071257 103.0492883  45.5149603  91.4523710 104.1244846  46.3626623
 116.2866593 105.2157506  70.9680986 115.6680990 105.8677586  71.2974977
 116.9457985 105.1408424  71.6581392  42.9594278   6.0146391  78.7743235
  43.7071466   5.9691691  78.1784391  42.7626228   5.1011586  78.9818144
   9.5132250  14.4776201  50.2013063  10.2134264  15.1067162  50.0275564
   9.9682117  13.6504400  50.3593969  10.1058279 104.1101401  60.2129936
  10.8107983 104.0229308  60.8545876   9.5173823 103.3794641  60.4029179
  17.4975157  29.3781066  84.5256233  18.0819845  30.1360822  84.5355320
  16.9693291  29.4725585  85.3182983 112.0838757   6.3121665  29.5684743
 112.2055637   5.3789687  29.7433043 112.6067104   6.7516530  30.2390909
   1.6533236  12.7721131  29.4809437   2.2020876  12.0288980  29.7313857
   0.8072865  12.5943708  29.8918700 101.7608906  86.5263151  15.2506959
 101.6350342  85.8994984  15.9630811 102.6855207  86.7678999  15.3047967
 105.6694867  18.6273146  37.5608945 104.8307278  18.1694210  37.5056720
 106.1277558  18.3856201  36.7560291 100.8963180  78.8959741  59.1678286
 101.5817262  78.2445812  59.0190506 100.0782085  78.4059834  59.0851545
  23.1162726  95.6908666  49.5103788  23.1032645  95.9431397  50.4336452
  23.7169873  94.9465238  49.4739151  62.6904249  10.8655787  63.2073021
  61.7535734  10.9611821  63.3787489  63.0815649  11.6638446  63.5622931
  84.9983878 104.3118560  41.5346289  85.0028557 103.5622668  40.9393740
  85.8828426 104.3327921  41.9000483  53.1679298  46.9292252   5.3672141
  52.7075816  46.3887911   4.7251529  54.0887667  46.8719863   5.1122302
  48.3110476  11.2698388  68.7755632  48.1276417  10.7865369  67.9699516
  47.8849792  12.1175301  68.6485958  34.3946886   8.9496726  53.1549883
  34.2353749   8.9821452  54.0982819  34.6726990   8.0487335  52.9899120
  90.3317715  76.5157770  38.9509773  90.8931435  77.0858740  38.4255409
  90.9318317  75.8761095  39.3343639  13.7872444  81.8583178  44.3858576
  14.1221987  82.7509951  44.3012190  12.8387867  81.9643568  44.4594765
  48.9435720  21.5857244  60.2646399  48.0574894  21.4081979  59.9490833
  49.5010328  21.4595366  59.4968224 110.0696302 106.2934955  73.4505177
 110.4259587 107.1766656  73.3542252 110.4576302 105.7986742  72.7288294
  39.7612416 106.7691600  26.8215752  40.1070200 107.1180876  27.6431084
  38.8393532 107.0267534  26.8211198  27.6219164 102.9835992  83.3975315
  26.9671665 103.1037849  84.0853500  27.5376641 103.7627041  82.8478718
  90.8008302  97.2665917  47.8721762  91.0088039  97.4224281  48.7934208
  91.0215581  98.0887114  47.4344158   7.9442631  91.9925558  34.3533897
   7.0181500  92.0525693  34.1189933   8.2840048  91.2834000  33.8075829
  49.0941954  14.0937030  67.4796820  48.5007524  13.7311172  68.1373978
  49.4417048  13.3279061  67.0224905  46.7286158   4.0761277  83.5862923
  46.8944645   3.3759704  82.9550171  46.0408306   4.6050894  83.1820869
  92.5871170 100.8117717  78.0093098  91.7329706 100.8458310  78.4400129
  92.3861826 100.8602773  77.0746946   2.6587950  85.1069021  90.2147865
   3.3190047  84.7942089  89.5962620   1.8635880  85.1991176  89.6900272
   8.3659905  18.3961213  37.3409462   8.7550503  18.7907338  36.5604687
   8.8251138  17.5623167  37.4419832  23.3562565  12.6948857  59.2723608
  23.2598448  12.5793231  60.2176571  23.3987951  13.6432946  59.1501141
  52.9586400  32.6319246   4.8535556  52.5403453  31.8897181   4.4172210
  53.3226634  32.2626500   5.6581420  44.0481281  21.2255692  67.2596979
  43.4262514  21.7099786  66.7166948  44.8555899  21.2128592  66.7458153
   8.2102810  74.9167918  46.1434507   7.7889620  74.1368079  45.7824135
   8.0257117  75.6058502  45.5051994  85.8934785  99.8564803  50.6668806
  85.8299000  99.2335820  51.3908911  86.7591549  99.6984112  50.2902508
 112.4854899  99.7638332  66.6307545 111.9377685 100.4810070  66.9499636
 111.8802977  99.0301906  66.5223932  89.0342594 100.1101052  66.2950420
  89.2217470 100.7651805  65.6227636  89.1561306 100.5748641  67.1229172
  39.8808360   5.6919861  65.0740433  40.6425333   6.0848165  64.6477461
  39.7441244   4.8673457  64.6076632  69.2472744  23.9231634  45.9553528
  69.2851830  23.2569242  46.6415882  70.1619434  24.0732002  45.7164049
  17.9529166   0.2600382  62.9107332  18.5746741   0.7766812  63.4233046
  18.0559289  -0.6332386  63.2388735  98.2708814  12.3058283  66.3716698
  97.4977448  12.8352320  66.5671778  98.9961519  12.9304874  66.3756418
  25.5044675  31.2655640  81.2465000  26.0434222  30.4966950  81.0604858
  24.6050024  30.9642053  81.1185360  46.8170691  19.9241304  68.0241394
  47.6092863  19.9097455  67.4870872  46.7858410  19.0569496  68.4281826
 114.3631203  38.6738014  62.8612423 113.6004402  38.2076025  63.2035971
 114.9794753  38.6948252  63.5932922   6.5936625  24.6185613  22.0982146
   6.8207902  23.9034843  21.5038157   5.7153910  24.4007492  22.4103522
  25.7337260  33.9046621  70.9654665  25.6674743  33.0377197  70.5651522
  24.9130392  34.3390989  70.7331562  28.0144869  83.5021805  23.4442067
  28.6015354  83.4948205  22.6881957  27.8233706  84.4287013  23.5900378
  26.0131407  16.8975520  54.7990465  25.6492352  17.1661079  55.6426573
  26.8199944  17.4054146  54.7136593   2.2807204  99.8286008  68.1471109
   2.0430456  99.0759634  68.6886644   2.1001612  99.5452964  67.2508049
  12.8924751  19.8465896  58.0599880  13.2836854  20.6328988  58.4406519
  11.9545209  19.9414289  58.2257605  48.0711317  44.8943758  36.6273665
  47.1614218  44.6645069  36.8166399  48.3726168  44.2082739  36.0318804
  73.3960152  27.3607397  18.6529541  73.5134506  28.1758761  19.1408002
  73.7415218  26.6824150  19.2332423  28.4159040  34.2347741  69.9077940
  27.9934192  34.8865724  69.3484259  27.7300525  33.9612079  70.5168962
  80.1460075   5.9181565  45.6441879  79.6377659   5.3224254  45.0937128
  80.1187515   6.7549586  45.1802349  55.0404119   4.4531438  84.9282074
  54.8576546   5.0535560  85.6509304  54.9140024   4.9814832  84.1401005
 114.1237987  67.7263086   7.1162909 113.2563223  68.0810552   7.3108787
 113.9492716  66.9138865   6.6411609  50.6896257  -0.0352766  43.6489725
  50.8707952   0.3798659  44.4922209  50.5763912   0.6957600  43.0415249
  50.4030895   6.3519025  86.0884094  50.1804018   5.5291772  86.5240288
  49.6442604   6.5443099  85.5376053  77.8553629  17.6299119  41.9886398
  77.8816175  16.7397738  41.6376448  78.5639334  17.6547968  42.6317120
  36.5932165 105.8051600  63.2938766  36.6968666 105.7215028  64.2417669
  37.4525391 106.0902586  62.9832125  23.8356757  12.4425888  86.2108994
  23.3125830  12.6263356  86.9911861  23.3419085  12.8385568  85.4928207
  49.7010899   1.9469446  58.3323908  49.4018316   1.9865504  59.2407465
  50.4921627   2.4856505  58.3171320  55.7353783  12.7548945  34.1471171
  55.6635904  13.6501372  34.4782043  55.0915527  12.2598290  34.6537042
  50.8468771  23.3685160  39.5279765  51.4197779  24.0020418  39.0959311
  49.9670553  23.5985541  39.2292690  55.3767014  15.4259098  82.2945213
  56.1669636  15.1846099  82.7777386  55.3508282  16.3816941  82.3396778
  65.8630753  17.9018927  73.2794046  66.2366438  18.5582745  73.8674927
  65.0460005  18.2938111  72.9711580 106.5184451 103.3297735  20.4331660
 107.2659255 103.9054488  20.5947328 106.1020447 103.2318728  21.2894702
  39.2589331  54.1188812  53.0864811  38.7769461  54.0668488  52.2611237
  38.7595296  54.7398949  53.6167383  25.2415824  39.5870018  80.4339886
  24.5982432  40.2692652  80.6259727  26.0272956  39.8582959  80.9086323
  24.9383307  27.3010159  70.4114056  25.4954648  27.1144891  69.6557331
  24.5446062  28.1510258  70.2147007  61.7332125   6.1231518  75.4844141
  61.5156031   5.7492834  76.3382864  62.5722265   5.7236743  75.2548313
  43.6074448   5.1346552  66.2408781  43.7929058   6.0704464  66.1625767
  43.7881136   4.9306339  67.1584654  67.4037017  44.2881029  13.0241412
  67.1535767  43.3658175  12.9688281  66.6469253  44.7180312  13.4224910
  57.8238916   7.8200698  39.0414023  57.6383686   8.3638090  38.2757926
  57.2609711   8.1750792  39.7293854  49.5393038  39.5160294  51.8628788
  49.7399092  38.5850406  51.7667055  50.3691769  39.9139190  52.1259975
  16.6171098  10.0465846  78.7752438  16.5794766   9.6623862  79.6511459
  15.7069099  10.2569938  78.5666847  54.0996695  43.5667038  88.7472725
  53.6009169  43.4345961  89.5535088  54.5768404  44.3837690  88.8919830
  47.5944471  39.6348739  54.0251970  48.3292627  39.9197268  54.5684576
  47.9758215  39.5010471  53.1575108  85.1469421  28.0949092  58.3623600
  85.0000381  29.0401602  58.3284187  84.6387196  27.7470732  57.6295900
  37.5386810   5.6148291  40.4364824  37.5303245   5.3488177  41.3559389
  37.7284360   6.5527320  40.4602098  40.7649612   6.2708247  46.6444540
  41.4767313   5.6318563  46.6809750  41.1779118   7.1028394  46.8756533
  37.9266977  32.0119715  35.9682178  38.6841202  31.6238594  36.4062929
  38.2218456  32.8844118  35.7075119  21.8019080   1.6663489  68.0296373
  21.0447741   1.1203715  68.2415104  22.5566030   1.0952304  68.1727791
   3.2491708  13.5097158  53.8615274   4.1751486  13.2826066  53.9464855
   2.8442377  13.1660950  54.6578836  51.0905313  11.3927007  28.4621668
  50.6059742  12.1830022  28.7006235  51.2523460  10.9503877  29.2954779
  15.5359995  15.1075947  44.3748665  14.6803200  15.4558253  44.6254253
  16.1159396  15.3564370  45.0945759  11.6448915  25.8324218  56.1988544
  11.2210572  24.9834418  56.0730314  12.4104047  25.6400490  56.7403460
  54.5106792   4.7179341  77.4599934  55.2479553   4.1919687  77.7698660
  54.4449902   4.5123261  76.5274477  19.7754895  98.2995056  44.8414278
  19.9914919  98.9920770  44.2169952  18.8196408  98.2515096  44.8247004
   0.6767618 103.7505602  59.2265940   0.5407249 103.2321101  58.4335375
   0.4664861 104.6471649  58.9656067  43.3458471   0.5574005  52.4246788
  42.5628901   1.0763034  52.2404099  43.5144615   0.7007039  53.3559513
  56.4823914  18.0575311  27.8612471  55.5462837  17.8588307  27.8825355
  56.7497873  18.0500507  28.7803102  44.9003410  38.8995242  53.8881731
  44.8152399  39.5513701  53.1924057  45.8279657  38.9199758  54.1233873
  37.8166901  94.6603357  72.4900341  37.8155075  94.1532563  71.6781855
  38.4882675  95.3286969  72.3539925  59.0204668  22.5022221  33.7148595
  58.5935116  21.7622733  33.2831001  59.6184254  22.0995831  34.3445921
  28.2210112  29.4007635  70.1567602  28.3652091  28.7226105  69.4967985
  28.4649944  30.2164388  69.7192907  69.4262600  12.3837686  64.5958567
  70.3427076  12.2206044  64.8188639  69.1669464  11.6226304  64.0765715
  18.9194250  46.0082722  37.0308113  19.6280622  46.5927839  36.7617202
  19.0172505  45.2390671  36.4695740  41.1521626  20.2755332  81.9477367
  41.4621353  20.5253768  82.8182125  40.5728912  19.5298433  82.1046638
  57.8562307   4.5688334  82.4308681  57.3389816   4.0361246  83.0349445
  57.4417877   4.4350395  81.5784836  16.0542893  46.0295534  41.4304638
  16.6560960  46.7739010  41.4285183  15.6187832  46.0714340  40.5791044
  51.8606472  60.8891535  49.5963240  51.4087296  60.4043198  48.9057159
  52.1159029  60.2197981  50.2311754  61.7568983  87.1738176  10.7601375
  61.8672956  86.3312678  10.3195113  61.3377155  87.7330451  10.1060885
 103.1395937  95.9810328  61.2295055 103.1531740  95.3516363  60.5084562
 104.0292240  95.9604680  61.5821648  77.5993490   2.4769858  65.3454113
  78.5421991   2.5721046  65.2104473  77.3160744   1.8854356  64.6482325
  35.4628253  16.7822468  54.4303608  35.5920053  15.8387399  54.3337250
  34.7066307  16.8621540  55.0117493  21.0653101 108.0448061  60.0833225
  21.7688357 108.3554722  59.5134354  20.4851948 107.5535261  59.5016479
  39.1095757   3.9639923  30.4961562  38.7893176   4.6434736  31.0894275
  38.5463595   4.0341112  29.7253776   2.2664268  21.5420771  52.2052622
   1.7911918  22.2714090  51.8071985   2.8218392  21.2057781  51.5019512
  31.6351199  24.2871499  45.4377842  32.3856163  23.9772463  45.9446859
  31.9255161  25.1192522  45.0642824  10.6843603  28.6782575  78.5265207
  10.5813277  28.3894753  79.4332838  11.6011250  28.9461374  78.4631681
  29.1656971  20.7602000  62.0339918  30.0982952  20.7014513  62.2414684
  29.1270399  20.6824565  61.0807371  53.9469719   7.0533544  93.3409691
  53.7606907   7.8331268  93.8639259  54.1013193   7.3885453  92.4577618
  56.5529776   8.4868693  60.2800322  56.3550186   8.1284940  59.4148111
  57.3296547   9.0292102  60.1426649  63.1395435  22.9001784  29.7466087
  62.3342180  22.4933028  29.4270229  63.8064384  22.2205448  29.6487284
  58.0976963  26.2386632  43.6418390  57.5076056  26.5626884  42.9613733
  58.9624977  26.2444568  43.2315683   8.4948431 108.8604281  40.6724310
   9.3389784 108.8423808  41.1233711   8.6971937 108.5970715  39.7746968
   7.7213894 107.2192403   8.0614704   8.1938301 107.0933788   7.2385556
   7.6823794 108.1691926   8.1723809  54.2254019  18.1673753  62.7852201
  53.6960459  17.7507985  63.4652805  54.7787571  18.7882125  63.2591343
  59.4480801   0.4049030  35.9523273  59.3883562   0.9186617  36.7577577
  59.9819708   0.9405603  35.3655910  76.9929743  29.0560198  52.8707695
  76.1391068  29.0821385  52.4389648  77.0477104  29.8864269  53.3436966
  88.3837534  97.5081741  43.3132982  87.7798654  97.4594497  42.5722361
  87.8174091  97.6201247  44.0768147  23.6533809  48.8400364  65.8189583
  23.3967590  49.1162586  66.6987753  23.3662796  47.9287624  65.7607365
  93.6551380  10.1524699  51.5274334  92.8324890   9.7026932  51.7202377
  94.0898228  10.2311468  52.3766041   9.4587296  40.2907133  43.5134506
  10.0997496  40.3073883  44.2241144   9.1811711  41.2019873  43.4198236
  40.8267546  20.5079961  27.8139353  40.8313799  21.2291622  27.1845460
  41.1280537  20.9024525  28.6323833   8.1065172  24.1237164  62.9401875
   7.7071559  24.2929435  63.7934780   7.9776871  24.9358153  62.4501562
  98.4640361  93.0642795  64.7659254  98.5188628  92.4936783  63.9993525
  97.5251234  93.1687772  64.9200583  48.0389214  13.6132741  36.4369154
  47.1486378  13.4063911  36.7212105  47.9252005  14.0528786  35.5942726
  42.0436525  19.0221965  64.0515900  42.8203917  19.2737615  64.5512152
  41.3145781  19.1617131  64.6559238  36.2310910  24.4142413  53.5611439
  36.8762231  23.9002371  54.0467739  35.3987885  23.9709926  53.7255716
  26.0236155 105.2750751  74.8551512  26.5149437 105.8935847  74.3145227
  26.5245854 104.4610911  74.8032522  42.1871090  13.3671689  46.8827581
  41.2560463  13.2664657  46.6847372  42.6216459  13.2977021  46.0327101
   4.6525505  31.0321903  65.2683353   4.6552509  31.9304490  65.5990219
   5.4780549  30.9502888  64.7907734 108.0048848  99.8247152  76.3056040
 107.4806596  99.8794370  77.1046209 108.9089824  99.9195456  76.6053486
 100.3718592 100.0867044  74.9301529 100.1917053 100.3789621  75.8236647
  99.9172378 100.7200181  74.3747616  46.9830227   8.9705205  43.5824013
  46.4977026   8.3353251  43.0558825  47.2592115   9.6395963  42.9560709
  86.7794145 100.7102876   4.7103328  87.4056829  99.9922137   4.8019046
  86.5031828 100.9028964   5.6063384  44.7778082  37.2773457  17.9697812
  44.4100046  36.4955997  18.3818781  45.0733232  37.8178048  18.7024522
  68.5080004   5.3737849  80.1290321  69.3280935   5.6562406  79.7241926
  68.7213993   5.2719575  81.0565662  45.9727573  35.5181217  42.6365805
  45.9245110  35.0317001  43.4595633  46.3530064  34.8984027  42.0140171
  39.9026561  12.4495971  41.4998484  39.3457174  13.1051457  41.9197369
  39.9818015  12.7475452  40.5936480  28.8861465  22.1042991  41.6168356
  28.8763690  22.5624108  40.7764387  29.7040701  21.6071320  41.6091061
  50.3880215  16.1813438  72.3234892  49.6620464  16.3694239  72.9183149
  50.4556942  15.2265382  72.3225594  55.7451773  28.9712143  58.0506325
  55.1280212  28.6790323  58.7214375  56.3545609  28.2398176  57.9509306
  51.2009859  31.4439797  63.8557053  51.2635326  31.3401103  62.9062128
  52.0078564  31.0547566  64.1928911  28.8116145  40.2339268  76.5102482
  29.2224312  41.0984802  76.5062141  27.8829384  40.4107380  76.6603422
  49.1537094  36.0222387  89.6100426  49.9047756  36.3167143  89.0948582
  49.2402029  35.0693226  89.6364689  53.0957270  33.8345742  69.6660328
  52.2232771  33.7254977  69.2876577  53.6188507  33.1399250  69.2659807
  37.3270941  33.1242585  48.0219316  38.1742334  32.8811598  47.6484442
  37.5428867  33.5272503  48.8629198  75.4689741  49.5822906  48.1552649
  75.8270597  50.4427147  47.9368973  75.9755754  48.9696836  47.6220655
 109.1806150 104.0461939  42.8689289 108.3796383 104.0512382  43.3929873
 109.2032338 104.9102669  42.4577093 106.2950351   9.2639488  35.8759451
 105.9932770   8.4281301  35.5201626 105.4973664   9.6965379  36.1806154
  38.3402395  29.8834252  93.9330101  38.6464477  30.5670214  94.5289612
  38.3830976  30.2853060  93.0653191  16.6441119  19.4243443  50.2963114
  16.7855442  18.5293972  50.6050158  15.7360816  19.6174800  50.5295753
  95.5236019  60.0576411  20.6852645  96.1583675  59.3486010  20.7880420
  95.9912599  60.8414535  20.9736461  52.4508190  19.4790041  45.1624250
  51.6070986  19.8585129  45.4080629  52.6719570  18.8963103  45.8889246
  24.8434054 101.3459420  82.1601772  23.9460694 101.1229348  81.9126129
  25.3833615 100.9776037  81.4608955  34.4414115  36.8790245  41.9309950
  34.7674918  36.8810844  42.8309393  33.4990501  36.7354393  42.0180225
  43.7333059  14.9728167  81.0736370  43.7211037  15.8582890  80.7102871
  44.6624899  14.7741902  81.1893559  23.6470509  22.5633097  91.3760662
  24.2739129  21.8432426  91.3069057  22.8152370  22.1849084  91.0912323
  67.4300241  14.5459425  72.4721670  67.4114990  13.7338805  72.9785681
  68.2649851  14.5178664  72.0049620  84.3057251  23.2872677  91.3340282
  84.1404247  22.7010703  90.5955887  84.3687057  22.7059460  92.0918751
 106.2936259  96.6347515  35.2087379 106.3294722  96.2061869  34.3535876
 105.4819990  96.3152241  35.6029415  33.0965304   3.8359061  67.1047783
  33.1768274   3.1615159  66.4302540  33.8488793   4.4098115  66.9604349
  17.3374020 106.0577538  65.8843136  17.0239483 105.6146305  65.0958872
  16.7858063 105.7145419  66.5872908  59.4371700  16.8771851  54.6895361
  60.2367735  17.3274744  54.4173193  59.3221664  16.1811566  54.0425777
  80.2744878  32.0117073   5.3994769  80.3325857  31.1217456   5.0518817
  80.4405416  32.5753002   4.6438235  19.8766708  11.1644018  53.5658789
  19.8186588  11.8298221  52.8802538  20.4795694  11.5359509  54.2098475
  55.1636505   6.6101539  80.4250622  54.3995619   7.1860534  80.3979301
  55.8148575   7.0503420  79.8787975  22.7294326   2.5180805  41.4121437
  23.4849882   2.9283673  41.8328953  22.2409320   3.2483846  41.0323381
  70.8102751  40.8863783  28.2051945  70.5466938  40.8754444  29.1253233
  70.0269651  41.1720514  27.7350378  45.6945181   5.0590789  55.2914906
  46.6076088   4.9113026  55.0451994  45.2421618   4.2584991  55.0256443
  23.0458771 104.6483141  56.5541029  23.0891024 105.5935308  56.6987705
  22.7585303 104.5579653  55.6455326   2.3141228 106.0367819  74.6057272
   2.7295481 106.8989670  74.6228170   2.1054732 105.8532538  75.5217075
  53.1227493   4.3063778  31.0642743  53.1484127   4.5860720  31.9793391
  52.2375536   4.5238405  30.7720876  32.5064659  26.2881207  64.6046734
  32.1273279  25.7553077  63.9056778  33.4384012  26.3351417  64.3913317
  31.9406104  20.0572896  45.2138042  32.4834871  19.3309498  45.5203152
  32.5289226  20.5845690  44.6733427  18.8287484  85.8961224  63.3950138
  18.2929360  86.6294097  63.0926514  19.0005099  86.0890245  64.3167067
  47.6590586  48.7108755  30.9597087  48.4684658  48.4465361  31.3969922
  47.6426792  48.1947517  30.1537418  36.3992119  39.4012642  71.3920879
  37.2525787  39.2657471  71.8039560  36.4992452  39.0427446  70.5102253
  49.3322468  27.8660655  33.4606528  48.7794876  27.3730850  34.0670013
  49.7884798  28.5000730  34.0139341  38.5156178  31.8304896  39.7743249
  37.7657723  32.0720553  39.2306256  38.8591504  31.0345173  39.3685603
  35.6199384  38.9592457  46.7692757  36.0501456  38.3126497  47.3288012
  34.6952176  38.9078140  47.0110989  31.1750317  13.7187028  89.1834164
  31.0404682  14.6464503  89.3768311  31.7793202  13.7139940  88.4410954
  43.7652397  24.1904569  76.0017586  43.1170797  23.6099100  76.4006186
  44.0472412  23.7282157  75.2124310  57.4899292  23.1191373  50.5820465
  57.7066183  23.9682055  50.1968670  57.4217319  23.2924557  51.5209484
 105.5445529 101.6696685  40.1933432 106.4404798 101.8868923  40.4509497
 104.9942876 102.1965032  40.7729006  18.0431128  14.7739995  50.5207396
  18.1499469  15.7027900  50.7260847  17.1043563  14.6138120  50.6172132
   5.5898987  71.5597677  46.0361862   6.3668667  71.4292478  46.5797997
   5.2772175  72.4334192  46.2711143   9.5698845  16.7067099  82.7988625
   8.8753849  16.8264771  82.1511364   9.4619924  17.4403524  83.4041405
  56.5775156  31.2559295  61.7232561  57.2326517  31.1049294  61.0419130
  57.0379162  31.7664886  62.3892832  50.9909296  22.6099205  70.1444530
  50.4679775  23.1040335  70.7758045  50.9010601  23.0972314  69.3254995
  50.1694822  27.3340130  61.5442228  49.6792650  27.3993444  60.7246828
  51.0413074  27.6653576  61.3288879  93.9511490   5.8912593  53.1963730
  94.1209221   5.2288169  53.8661337  94.6331310   5.7485592  52.5400496
  26.2943101  26.8441606  79.6982145  25.8014393  26.2861466  80.2998161
  27.0593143  26.3210702  79.4586802  46.4874411  35.4806685  88.6937809
  46.4973927  36.3178325  88.2297897  47.3508787  35.4233241  89.1029453
 116.2078167 108.6631370  73.7564707 116.6723395 109.2901888  73.2021618
 115.6618310 108.1645861  73.1485367  45.7498407  33.5934615   4.7951159
  46.2653446  34.3041682   4.4138232  45.4403448  33.9435554   5.6305063
  23.5742031  98.5653817  23.7362909  23.9878069  98.1819402  24.5096874
  22.6602780  98.2859647  23.7900805  32.1911001  50.5409670  41.6269302
  32.3681068  50.5524445  42.5675488  32.0306563  49.6192455  41.4246368
  41.2400055  56.5188885  62.2048330  41.5051937  56.4021873  63.1171274
  41.9729710  56.9824839  61.7997742   4.4471216  30.5322027  33.9110923
   4.6452361  30.3383756  32.9948974   3.6261830  31.0234451  33.8798809
  10.4077458  10.7452440  31.7626858   9.5419091  11.0101879  32.0731115
  10.5811346   9.9186909  32.2132182  99.0601540 108.1296883  31.9977522
  99.3288232 108.3579368  31.1078358  98.6908532 107.2501790  31.9182992
 100.3894901  20.6808639  62.1975613 100.2369595  21.6230583  62.1252203
 101.3240433  20.5751705  62.0195866  55.7805347  23.9358401  57.0146370
  55.6773329  23.8651347  57.9636288  54.9234295  23.6965489  56.6620159
  92.7281250  64.1979443   0.1640815  92.1785129  64.5001452   0.8871478
  92.6308979  64.8719590  -0.5085927  24.9724865   8.4617782  67.5157499
  24.2952013   8.0286497  66.9962168  25.6860900   8.6173618  66.8970442
  23.3156705  -0.0310772  83.2736111  22.7041125   0.5789820  83.6859894
  23.8446784   0.5159329  82.6929569  54.2643595  25.0247049  84.7737312
  55.1194048  24.6114802  84.8936176  54.1423798  25.0517845  83.8247204
  35.7491207  35.3939605  88.7931156  36.4686680  35.8428550  88.3492947
  35.0512457  35.3552771  88.1391239  43.2654142  12.8645861  54.6724129
  43.6431026  13.3650327  55.3956985  42.7449417  12.1835327  55.0984478
  12.4592602  59.5710564  79.3261719  12.9276896  58.7379456  79.2738867
  12.0317590  59.5521355  80.1823997  30.2410245  11.2408233  71.9826174
  29.5877194  10.9706998  71.3372850  30.8501077  10.5039167  72.0297289
 104.4590404  38.3343291  79.3089676 105.3086414  38.4882307  78.8957787
 104.5565893  37.4904466  79.7500801  48.0049324   7.5036484  90.5176830
  48.6870766   6.8501687  90.3631687  47.4954462   7.5142348  89.7074127
  25.1795578  46.3564873  44.7088480  26.1008263  46.5691614  44.5596361
  25.1563287  46.0030127  45.5980873  22.8878104 103.9365249  65.5627060
  23.3557545 104.6399819  65.1128101  22.0237624 104.3041682  65.7484245
  93.6245537   7.9415178  68.8119173  93.0773067   8.0190527  69.5934153
  93.5723972   7.0158571  68.5738754  51.2126207  39.1665649  57.0266771
  51.9829130  39.6585941  57.3109007  51.3472462  38.2866120  57.3785162
  39.7577405  10.8796203  66.7621803  40.3078032  11.4864600  66.2667894
  39.1644859  11.4441383  67.2577620  48.6661707  84.1786575  86.7915154
  48.1551348  83.3727598  86.7166996  48.0376040  84.8782586  86.6135025
  47.9345083  35.1244140  32.6410174  47.4245405  35.0480890  31.8345833
  48.5355091  34.3798399  32.6157165  15.0717007 108.4420852  49.7642183
  15.2852188 108.5307146  50.6930780  15.6342160 109.0814056  49.3270922
  48.2765722  22.1332073  81.8091297  47.3591757  22.1525240  81.5366650
  48.5607433  23.0458474  81.7584515  44.5775414  19.5304513  64.5081758
  45.2953959  19.9690461  64.9648571  44.9948263  18.7996101  64.0521336
  74.6265125   6.0349846  32.3994446  75.4092836   5.6411386  32.7846551
  74.9270964   6.8747568  32.0520782  84.0003109   2.3436089  50.1260805
  83.4770298   1.5587118  49.9637604  84.1515255   2.3394187  51.0712528
  24.5888710   0.7006225  63.1835651  24.2717099   0.1673686  62.4546719
  23.8764095   0.6809513  63.8225031 105.4053760  98.8390648  60.6143427
 105.6016088  98.5093569  61.4912796 106.0379721  98.3995592  60.0461102
  33.0591607  13.6216629  53.4454536  33.4054852  12.8628409  52.9758978
  32.2868204  13.2885623  53.9023638  49.7967482  40.1483440  39.7693348
  50.0247431  39.4955039  39.1074824  50.5580330  40.7273674  39.8068333
 102.1777512 107.1807125  53.6332321 102.4265362 107.9723247  54.1103983
 102.9811264 106.6617235  53.5948992  33.8021684   8.9287657  78.4220839
  33.7796283   8.3947933  77.6279831  33.5085583   9.7941434  78.1372213
  14.7829938  39.0592337  52.2272491  14.0157759  38.7077999  52.6790237
  15.0624084  38.3528781  51.6448212  54.2175722  15.4715419  66.7321301
  53.9574146  14.8494363  66.0527706  53.9355707  15.0638139  67.5509501
  86.4963640  69.2781286  -0.0310498  85.9411205  68.5334735   0.2000731
  85.9495987  70.0457149   0.1365394  76.8284512  14.9640870  55.7114458
  77.2047329  15.7473254  55.3099775  76.9730425  15.0830734  56.6501522
  55.1243591  20.4333138  60.0410986  55.3906441  20.5873609  59.1346788
  54.5813417  19.6460819  60.0007105  13.8797760  24.7341228  57.3209906
  14.0118945  24.1480446  56.5758133  14.7401667  24.7907972  57.7366209
  30.1584435   7.0677280  78.9084196  30.3523088   6.5662199  78.1165028
  29.5537257   6.5129936  79.4011879  22.2666979  36.9267178  73.5905027
  21.8009472  36.4265299  74.2606688  21.7509246  37.7263784  73.4867954
  18.8829886 105.7175093  75.7220078  19.1595398 105.2999737  76.5377378
  18.7399660 106.6339349  75.9585238  24.5184255  15.5696547  40.8182573
  25.3617787  15.3725219  41.2258434  24.0855980  16.1587000  41.4362526
 114.3915153 106.3192418  53.6468315 114.7512771 106.1576795  52.7746534
 115.1599670 106.3977294  54.2121267  24.7386575  21.1269522  73.6108255
  24.8178458  21.8446803  74.2391777  25.0637484  20.3595257  74.0815735
  17.1645367  19.9784374  77.7742100  16.8728316  20.7542229  77.2953606
  16.3670993  19.6280992  78.1711817  80.7686996  29.5236564  53.6144972
  80.6404495  29.5546937  54.5625591  81.0317612  30.4133964  53.3791351
  94.5279838  93.2327842  52.1158838  94.1838361  92.3484945  52.2416878
  95.2181257  93.3170497  52.7737904  30.7279444  11.3448739  65.8361578
  31.1048508  11.4594162  66.7085409  31.4165974  10.9104908  65.3328657
  49.6433401  36.5163112  56.4837885  48.7292862  36.6461992  56.2310696
  49.6102905  35.8453369  57.1656513  41.0671663  23.6933422  70.3399467
  41.0403442  24.3484235  71.0373545  40.4066658  23.0480099  70.5919743
  38.1107140   0.5083954  49.2185545  38.5044050   0.3468953  48.3611393
  37.6264405  -0.2936392  49.4146490  88.3286109  17.3239958  41.6672277
  87.9555573  16.4425504  41.6779470  89.2180361  17.2117400  42.0027208
  11.7541397  27.6802897  94.5489597  11.9562113  27.0817471  95.2680874
  12.5974274  28.0691719  94.3168640  68.6300360 104.9043246  60.4382849
  67.9632078 105.3104233  59.8845148  69.1120707 105.6417256  60.8126020
  46.4594078   5.2659273  79.6202660  46.7564583   4.7040549  78.9045191
  45.6299353   4.8788306  79.9002028  54.8365116  14.0460253  50.4821968
  54.3453455  13.6235297  49.7775793  54.9753428  13.3521879  51.1268282
   6.0143791  98.7001824  48.5803556   6.5014778  98.9878725  49.3524981
   5.5491053  97.9152035  48.8694286  12.0881593  25.4085660  50.5086613
  12.3265815  25.3068972  49.5872211  11.1470544  25.2354765  50.5330563
   5.7269967  17.9152715  36.5628433   6.5978193  18.0812466  36.9238853
   5.4160321  18.7759590  36.2822175  32.3115802  55.2169561  36.3083076
  33.0517983  54.6820498  36.5949821  31.5605307  54.6245050  36.3424182
  36.6382241   8.4233654  49.7715759  36.8204403   8.4385133  50.7111502
  37.2555637   9.0521330  49.3977070  59.9938059  38.1569529  65.7380104
  59.1156197  37.7853966  65.8214951  59.8990774  39.0635300  66.0302019
  42.4217606  43.8626003  58.7489700  42.7988672  43.1097555  59.2042160
  41.7948198  44.2298889  59.3720865  59.2054653  21.0361123  52.0241404
  59.6361351  21.4477944  52.7733231  58.5455132  21.6720843  51.7480278
  75.1253128  38.4650421  57.9831600  76.0573912  38.2619619  57.9042864
  74.8795557  38.1309509  58.8458395 104.6134711 106.2364738  50.3873730
 103.8460685 105.9838843  50.9007168 105.1600147 106.7286544  50.9999752
 114.0983642  76.8105798   9.2785758 113.4704269  77.5301437   9.3430633
 113.5592521  76.0357337   9.1198176  67.7601051  51.0895729  34.8877931
  67.8015661  51.3816309  33.9771819  67.6278877  51.8929005  35.3911924
  32.1053576  14.9072635  57.7410412  32.0917130  15.7729578  58.1492329
  32.7688670  14.4217634  58.2312202  60.1796246   9.2604709  65.7180262
  59.6969938   9.2206138  66.5436840  59.5321655   9.0325439  65.0508881
  59.4975519  13.2029319  45.0234604  58.8317347  13.6937952  44.5418215
  60.2786016  13.2547438  44.4725513  87.3840618  49.9384642  43.2920265
  87.3028088  50.8773279  43.1242037  88.1680012  49.6758842  42.8096104
  69.2463387  75.3676205  14.6036166  69.1097869  74.7283797  15.3028697
  68.6598362  76.0915713  14.8230285  72.4925995  37.3707747  35.1165247
  72.4122906  38.0159450  34.4140005  72.6923895  36.5500402  34.6662903
  61.0062265  48.9745378  42.2636080  60.1366758  48.5801411  42.3311281
  61.1716175  49.0300560  41.3224411  30.1928830  44.6348000  63.9048672
  31.0231781  45.0401735  63.6548376  29.8984385  45.1398230  64.6628141
  78.7049770  18.5037613  36.5596342  78.9048958  19.4391251  36.5227723
  79.1430664  18.1348014  35.7927036  36.3291097  15.6529331  23.7138987
  36.2124109  14.9754572  23.0478358  37.1034455  15.3762364  24.2038727
  30.3133464  31.2636399  55.6849527  30.7963872  31.1962152  54.8613262
  30.5053210  30.4453063  56.1428928  49.2752552   6.3456070  58.0757952
  49.4517899   6.1245245  57.1613598  50.0975704   6.1614317  58.5297823
  49.5465899   1.4730611  48.8762951  50.2706480   1.5646109  48.2569504
  49.8819828   0.8831201  49.5513582  32.5960517  24.4749188  51.2706280
  31.6797638  24.2592740  51.0970020  33.0706453  24.1306925  50.5139923
  44.7399807  46.8301964  39.1271400  45.0137997  46.9843531  40.0312901
  43.9250517  47.3240042  39.0361810  56.8400860  22.6535845  91.0727024
  56.3709736  23.4815931  90.9698963  56.3730288  22.1991444  91.7738247
   5.4369913 105.3424811  59.0101767   5.8057438 105.0695469  58.1700802
   5.2850281 104.5238238  59.4823408 102.2642040  59.8278522  45.7273769
 102.5694847  59.3144226  44.9794245 102.0059395  60.6691790  45.3509569
  74.9460506   0.3596598  87.7579308  75.8326864   0.3878294  88.1175423
  74.4829702   1.0670158  88.2067394  43.9493132  11.4052427  59.2168951
  44.7048807  10.9392822  58.8588095  43.6348343  10.8431637  59.9249935
   1.6450678  93.0137860  43.5191393   2.2153794  93.4830248  44.1280651
   0.9732949  92.6196265  44.0755510  20.3564548  16.6249394  61.9108963
  20.0204611  16.2036848  61.1197662  21.1327887  17.1016431  61.6171455
  30.7176876  28.2775378  56.4963055  31.6161656  28.0448723  56.2621403
  30.2169442  28.1381655  55.6925249  56.7182684  38.3130741  73.9069557
  56.5795755  39.2581916  73.8457155  56.0842943  37.9378676  73.2957888
  16.0176611  22.2611213  28.4448361  16.5014803  21.9654536  27.6736474
  15.4696131  21.5139198  28.6847615  32.3045778   9.5126748  81.0308647
  32.7234960   8.7312996  80.6700420  31.3675833   9.3203878  80.9947872
  54.9693823   0.6167047  76.9510031  55.2144766   1.0216726  77.7829647
  54.9532032   1.3423559  76.3269854  28.8296771  36.8497157  68.0050755
  28.8873124  37.5081587  68.6974335  29.6552134  36.3686776  68.0626965
  30.0289083  37.3800135  35.2888179  29.3456340  37.0895076  34.6846867
  30.4595971  36.5725636  35.5694699  56.6596079  39.8879123  37.2674227
  56.3659859  38.9781332  37.2192669  57.6134539  39.8352528  37.2071600
  40.4800367  20.6234217  50.6479025  40.1909447  21.4525604  50.2668667
  40.2403736  19.9640870  49.9966955  56.1408377  51.8262434  25.6469417
  56.8083096  52.4611378  25.3868914  56.2357330  51.1087751  25.0204730
  -0.1587638  39.3375373  28.1065702  -0.2208630  38.3940315  27.9576588
   0.6613259  39.4507146  28.5870647  53.1224574  48.0908828  17.9894465
  52.6156534  47.3415844  17.6764983  52.9130865  48.7948446  17.3755759
  45.8747292  52.0900726  16.5452325  45.8941555  51.4565706  17.2625411
  44.9480820  52.1657753  16.3175762  33.4022069  34.0711737  69.0742111
  34.0354085  34.6128774  69.5452166  32.6315093  34.0554261  69.6416712
  52.0369530  34.0920448  53.0489302  51.9643259  33.7940049  53.9556456
  52.9571342  34.3364501  52.9501247  43.0797577  31.8577099  55.9580088
  43.7526226  31.3919210  55.4614925  42.6827002  32.4535227  55.3227234
  76.5271664  52.4995947  31.0583353  75.7816839  52.8407431  31.5524006
  76.7028952  51.6441250  31.4501524  16.2772309  60.4935598  59.1451168
  16.0568081  60.7909297  60.0278473  16.9258915  61.1252498  58.8345671
  57.0129728  37.6641250  94.8328781  57.6133156  37.2096562  95.4238796
  57.2719669  38.5839009  94.8891640  42.6420355  41.6247225  60.1587200
  42.1286678  40.8168507  60.1537037  42.2719860  42.1392012  60.8760834
 111.6140486 104.1439926  76.6605902 111.5813638 104.0080076  77.6075172
 111.3514067 105.0565835  76.5404701  76.4264263  87.0763211  23.7305373
  76.1714114  87.4905424  22.9061526  76.1298884  86.1702304  23.6450976
  30.9378195  14.2124236  42.7586174  31.1806846  14.4489169  41.8634510
  31.7124152  13.7722588  43.1085968  64.3373775  10.9767890  34.7558308
  64.6971655  10.3532207  34.1249990  64.9628067  11.7013931  34.7597027
  51.3921404  52.6553869  34.1649652  51.5383244  52.4905872  35.0964689
  51.6770124  53.5598040  34.0341496  39.1015196  49.0259075  55.3947830
  38.6593127  49.7850132  55.7748365  38.9506602  49.1074896  54.4530725
  53.0752420  38.9013219  35.5200219  53.8826895  38.6147928  35.9468246
  52.7464581  38.1179833  35.0789857  17.0480144  55.3692436  67.3219156
  17.3745966  54.5480776  66.9541359  16.1633515  55.4556608  66.9667625
  76.2694693   2.6583257  46.5783930  76.5956116   3.5415709  46.4059353
  76.8017530   2.0929323  46.0187197  39.8694277  42.4642515  54.4646978
  39.9879360  43.0060720  55.2448368  40.3873014  41.6781473  54.6381235
  32.8496194  35.1361489  48.4035921  33.0798316  34.5355177  47.6947403
  31.9901848  34.8375058  48.7009478  40.3746700  48.8426971  30.1489949
  40.5769968  49.7282982  30.4506588  40.7258224  48.2710361  30.8317280
  64.1978836  36.1638474  56.6595459  63.8206148  36.7866874  57.2808123
  63.8954210  35.3084087  56.9644594  67.8228092  14.1052365  61.3004398
  68.7139702  14.1337299  60.9522295  67.3861361  14.8585773  60.9029150
  40.9624386  40.0283575  33.2795405  40.2038383  40.4073000  33.7235618
  41.4550495  40.7842064  32.9597569  66.5579176  45.7831287  33.6256742
  67.1969938  45.5647278  34.3039894  65.8587980  45.1392269  33.7390447
  54.4042873  41.6203547  37.0806003  55.2355480  41.1602354  36.9643092
  53.8318348  41.2548971  36.4060879  71.5679121  66.5276432  34.1975451
  72.0258856  66.6363001  35.0310230  70.9376192  67.2476816  34.1749406
  13.4827793  35.7984567  31.4135027  13.3864474  35.6764221  30.4690146
  12.6464581  35.5097890  31.7788363  44.9275541  49.3976974  51.9113922
  45.8167744  49.1189861  52.1301126  45.0363684  49.9734879  51.1545181
  31.4547038  41.2483692  73.1714487  30.8998871  40.4731941  73.2581282
  32.2378445  41.0405970  73.6811113  49.4474030  27.5349975  52.9893827
  49.2085218  27.5408387  53.9162779  50.4041719  27.5062466  52.9887962
  27.7910185  29.2457819  15.1763976  27.1006680  29.8286223  14.8602557
  27.8674006  29.4486189  16.1087370  51.9178057  22.4587989  49.4608068
  51.8058777  22.8543091  50.3252554  52.7443171  22.8180552  49.1382456
  12.3214996  43.7067318  66.1237717  11.7213368  43.6678219  65.3791094
  12.4462688  44.6424484  66.2821913  35.5110298  92.1066427  42.8049183
  35.1702391  92.9653084  43.0554914  36.2108694  92.2994708  42.1809959
  41.2297249  45.4794836  68.8312006  41.3768482  44.6426535  68.3904028
  41.6819954  46.1213350  68.2837439  23.1841016   8.2950240  74.2829704
  23.2305646   7.9601896  75.1784897  22.3062515   8.0580270  73.9838934
  58.5928106   9.3770790  75.2556705  59.0867519   9.5922023  76.0468578
  58.9754820   8.5544145  74.9506855  19.7691965  16.0832918  79.3800592
  20.6047392  15.8377111  79.7772884  19.8874295  15.9088218  78.4463501
  40.2755785  43.3484125  56.9975424  41.0525990  43.4088850  57.5532532
  40.0027990  44.2566681  56.8675661  59.4719172  40.7325268  66.4222908
  59.7664976  41.6390944  66.5093994  58.5326862  40.8012915  66.2509632
  46.0007858  37.8404427  40.5868292  46.6853762  38.4886885  40.7521963
  46.3555431  37.0229793  40.9363079  48.1325388  29.1326141  89.4860172
  49.0887785  29.1722226  89.4695854  47.8801250  29.0563798  88.5658550
  63.9995193   7.4645543  36.8110895  64.1359997   7.0342755  37.6551652
  63.2383108   8.0280697  36.9498181  45.4444504  12.9180372  37.1105504
  44.8166800  13.1868458  36.4398241  45.3394032  11.9684851  37.1701264
  35.6212163  33.7565613  56.3796425  34.8293614  33.2691646  56.6068935
  35.3939247  34.6720481  56.5422916  46.9686794  40.5638313  57.3872185
  47.5730610  40.4723120  56.6506147  47.0544195  39.7422767  57.8708839
  60.8390093  29.8999619  67.0640469  60.6553316  30.2512527  66.1927891
  60.7701445  30.6563044  67.6466608  31.8823814  20.3014636  62.2133923
  31.4821839  19.4336271  62.2675419  32.6144433  20.2664685  62.8290987
  21.6092621 103.8400363  35.6421447  21.2336813 102.9675566  35.7602477
  22.5515448 103.7119614  35.7513809  47.9623652  51.5884686  58.1482363
  47.7400494  50.6601810  58.0768824  48.8371611  51.6553545  57.7654982
  41.3525438  13.8802552  76.4597559  41.3841534  13.6599028  75.5288029
  41.5404606  13.0554378  76.9076300  50.3042984  30.5791068  53.2718468
  49.8541546  29.7464585  53.4143162  50.8879375  30.6678438  54.0253210
  19.2086111 108.1688050  72.0002604  19.5881258 108.0504378  71.1295223
  19.0972649 107.2793361  72.3359394  47.1490383  45.5557251  41.1344194
  47.5235558  45.5658960  42.0152521  46.2709522  45.1931667  41.2516785
  53.2578373  34.5887613  62.1342945  53.2431078  35.5358243  61.9961452
  54.0897799  34.3044162  61.7558098  74.9766016  35.2685905  37.5822568
  74.9604797  34.6852350  36.8235278  74.2443466  34.9760532  38.1248975
   9.7606230  46.8650198  30.1530290   9.3755174  46.8536711  29.2767882
  10.6787074  46.6324806  30.0141859  46.6485977  21.3862586  40.8554506
  45.8786106  21.8491483  40.5251741  46.5527344  21.4108253  41.8075228
  33.3674513 108.0218331  72.4199104  33.2506119 107.6079203  71.5647793
  32.8785168 108.8423819  72.3576450  34.4063926  26.7071009  49.5321751
  34.7641897  26.1079836  50.1873589  34.4017768  27.5606823  49.9653149
  58.5619116  47.8516674  41.8510103  58.4576273  47.3844767  41.0221004
  57.6831055  47.8659201  42.2301245  33.8977003  38.7171197  84.3973827
  34.4485974  38.3286667  85.0769711  33.8322902  38.0387115  83.7252808
  82.9404510  71.4669316   9.8024100  82.9427732  70.6211226   9.3542689
  83.5153164  72.0199161   9.2732924  35.0286436  42.5476599  62.5076723
  34.2551827  43.1067085  62.4338293  34.7896385  41.8936443  63.1644630
   3.2865471  12.2719014  88.9221096   2.7697727  12.8188109  88.3304501
   3.3319640  12.7751255  89.7350883  13.0141079  14.0399730  61.2477875
  13.5551476  14.3994033  60.5447102  12.6028895  13.2664776  60.8619928
  49.7946358  41.4830923  77.5031710  49.5189667  41.2509012  76.6164160
  49.9800968  42.4210835  77.4584436  15.4565990   8.4965950  24.4369626
  16.3645840   8.2212675  24.3105197  15.1090479   8.5904247  23.5500360
  41.0779953  37.6072049  53.4803152  40.4676247  38.2216740  53.0727482
  41.5808821  38.1414104  54.0950966   2.6013981  97.5831591  51.7645454
   2.7596031  98.1686389  51.0239935   2.5146996  96.7155301  51.3696575
  79.6581793  33.0914450  51.2810850  80.1491451  32.7756095  52.0396566
  80.0082302  33.9670777  51.1168718  69.8470497  43.3382607  39.2539716
  70.1365900  42.9067469  40.0578308  70.6411839  43.7345600  38.8954663
  47.7820730  14.7534680  61.7859840  46.8730831  14.7779596  62.0849323
  47.7365589  14.9951398  60.8609104  50.6005812  21.4525604  58.1191969
  50.6063128  20.4973531  58.1806517  51.5057659  21.6846609  57.9118299
   4.5120751  96.2189960  48.8231897   4.8870264  95.9360456  49.6572065
   3.5656058  96.1816322  48.9611292  78.1668615  37.0816612  94.4367886
  78.3810759  36.9193244  93.5180950  77.3743916  36.5678239  94.5923519
  40.4524326  13.9201748  53.4249163  39.8428464  14.6447861  53.2849979
  40.2765703  13.6285770  54.3194962  32.7123976  30.2048397  44.3791103
  33.0424762  29.9553204  45.2422571  32.5166416  31.1384606  44.4582510
  46.9004345  39.0912390  75.8282709  47.4643612  39.8461366  75.6599092
  46.6531801  39.1775751  76.7489481  40.1076221  46.3633108  57.3241997
  40.6754303  46.7246151  58.0048513  40.7007074  46.1585140  56.6013288
  42.9972696  22.8731894  73.4314060  43.9057779  22.6604390  73.2179070
  42.4805832  22.3958111  72.7822733  57.9393864  37.1646857  39.9940419
  58.5197496  37.2746468  39.2408347  57.8694487  36.2166476  40.1061296
  26.1788321  42.5525808  57.8802681  27.0950437  42.7990389  57.7535963
  25.9057903  42.2017193  57.0325804  63.4192610  16.3008618  50.2282763
  63.7268591  17.2072399  50.2378273  64.2197990  15.7761586  50.2358818
  37.1018028  19.2477548  35.2607870  37.5051141  18.3797908  35.2462530
  37.7721739  19.8170614  35.6385779  88.7818336  44.4918489  21.6911054
  89.1861057  44.1550398  20.8915114  89.0977573  45.3929329  21.7579937
  41.9140959  41.4543629  86.0655975  42.6234818  41.9953871  86.4124298
  41.9544029  41.5850925  85.1182270  80.0199318   6.1545378  34.0354443
  80.0947094   7.0120382  34.4541717  79.8741627   6.3517064  33.1101823
  42.0326090  40.4814577  71.8719721  42.9255867  40.8261728  71.8721628
  41.4971924  41.2035561  71.5431404  22.3911810  26.2763929  39.3149328
  22.9140425  26.9018126  38.8132381  21.6662550  26.7953563  39.6633458
  63.9035463  18.9199090  47.3757935  63.1217003  19.4592118  47.2570276
  63.9330149  18.7446618  48.3163548  11.3694750 101.4053457  51.3186121
  10.7101237 101.8806624  50.8130789  12.2058140 101.7484128  51.0038567
  93.5270799  89.1314297   9.3234271  93.1401981  89.0666227   8.4503001
  94.3344988  89.6282845   9.1913623  54.0023232  22.6523209  55.1707172
  53.2025766  22.1345425  55.2631235  54.3471050  22.4092221  54.3114948
  36.7210126  16.3511372  86.7346096  36.6069627  17.1287072  86.1881542
  36.6031694  16.6682780  87.6300240  53.8333082  18.1457961  86.0798168
  54.7065639  17.7539992  86.0921383  53.7706995  18.5643935  85.2212715
  77.6320887  12.1867537  44.2837095  76.9354343  11.7054665  44.7301006
  78.0550432  12.6937020  44.9767780  62.4391842  37.4462676  92.7576637
  61.9954395  38.2713366  92.5612354  63.3695459  37.6425505  92.6475239
  30.1434779  30.6623554  46.6956568  29.2239332  30.7251906  46.9539595
  30.6298995  30.7751441  47.5122976  28.2438551 105.8141246  57.9658556
  27.3184286 105.5777305  57.9031086  28.3525406 106.5258818  57.3351288
  25.9610319  48.3310175  57.2819138  26.1464620  49.2638969  57.1742916
  26.1123848  47.9551315  56.4147139  57.2870398  25.2027011  63.4662771
  57.6645231  26.0022116  63.0995035  56.5308762  25.5040121  63.9699221
  46.8008995   6.7782450  49.7772217  47.1842957   6.1682206  49.1470575
  46.1980963   7.3110086  49.2585468  58.4604454  18.7698317  35.7597876
  57.7932501  18.8096559  35.0745893  58.1411839  19.3631089  36.4397335
  40.2600813  30.0582266  83.0303001  39.5086718  29.5263624  82.7681255
  40.6165075  29.6081614  83.7962246  69.4411612  24.0209222  56.8598604
  69.3204021  23.0913305  57.0535231  69.3339443  24.4575262  57.7049160
  21.8301630  19.9647868  76.4790869  21.3003325  19.5430291  77.1555758
  21.6607904  19.4527400  75.6882954  45.0080109  21.2155414  55.0120878
  45.5688095  20.4563832  54.8526669  44.1734314  20.8416557  55.2947998
  64.8073292  15.6788063  30.6990623  64.3044615  14.8797703  30.8568549
  65.7188797  15.4180205  30.8305764   2.6987725  18.1616604  57.5922775
   2.6108432  17.6685441  56.7765951   2.4939494  19.0646315  57.3495340
  32.6031375  10.8984995  41.9260883  32.7788806  11.2812567  42.7856493
  31.6889954  10.6182241  41.9710779  57.2542953   4.7228885  58.4891653
  56.5989971   5.3683317  58.2241726  56.7873764   3.8874292  58.4740257
  75.2638674   4.6158236  27.5828671  75.5647755   5.4041517  28.0347800
  75.7641649   4.6017760  26.7669392  54.9690760  69.9502437   1.1292571
  54.0806414  69.6559410   0.9284991  55.4979540  69.6316164   0.3978175
  66.0943222   4.9751139  19.1383731  66.9085932   4.5453110  18.8767219
  66.2696123   5.9093320  19.0254879 100.3178348  18.7400973  66.8593121
  99.9737980  17.8689563  66.6618681 100.1963749  18.8371682  67.8037977
  54.8294449  13.6515677  71.4372969  54.9026918  12.7314162  71.6906548
  55.5612993  14.0809560  71.8802977  25.6418037   7.5631624  64.0099430
  26.2289310   8.0895847  64.5525217  25.9434175   6.6632533  64.1341352
  53.5961533  25.1894069  61.2058687  54.5452785  25.3127313  61.2192774
  53.4628487  24.3162322  61.5746880  26.8624139  23.9660096  63.6297131
  26.5503860  24.8029852  63.2857084  26.1746216  23.3412242  63.3998966
 112.8012563 102.0588379  39.1325378 112.8742624 102.6823627  39.8551154
 113.1050850 101.2290912  39.5005608  59.4804382  26.0993814  62.0353413
  59.9888992  25.3214383  61.8062115  59.5263815  26.6535807  61.2562466
  46.6111088  30.2593732  85.5638599  46.0902309  31.0125327  85.8425617
  46.5428877  30.2610946  84.6090984  99.3172323  77.5557083  76.7911142
  98.9233076  77.0439691  77.4976390  99.0554058  78.4580178  76.9741875
  66.5756559  26.1641812  48.0148411  66.9423723  25.3657436  48.3946419
  67.2522306  26.8272710  48.1519365  39.0571332  50.3418064  20.0800395
  39.0175390  49.7225428  19.3512201  38.2927275  50.1302290  20.6159043
  71.1910009  14.1928303   2.1535341  72.0524168  14.4007206   1.7916292
  71.1444139  14.6971011   2.9657978  50.5516481  23.3643246  55.3588486
  50.9506416  22.5287104  55.6013107  50.5610418  23.3654451  54.4016933
  52.2323370  14.2556250  56.4218235  52.9049730  13.6168575  56.6579723
  52.4934435  14.5694113  55.5560350  93.6553669   7.3900092  24.9030042
  93.9920235   8.0024523  25.5570745  93.1411743   7.9347360  24.3070912
  52.9104471   6.3868904  44.8230362  53.4617805   7.1004057  45.1442242
  52.1900845   6.3392740  45.4515648  55.0690413  26.4147663  68.5509729
  54.5058823  26.9731116  69.0870094  55.8720779  26.3219976  69.0635729
  63.8797283  35.3757453  45.8998632  63.9247227  34.6896601  45.2339077
  63.7029123  36.1769056  45.4067993  45.4214287  36.0871887  27.6970983
  45.5821800  36.1963272  28.6343718  45.5141878  35.1465344  27.5461173
  81.5189457  36.3306832  39.0705919  82.2131634  35.8926010  38.5782766
  81.6849327  37.2642398  38.9396214  75.2275181  41.2855196  50.3815842
  75.1855469  40.3931427  50.7252932  74.3697023  41.4287758  49.9817610
  86.8494987  34.7728801  24.3863177  86.5500069  34.9892139  25.2693439
  87.0287609  35.6207132  23.9797783  68.3091450  35.6967902  44.3196821
  67.8775644  35.0662971  43.7431002  68.1067944  35.3905010  45.2036953
  38.5287476  44.5262909  41.2876034  39.4648314  44.4958925  41.0899782
  38.2865810  43.6130381  41.4410925  97.4629021  28.0173254  76.1331701
  97.7478218  27.1035433  76.1404037  97.3860836  28.2515883  77.0580769
  42.7181721  20.0710988  52.1167040  42.4020243  20.0712323  53.0201864
  41.9341183  20.2213311  51.5885735  92.2528934  43.2232237  60.7415152
  92.5604343  43.9824438  61.2367344  91.4459133  43.5217190  60.3220987
 100.4119587  45.6676435  22.5776386 100.1826000  46.5530205  22.2952580
 100.7796383  45.2547407  21.7962599  77.1807623  93.8277245  36.3057613
  76.2373829  93.8647652  36.4635181  77.2867584  94.1499710  35.4106903
  83.8357353  35.7131791  37.5570726  84.3611717  35.0186300  37.9542494
  83.5549164  35.3504086  36.7169714  77.2538519  35.4736781  44.0214348
  77.1386147  34.5284319  44.1187048  77.9876947  35.6860971  44.5981359
  87.9685593  36.8211794  45.2085638  88.4649277  37.1682501  45.9497738
  87.7916527  35.9104514  45.4441738  25.7081628  35.7570672  44.2396641
  26.1832523  34.9313545  44.1462946  24.8815775  35.5120993  44.6555710
  83.4605122  39.3377328  50.0005388  84.0833092  40.0457478  49.8359966
  83.0101013  39.2158842  49.1647625  34.3585062  41.1933994  42.4505806
  34.8205018  40.6397009  43.0800343  34.8297572  41.0648489  41.6273975
  83.2680607  38.7763834  52.5123119  84.1676998  38.4495878  52.5221252
  83.0997276  38.9869285  51.5938520  66.8000698  39.7813272  43.0618572
  66.4334488  40.5500174  42.6248932  66.9127131  39.1386676  42.3614788
  84.6105671  38.5114026  59.3062258  83.9442539  39.1969728  59.3537426
  84.1152477  37.6931071  59.3420362  62.7729988  25.4172254  40.2532816
  62.3722696  25.9261775  39.5485735  62.5342989  25.8860517  41.0529423
  35.8956075  44.2491770  67.0076227  35.0805187  44.7466755  67.0736170
  35.6841803  43.3926821  67.3790407  52.0440769  26.3319778  35.8430672
  51.8234015  25.4566789  35.5246592  51.9868517  26.8903732  35.0677299
  27.8613448  24.3360448  48.6700344  27.9690266  25.2680922  48.4805012
  28.2624435  23.8918257  47.9230261  48.6243105  15.5840361  54.6557856
  47.6820135  15.7521999  54.6609688  48.8501453  15.5147564  53.7281942
  89.4474983  45.7844400  18.0834222  89.9421406  45.2083158  18.6662078
  88.5345650  45.6618834  18.3437407  67.6085615  56.2479973  61.7794514
  66.9863081  55.5331182  61.6453648  68.4684610  55.8338833  61.7065287
  82.1625710 109.7990704  70.3052568  81.2931728 110.0694561  70.0098372
  82.3254490 108.9744759  69.8472691  83.6220932  58.6064911  49.7296095
  83.0880737  58.3452749  48.9794016  83.8977146  59.5006371  49.5276785
  65.9875727  53.7912560  61.6880226  65.8299303  53.8471889  62.6304960
  66.5528536  53.0257368  61.5847492  99.9969578  43.6503601  20.4416156
  99.3859673  43.2870770  19.8005641 100.5952835  42.9293585  20.6375647
  89.5248795  60.3413296  60.1230049  90.2019882  60.8762550  60.5372667
  88.8750362  60.2018690  60.8118296  47.5156641  67.4613285  66.5341043
  46.8123341  67.6930094  65.9275675  47.1448565  66.7648840  67.0760441
  70.3656483  79.6815062  65.3574276  71.1933470  80.1482964  65.2423143
  70.3085995  79.5239305  66.2998438  63.5262108  39.4235420  42.9786634
  64.0726948  38.8559270  42.4351549  62.9213953  38.8251615  43.4172726
  73.8524818  30.0456762  19.8586607  72.9219437  30.2263451  19.9916601
  74.0874004  30.5567956  19.0841925  95.8451939  27.9717207  53.9450645
  95.6491852  28.4077001  54.7743607  95.1145649  28.2060003  53.3727598
  70.3248692  58.0374432  30.9536123  69.9485970  57.6905584  31.7625141
  70.6052065  58.9240265  31.1807847  84.8306084  77.1051359  33.7553215
  84.6175098  76.3326693  33.2317591  84.9914169  76.7618370  34.6342540
  49.7853374  58.0530834  25.3871799  50.5420208  57.4863482  25.2372551
  49.5008755  57.8425312  26.2765503  67.2776985  71.4780998  65.6138420
  67.5609016  70.6498480  65.2265120  67.9964733  71.7294264  66.1938667
  63.9062738  75.1091099  42.4622154  64.5670652  75.0707722  41.7707586
  63.0853462  75.2781248  41.9998837 108.5327721  67.9307365  36.9286919
 109.4439507  68.0649471  37.1894217 108.2990551  67.0814610  37.3033166
  68.7061167  61.3371897  42.1432924  69.4748306  60.7678843  42.1779585
  68.9024878  61.9625664  41.4457417  66.4450312  89.9910736  57.2183561
  67.2257280  90.5441284  57.1888113  66.7816687  89.1100788  57.3819351
  84.5854187  63.8715029  66.0876083  84.2573929  64.5264769  66.7037535
  83.9187050  63.1846905  66.0906601  91.5381336  40.4332113   7.0126557
  90.7158566  40.8015680   7.3357868  91.9662857  41.1614370   6.5625364
  69.4024515  60.8144569  56.8106222  68.5032654  60.7872248  56.4835835
  69.7955370  59.9993181  56.4987516  80.9117317  84.1647243  53.4454155
  80.4096413  84.7490215  54.0135050  80.6182098  84.3806934  52.5603008
  69.2846870  48.3917332  65.5669689  69.8706627  49.1117573  65.8002901
  68.9036417  48.1135511  66.3998270  64.6448851  65.7375431  44.3155384
  64.1614437  65.7398701  45.1416826  64.0403700  65.3454971  43.6853838
  89.0957069  61.8091869  36.8256068  88.7730217  62.0381498  37.6972055
  88.5422707  62.3098135  36.2261724  62.2079468  81.4148426  59.5627022
  63.1333399  81.3388538  59.7953081  61.7526197  80.8817005  60.2143764
  78.5574293  49.2614555  36.0576463  78.9559698  48.5369301  36.5397859
  78.9653063  50.0460672  36.4240503  85.3300858 104.1784859  48.4938335
  86.2427616 104.0593243  48.7566328  85.3759289 104.4050217  47.5649595
 103.7333775  62.3483133  29.2905474 103.5750580  62.8911734  30.0628614
 103.4357738  62.8846502  28.5556984  75.8936548  53.3332348  24.8596692
  76.4457464  53.6264420  24.1347837  76.3859224  52.6172495  25.2612543
  66.1041164 102.2503853  58.9822817  66.3847065 102.3905277  59.8866367
  66.6316271 102.8633022  58.4701300 110.7291508  50.4091263  53.2666683
 111.5147400  50.0431633  53.6730671 111.0025978  50.6353760  52.3776960
  58.6932421  78.8559628  73.5082150  59.4260406  78.3368969  73.1768370
  58.4688377  78.4471798  74.3441391  60.4851627  82.5284386  38.2981181
  60.9812641  83.3258724  38.1131339  60.9801579  81.8326569  37.8655744
  68.1318378  51.7573738  61.5562010  68.1875896  50.9921408  60.9838867
  68.0237103  51.3922834  62.4344110  74.8113632  49.8568964  50.8370018
  75.0982094  49.5624495  49.9725628  73.8996506  49.5715380  50.8968830
  52.6067495  92.5082588  40.6804752  53.5418653  92.6658535  40.8106804
  52.5492477  92.1136379  39.8103046  81.4788246  50.4104710  57.4802303
  80.7821655  49.7609615  57.3851442  81.0209274  51.2506056  57.5073671
  81.8871498  67.8377247  67.6268959  81.8502712  68.7825251  67.7759743
  81.5513420  67.4541330  68.4370327  65.4493570  20.2481198  38.2248235
  64.9256182  19.6274137  38.7314367  65.8871937  20.7862902  38.8842964
  69.8556662  71.7925453  56.2601948  70.0091124  71.8981934  57.1990919
  69.7501183  70.8488798  56.1394501  82.4378204  75.6967878  78.7698984
  82.9706383  76.4918852  78.7575483  81.6669369  75.9330511  79.2858028
  82.8922176  86.3498116  70.0479650  82.1322823  86.8025875  70.4136562
  83.4986115  87.0518303  69.8119831  72.3958445  71.1863804  73.2228279
  72.1793509  70.5245495  73.8795900  73.3369207  71.3275194  73.3261919
  68.7166405  91.6806030  56.7579126  69.3911791  91.0549259  56.4937973
  68.4459543  92.0999718  55.9411621 103.6631680  24.3062997  63.0124903
 103.3800602  23.4261775  63.2604170 103.3142090  24.4303989  62.1298456
  71.8529129  57.0151615  62.2556591  71.4141893  56.3140917  62.7375889
  72.0033312  56.6489553  61.3841629  72.0937109  73.9717579  73.4542561
  71.4877987  74.0514708  72.7175379  72.2485971  73.0307388  73.5362434
  64.9760771  39.7992086  56.7627382  64.7311354  40.7104874  56.9233990
  65.5503750  39.5730090  57.4943447  90.0180340  63.9086676  52.6491499
  90.0916195  64.0121078  53.5978985  90.3044605  63.0105305  52.4832106
  72.0835257  61.4355230  40.1577902  72.8900719  61.3393021  39.6513772
  71.4018679  61.5697527  39.4993377  68.7141943  58.3137417  66.2800646
  69.3003511  58.4450912  67.0253181  67.8425550  58.5102654  66.6233635
  64.2187309  86.1984730  41.4330530  65.0114059  86.4586926  40.9638119
  63.5076952  86.3699341  40.8155918  62.4272346  84.5852280  37.9925489
  62.4308252  85.1602364  38.7577796  63.3459234  84.5311737  37.7292538
  48.4771442  99.4138241  58.4490299  48.6943865  98.4822464  58.4143400
  49.2043877  99.8461819  58.0013561  97.2954464  45.1492500  63.4182167
  98.2165813  44.9057102  63.5101223  97.1659088  45.2445745  62.4746227
  90.6871700  83.5612583  48.1863499  90.4951572  84.1196156  48.9397430
  89.8308754  83.2453442  47.8979397  70.4434013  54.1136360  60.1160145
  71.0430193  54.8289633  60.3281546  70.7618475  53.3731222  60.6322145
  95.0366783  49.9839735  51.4127207  95.7234764  50.6404734  51.5291023
  94.4609833  50.3555155  50.7443142  69.1690779  34.1435909  46.8276072
  69.1077709  34.6514869  47.6366282  70.0013208  34.4123721  46.4385557
  65.5581474  61.5864944  68.1289244  64.8689461  62.2222376  67.9364061
  65.3833580  61.3086843  69.0280914  49.5184994  79.6216488  54.7059155
  48.5692120  79.6593523  54.5890474  49.8744488  79.9724627  53.8895464
  76.3460732  54.2274094  44.6663713  76.6680527  53.5343218  45.2427340
  76.5468025  55.0390244  45.1324415 107.2560883  52.3724270  66.5661240
 107.1012115  53.3169508  66.5769339 106.4733410  51.9967413  66.9691133
  78.1219101  85.7855034  28.7960458  77.1891022  85.9051132  28.6177588
  78.2054329  85.9259605  29.7391939  83.2774544  55.5615044  50.8518791
  84.2313004  55.6014299  50.9212637  82.9790211  56.4181376  51.1574173
 114.7990131  64.3501759  74.3712234 114.2661953  63.6575890  74.7619390
 115.4259205  63.8859606  73.8164997  59.5943880  75.8365536  38.7590504
  59.0890789  76.5225124  39.1953564  60.2798891  76.3082361  38.2859349
  91.7269421  57.7337933  42.2935772  91.4691067  58.1170988  41.4552259
  92.2571087  56.9730186  42.0561552  88.8071156  61.1432314  70.1889038
  88.9881611  61.3077497  69.2634916  88.2436085  60.3694773  70.1888466
  67.3996687  75.8309317  62.5429010  68.1722975  76.2109947  62.9610205
  67.4501848  74.8976707  62.7495527  43.3884514  39.5747667   2.9654902
  43.8016403  40.0302702   2.2319812  43.8420856  39.9072366   3.7400359
  69.1683531  49.3342352  70.0835466  69.3811178  50.1559353  69.6410799
  69.8694086  48.7353134  69.8265505  75.2943373  40.5733776  34.7320676
  75.3271580  41.0601091  35.5556250  75.8199310  39.7902727  34.8955703
  73.9512777  66.2626886  65.3259420  74.3325090  66.6255713  64.5264339
  73.1613159  65.8099985  65.0305414  81.0012531  83.1020069  91.1054897
  81.0063076  82.1494293  91.1992645  81.9266987  83.3446217  91.0753155
  70.1759005  51.7725801  68.6244631  69.6821117  52.3846197  69.1701889
  71.0615110  51.7889643  68.9873075  79.9074745  89.6433258   8.4447384
  80.0432014  89.3146801   9.3334442  79.0635824  90.0935268   8.4821367
  85.4622841  93.3649731  68.2476234  86.4129925  93.4331417  68.3355713
  85.3075123  93.3788204  67.3031235  13.8735079   5.3132392  75.9441662
  14.2221712   4.4548655  75.7036257  13.1665873   5.4687072  75.3178072
   4.5755921  69.0087080  50.3354740   4.2332421  69.1759348  49.4573689
   3.9868412  68.3480167  50.7002735  89.9397659  57.4213266  68.0908918
  90.7661915  57.9041719  68.1013155  89.8340988  57.1470404  67.1799421
  74.6996784  66.3901567  44.4315338  74.8134708  67.3186111  44.6346474
  75.5246162  65.9839487  44.6974325  11.0498976   6.8641711  37.8696322
  10.6475519   6.3537646  37.1668959  10.5189108   6.6688586  38.6417341
  64.1762638  58.3713484  60.7071924  64.4815683  57.4693394  60.8041239
  64.9488974  58.9065123  60.8884716  85.4368019  30.5398870  35.6048965
  86.2771034  30.8991265  35.8896112  85.6509972  30.0082421  34.8382783
  99.9037743  68.1812954  41.6320610  99.9467564  69.1374826  41.6414642
  99.4868565  67.9521036  42.4626541  70.8821344  54.9006081  63.4895945
  70.9900904  54.0393448  63.8930798  70.1397419  55.2901363  63.9514875
  73.3588600  52.8701115  57.8346300  73.5760403  52.9646873  58.7620544
  73.1247234  51.9472027  57.7363682  96.8031597  37.4623775  64.2567253
  97.6026058  37.8915453  63.9518642  97.0845032  36.5826607  64.5080805
  61.2288237  89.6530247  93.7672901  62.1546745  89.8328686  93.6039162
  60.7652378  90.3665257  93.3288383  59.7648191  57.9634047  60.2686167
  60.3853559  58.3191824  59.6325493  59.1867781  57.4025249  59.7514009
  78.0776024  84.2260838  64.6769142  78.7495899  83.6758518  64.2745399
  78.5170984  85.0607872  64.8392296  72.2399712  68.3573818  61.8323994
  71.7587709  67.9504442  62.5528717  73.1182241  67.9808140  61.8880796
  66.6776085  69.1398859  43.7743616  66.0348749  68.7976694  44.3956614
  67.2293139  69.7220755  44.2967701  77.5681067  78.5603952  51.5486288
  77.2097063  78.6948633  52.4259567  78.2491350  77.8982639  51.6670036
  68.3459806  58.1546259  53.0116510  68.5147047  58.7933111  52.3189402
  68.1065559  58.6839867  53.7723684  67.8245020  50.1354170  67.3633575
  67.8420448  49.1879749  67.4985600  66.9010448  50.3724623  67.4486065
  74.9526644  42.1342087  44.8568773  75.1886845  43.0593967  44.7893572
  73.9999676  42.1362162  44.9496174  92.4841213  88.0173206  60.0114202
  92.2711658  87.2392082  60.5266190  92.9694939  87.6804638  59.2583036
  86.1514854  29.3756437  41.9420004  85.5009174  30.0049067  41.6305065
  85.6385231  28.7019420  42.3883533  46.8837440  23.9079910   7.9929275
  47.7911079  23.6054187   8.0298919  46.4187038  23.2140213   7.5256270
  72.0999289  52.0927906  70.4400444  72.8026009  52.7393198  70.5069923
  71.8634129  51.9012690  71.3475752  70.5448437  45.8239603  65.6718302
  70.6382704  45.4900026  64.7796535  70.0940132  46.6619253  65.5679178
  83.8488960  72.3602152  67.8548813  84.2110538  71.6926575  67.2722673
  83.7612915  73.1375599  67.3032522  66.0315132  64.9998713  57.2666264
  65.3315973  64.6429968  57.8134251  66.5581846  64.2381859  57.0243835
  61.9537878  56.0067081  59.8604298  62.1066427  56.9508839  59.8978710
  61.1973858  55.9092855  59.2819881  42.3580933  83.1904793  72.1027327
  42.8127718  82.8988075  71.3125277  42.9483557  82.9562473  72.8189468
  71.1351156  58.8967371  67.7836609  71.4880943  59.0641356  68.6575174
  71.4214468  58.0072784  67.5760365  72.5346136  38.1854105  56.6602230
  73.3948660  38.0018234  57.0377111  72.3053741  39.0517306  56.9966364
  97.2183895  49.0650558  60.0880766  97.7925968  48.6955881  60.7589006
  97.5185299  49.9683380  59.9869108  80.3622055  39.6739459  61.1581087
  79.6664715  39.8130584  60.5155849  80.0239086  40.0617743  61.9651890
  85.2524567  82.5833321  80.9751415  86.0800457  83.0419350  80.8301544
  84.7060680  82.8339195  80.2302265  67.0104122  61.0588932  55.6416130
  66.5387630  60.2260017  55.6333017  66.5491772  61.6017199  55.0022125
  81.6976070  68.0654049  25.8423662  81.0212994  68.7425470  25.8246040
  81.4779472  67.5273943  26.6029739  59.4279087  32.8354269  23.8349933
  59.4673622  33.0167108  24.7740382  60.2076042  33.2592493  23.4762782
  79.8095655  52.4746084  50.9592009  80.4199982  51.8250847  51.3080931
  79.0537024  51.9626427  50.6714678  64.0667629  64.3671942  59.1128874
  64.3624830  63.5416460  59.4966173  63.5121584  64.7596455  59.7871447
  99.1133690  99.4746494  71.6841698  99.5541477 100.2236938  72.0852709
  98.1812477  99.6435452  71.8215036 104.7912407  89.4756985  86.6669559
 105.5190945  89.5272636  86.0474396 105.1859188  89.6706581  87.5169277
  72.6774549  67.1691275  39.9288893  72.9126263  66.3685894  40.3980017
  71.7821503  67.3574209  40.2103281  79.6203661  87.3143291  78.9976549
  80.2273941  87.4601746  78.2720709  80.0968933  87.6128292  79.7722864
  71.9973612  52.1156406  45.4247999  72.6163006  52.5094557  44.8099327
  71.7356968  51.2944794  45.0083160  84.6420288  47.3664379  61.2076473
  84.4667244  47.4664021  62.1433306  83.9851379  47.9164696  60.7807970
  62.2077179  58.5493660  58.7489700  62.0358753  59.4540930  58.4878635
  62.9251957  58.6141443  59.3792534 109.5328712  37.8656507  67.7514458
 110.4626179  37.7074265  67.9150677 109.4283772  38.8111115  67.8583002
  90.6279087  84.1306114   8.3575630  91.4946175  83.8946056   8.6882454
  90.3261566  84.8210335   8.9479017  69.2242146 103.5695362  48.7741375
  69.5218849 103.7536335  47.8832197  69.1970253 102.6140690  48.8249493
  66.5651608  38.7031460  54.4499826  66.6892481  38.0171466  55.1059103
  65.8717537  39.2561483  54.8099899 114.0086842  52.0907211  54.5411587
 114.0586567  51.4493608  53.8323641 113.7498093  52.9049492  54.1095972
  67.8054905  50.4723310  64.2639542  67.6900864  51.0464478  65.0211239
  68.1122637  49.6450949  64.6351719 100.8558941  85.9353065  70.4218531
 100.0838184  85.5043125  70.0552940 101.5580559  85.2920628  70.3246498
  88.9945316  77.5828171  73.9736605  88.6403942  76.8511963  74.4791794
  89.5556641  77.1706772  73.3167696  70.1327133  52.4659252  64.5413017
  70.4942703  51.7060995  64.9975634  69.3998909  52.7477312  65.0888348
  77.2239494  43.3121490  67.5824594  77.0913887  42.3860693  67.3798752
  76.3406229  43.6797094  67.6119041  93.0775261  35.8321095  35.7399821
  93.0699348  36.7393804  35.4349661  93.9939499  35.6597257  35.9560442
  41.1011553  27.2264194  65.3829002  41.5930319  26.6290474  64.8194885
  40.2013016  27.1728730  65.0609875  96.4656925  31.4056253  26.9146037
  95.7143116  31.8430543  26.5142012  96.7456055  31.9997406  27.6109552
  74.3839884  75.4649734  64.5064878  73.7430716  76.1537886  64.6825314
  74.4943857  75.4778433  63.5557604  79.8158312  94.5502853  50.9430838
  79.7468805  93.6138821  51.1291265  79.6906281  94.9731255  51.7926502
  68.2727432  68.3822107  59.8218060  67.3835373  68.3475399  59.4691849
  68.1522942  68.4525728  60.7687855  85.7174015  98.6841583  64.6848440
  86.0742092  98.6892891  65.5730438  85.2416515  97.8558922  64.6226358
  77.2896194  85.0686550  69.6280289  77.3575449  85.9695339  69.3117380
  78.1785917  84.7214031  69.5547104 105.3782654  37.0439291  74.3874407
 106.2325382  37.4089313  74.6181345 105.4574966  36.1094093  74.5788288
  83.9991379  96.7248917  68.2260609  84.4056129  97.5604439  68.4559774
  83.8325596  96.3000202  69.0674639  84.6643925  56.2861156  68.2864904
  83.7630558  56.1091614  68.5557699  85.1718235  56.2290621  69.0961123
  61.3229275  85.8353519  75.4914522  61.6241264  84.9735165  75.7791376
  62.1095705  86.2635517  75.1537180  69.3888426  63.3121300  34.1150618
  69.4364309  63.7069035  33.2443595  68.8610744  62.5231457  33.9918041
  89.7571278  59.8663282  56.0252810  88.9605522  60.0575447  56.5203905
  89.9021626  58.9294529  56.1574030  87.8623772  63.7991810  68.2611418
  87.4741077  64.6733141  68.2241726  87.5888062  63.3808708  67.4448061
  76.7910957  51.5051746  45.8971119  76.6022348  52.1313381  46.5960312
  77.7466249  51.4539003  45.8732271  53.6315250  81.6827583  57.7138853
  53.9372540  82.5879669  57.6559162  52.7667332  81.6953087  57.3037481
  77.5403214  52.8514051  57.2827482  77.4554062  53.4365749  58.0354691
  77.7205706  53.4344006  56.5452814  67.5757027  31.6464233  51.0462570
  67.6811218  31.3378048  50.1463270  67.4445724  30.8489323  51.5591383
  64.1722202  54.2148447  59.2315722  64.4191456  53.8828802  60.0947380
  63.4324741  54.7979546  59.4018412  79.9901295  57.0464468   4.3672770
  79.3303871  56.4074230   4.0977928  80.5855846  57.1055174   3.6201656
  66.0537243  62.9990482  12.0464885  66.5833664  63.0762053  12.8400600
  66.6894436  62.8401470  11.3487494  52.0021772  90.2057838  89.6405029
  51.1678123  90.0917149  90.0955296  51.7658281  90.2481937  88.7139130
  96.5061951 107.3058701  62.9873657  96.1806393 106.4342499  62.7625704
  96.8592167 107.6487827  62.1663809  55.0445926   9.1180044  10.5453986
  55.6246078   8.6232143   9.9666041  54.8521602   8.5154205  11.2637919
  87.1314335 102.3062801  58.2136202  86.8055058 103.1594086  58.5002851
  87.1077538 101.7636681  59.0018082  70.4830265  67.7990198  55.2495193
  69.7196341  68.3746433  55.2956057  71.0694885  68.2283735  54.6266699
  95.1717949  65.1770449  78.9640903  95.6150532  65.7837915  79.5570612
  94.2441177  65.3990793  79.0437317  89.1891098  91.7213726  54.6724939
  89.1577148  92.6036263  55.0424576  89.9820042  91.7145634  54.1363096
  98.7275696  34.2434025  73.6745501  97.7707767  34.2326808  73.7001038
  98.9937687  33.8383698  74.4999743  89.5707798  34.2406797  24.1352415
  89.7004509  33.3197808  23.9086008  88.6293221  34.3191624  24.2892718
  67.4249649  80.7335758  52.1662092  67.6487589  80.6796837  51.2371016
  67.1168709  79.8553038  52.3896933 101.1732006  71.0164452  51.8909979
 101.9878292  71.4515591  52.1425676 101.1160755  70.2594233  52.4739981
  84.5421028  91.2180042  69.2560196  84.9862957  92.0345688  69.0276432
  85.2518749  90.5985069  69.4253635 115.0133038  56.7213774  66.3422060
 115.5860806  57.1616364  65.7142401 115.4683208  55.9053373  66.5502024
  63.7793636  64.2467117  52.5307417  63.9220381  64.4479704  53.4556055
  62.8828239  63.9134407  52.4936819 102.6458263 104.4180393  51.7825031
 102.6197433 104.4574833  50.8264732 101.7488194 104.6116447  52.0547676
  87.6706409  69.5151091  52.4305296  87.0031071  70.1960373  52.3470354
  88.1457806  69.7422266  53.2298326  99.1626167  63.9273453  83.8180351
  99.9465370  63.8229561  84.3572998  98.8427258  64.8047876  84.0277672
   6.5309214 103.4790950   1.1117858   6.2240290 104.2182260   0.5866832
   5.7561277 103.1894116   1.5934581  66.5834522  83.7129688  67.9315758
  66.7051125  84.3929005  67.2689152  67.4693251  83.5102367  68.2321739
 103.0832481  65.6295681  77.4521494 103.7666225  65.5477428  76.7869186
 103.3831024  66.3416004  78.0172396  92.6077271  89.8819447  86.6094971
  92.8525448  90.6603718  86.1091423  93.4112167  89.6257591  87.0622730
  79.3818283  97.7925396  80.0245953  79.6083593  96.9141102  80.3300095
  79.9410725  98.3760452  80.5374241  71.9164181  91.3706493  45.9801626
  72.4900436  91.0381031  46.6705227  72.3353958  92.1810055  45.6902981
  90.6280231  60.2902651  47.6721716  89.9307156  60.5157423  48.2879257
  90.2658272  60.5025434  46.8119478  33.2093119   4.7907210  93.8504028
  33.3942007   4.2775489  93.0638313  32.5904535   5.4604865  93.5594368
  40.7733631  79.9225283  58.4167671  41.3476324  79.4242382  58.9982796
  41.0696173  79.6954250  57.5353527 105.8975315  77.3702955  71.8526793
 105.9300709  77.4218988  70.8974266 106.1129189  76.4589214  72.0507812
 115.9075451  42.9688406  65.4483700 116.7206097  42.4739218  65.3473616
 115.2677917  42.4882936  64.9229860  77.6817417  51.8428421  40.9596348
  77.5042486  52.7258158  41.2838078  78.2270336  51.4438820  41.6376638
  79.6700811  80.5367661  94.6338749  80.4962730  80.3563499  95.0823021
  79.2876530  81.2666988  95.1208878  52.0828331  27.7011114   0.8304042
  52.3202980  27.7525812  -0.0954419  51.1928928  27.3486334   0.8301848
  63.6350393  88.1204605  83.3882427  63.7934589  87.7451229  84.2544174
  62.6916027  88.0275440  83.2558537 106.8480587  80.2260208  17.4410880
 106.7729092  80.8853054  18.1309628 107.7515221  80.3023529  17.1342254
   8.2525038   9.3997050  41.1919069   7.4953722   9.8558856  41.5591717
   8.8523077   9.2977095  41.9308758  84.6961403  64.1115236  72.2113419
  85.6161022  64.3592930  72.1190166  84.6108055  63.3104467  71.6943979
  69.3921471  82.4496555  76.9820642  69.5817995  81.8532562  76.2577868
  70.2438736  82.6128960  77.3872089 108.0269527  65.8300352  38.7527251
 108.9444065  65.5820370  38.8668036 107.7904797  66.2581444  39.5755458
  82.1049500  81.6488838  72.5182867  82.0037842  82.5456047  72.8374863
  81.3685513  81.5231609  71.9198370 102.5870895  82.2866917  46.2269592
 103.3023071  81.7092133  46.4938068 102.0173645  81.7318916  45.6941891
  23.9364994  23.8273149   6.9122905  24.2172277  23.0933624   6.3657207
  24.0899647  24.6015936   6.3708323  82.4729252  56.5341902  69.8781538
  82.7092838  57.4555111  69.7707510  82.3530483  56.4260912  70.8216429
   0.9396134  68.3694553  18.5606766   0.6690941  67.8232193  19.2986965
   0.1190720  68.6921167  18.1880748 100.6742191  61.4873600  72.4724054
 101.0507488  60.6443071  72.2199774 100.9712696  62.0948219  71.7949247
 104.0583862   0.3437377  71.2676573 104.6549238   0.5959273  70.5628395
 104.3213953   0.8875800  72.0101452  82.6482773  83.2980919  41.4936113
  83.0873489  83.8230228  42.1628571  82.4478054  82.4708366  41.9314384
  99.7825336  74.1024446  40.1625776  99.0925884  74.3495321  40.7783365
  99.4074535  73.3791208  39.6602368  61.8620586  75.0346947  80.9276962
  61.9755316  74.2473602  80.3952789  62.6853848  75.5124712  80.8272266
  67.0390976   5.5939918   6.0274810  66.7397106   5.6341987   6.9357699
  67.0922745   4.6580558   5.8340281  98.2248592  60.1801395  53.8861847
  97.9833126  59.2878962  53.6376047  98.3870697  60.6249428  53.0542803
  73.6461020  69.9309874  86.5954876  73.4264374  70.7990599  86.9337654
  73.4515285  69.9823236  85.6596756  86.1387920  71.3479710  81.3049221
  86.5197468  71.6193151  80.4697704  85.5528736  70.6259918  81.0775948
  72.0715237  64.0852642  61.3645697  71.7589808  64.1630030  60.4631805
  73.0252647  64.1204882  61.2912560  97.7737904  78.6623049  40.3081656
  98.3813572  79.3645763  40.5403566  98.1681252  77.8724051  40.6780148
  95.3094864  81.9620609  33.3625603  94.8700714  81.2812805  33.8721514
  95.1879215  81.6952324  32.4513769  77.3377848  69.7179651  35.0327873
  76.9524813  68.8417625  35.0391793  78.0789328  69.6580982  35.6355715
  85.7157612  40.1839590  30.9031248  85.8176136  40.6818485  30.0919747
  84.8051071  40.3285122  31.1601377  87.0521259  58.0827427  39.1713905
  87.3631096  57.3354387  39.6823311  86.1660480  57.8382301  38.9043736
  64.3488979 104.8930359  57.2949743  65.2906704 105.0580406  57.2494841
  64.1110754 104.6169853  56.4098358  99.5011234  55.3907108  66.7217541
 100.1370430  56.0994005  66.6237354  99.0180016  55.6108809  67.5182152
  67.5346708  81.3638496  40.8898687  67.2991467  80.8497143  41.6621590
  66.7977571  81.9621754  40.7665968  93.9432430  93.1518555  31.9071603
  94.1768932  92.2241783  31.9394493  94.2528152  93.4471607  31.0508943
   4.4987831  64.1677713  63.5456038   5.2630196  64.2098427  62.9707909
   4.4077263  65.0568151  63.8884497  79.4938803  60.8555365  65.0508118
  79.5449543  59.9019241  65.1159716  79.3773794  61.1514044  65.9536552
 105.0696945  43.4756565  26.3416290 104.7367859  43.0186749  25.5692482
 104.6394634  43.0436182  27.0795107  89.8576450  95.4744720  59.8321342
  88.9858627  95.8425999  59.6881914  90.4421043  96.0371590  59.3241787
  86.8471909  74.4438648  51.4316463  86.7264175  73.7695456  50.7631111
  86.7497063  75.2702856  50.9586096  12.0821629  86.8022442  55.5707359
  11.2803707  86.3369560  55.8091784  12.4888573  86.2513924  54.9018621
  78.6807680  63.8044119  68.9209461  77.7768230  63.4932518  68.9688492
  78.7546062  64.4367456  69.6357441   8.0693493  57.0359039  84.5850945
   8.3418999  56.6142130  83.7701607   8.3682595  57.9410553  84.4980145
  79.0951967  35.0862980  28.8090897  79.9632454  35.4879785  28.7719488
  79.2682695  34.1462803  28.8604879  77.3100996  34.3910742  41.4477348
  77.8646135  33.6228776  41.5841913  77.2087145  34.7713232  42.3202944
  82.5656986  46.7320395  63.1944084  81.6319466  46.9425917  63.1981087
  82.9191971  47.1975374  63.9524174  91.1239243  79.6360826  56.9333792
  90.3902245  79.2518425  57.4132442  90.8419704  79.6287870  56.0186768
  82.4712086  75.9347153  16.0042226  82.8105736  75.8712292  16.8969893
  81.6447163  75.4524183  16.0273039 107.2744859   3.2706977  44.0363646
 107.4358858   4.0664149  44.5433331 106.6393865   2.7794123  44.5574379
 101.6535282  29.6045256  39.8763871 102.5654221  29.3137932  39.8890257
 101.7033577  30.5410385  39.6848369  56.0221338  85.4484272  46.6013193
  56.3041019  86.3349056  46.8268919  55.1139641  85.4026127  46.9002438
  95.1595306  95.4547691  55.0132179  95.6983089  95.2779961  55.7843781
  94.3418217  95.8043003  55.3673553  80.8837891  80.1741886  82.6820469
  79.9726486  80.3904438  82.4838161  81.1303616  79.5377588  82.0109463
  79.7638035  94.2374039  40.2444172  79.5756149  95.0886345  39.8491716
  79.3451309  93.6045837  39.6609068  69.1520405  51.5732288  55.8945513
  68.9824963  50.9164810  55.2191496  69.1156626  52.4093866  55.4300642
  69.3334675  93.4886551  80.2682209  69.1921711  92.7720547  79.6495485
  68.7335825  94.1763210  79.9792814  73.0288458  64.2823792  51.3140535
  73.5546446  63.6329556  50.8471251  72.4249601  64.6215153  50.6533432
  79.5438147  69.3973064  51.6338396  80.0701809  69.0296364  52.3437643
  78.7699366  69.7543335  52.0695877  94.2690468  55.6643105  86.2666225
  93.7104416  55.8550739  87.0201492  93.7862873  56.0115862  85.5165768
 102.0313514   0.1357032  42.5956345 101.2894691   0.7399131  42.6234150
 102.7999319   0.6947280  42.7097321 101.5212917  63.5200691  70.4928970
 102.1922684  64.1590261  70.2525616 101.3403988  63.0459404  69.6812868
  86.0012341  56.9697237  70.7310963  85.3790474  56.9090986  71.4559698
  86.4395428  56.1188459  70.7198763  89.3623161  99.6659470  80.9067249
  89.1061115 100.2337170  81.6335201  90.0609493  99.1185570  81.2651825
  77.4183702  70.3645706  52.8069735  77.4774551  71.0921431  53.4261513
  77.1458387  69.6178198  53.3401918 113.8405956  17.9408789  65.2594519
 113.5010828  18.2178355  64.4084167 113.5216154  17.0445109  65.3643894
  88.8948917  80.4590416  85.3161144  88.9039135  79.9763632  84.4895744
  89.3461323  79.8840570  85.9341812  83.7046719  69.8695803  54.0756226
  82.8103638  70.0765800  54.3468904  84.1775036  69.7296953  54.8960447
  59.9974823  72.2535706  40.7377005  59.7047710  71.3427639  40.7690954
  59.6019173  72.6049137  39.9400091  82.5685978  95.5475140  60.3978825
  81.6291714  95.3645420  60.4133797  82.8945351  95.0628471  59.6395397
 104.7579861 101.9565010  32.8271961 105.3248692 102.4971390  32.2771120
 104.0650082 102.5511456  33.1142616  84.3887615  98.2954216  57.0463037
  84.7433281  99.1805553  56.9623423  85.0372696  97.8264332  57.5713968
  80.8211613  84.5624065  36.7587972  80.6965637  84.4160938  37.6965070
  80.0582314  85.0757599  36.4930296 105.0352192  36.4437675  86.7762089
 105.0139427  37.3628712  86.5096951 105.8785057  36.3417983  87.2174549
  59.5663548  94.9019146  71.9732380  59.0979719  94.6410847  72.7662182
  60.4850340  94.7132206  72.1646786  54.4925642  89.3801308  56.2977457
  55.0629616  88.7701893  55.8299351  54.7264385  89.2680359  57.2191381
  56.8830919  91.3670540  64.7766924  56.8655920  90.4424667  64.5295811
  57.1296310  91.8251038  63.9731789  94.3094921  85.9140396  92.3725605
  93.4261036  85.6268978  92.1414566  94.8661804  85.5565548  91.6807938
  88.9061928  92.0555592  39.6587157  89.3803215  91.2242413  39.6401191
  89.4196987  92.6110840  40.2451706 102.0823193  44.0339851  88.5068130
 102.1401978  44.9892187  88.4864330 102.9661751  43.7452793  88.7341690
 106.5110207  93.2385254  60.6446409 105.8041954  92.6969624  60.2934551
 107.0317554  93.4791183  59.8783636  94.6661758  80.2387238  35.3025770
  94.7778606  79.5815468  34.6156406  95.0147057  79.8226595  36.0910249
  75.0787640  56.3794231  32.4203658  74.5778942  57.1673632  32.6313448
  74.9232388  55.7916451  33.1596613  94.0221500  62.1873808  43.3544636
  94.1876221  61.5386009  44.0385199  94.6294212  62.9011488  43.5493803
  51.0355377  95.0049305  59.0281487  50.2681684  94.7041512  59.5148802
  51.7789888  94.7666264  59.5819712  83.7285805  94.0249729  43.7317705
  84.5717239  94.0002918  44.1842556  83.7733364  94.8089886  43.1844616
  82.0547009  64.8854017  76.7541313  82.3521519  64.2827368  76.0725498
  81.2940311  64.4523001  77.1414804  87.7025604  78.6253691  53.7129116
  87.2403049  79.1741896  54.3464279  87.1797276  78.6898184  52.9137039
  88.8897228  76.8795586  47.2127247  88.3010674  77.1210003  46.4975882
  89.0440369  77.6989126  47.6829195  83.4842777  46.5230513  42.3240852
  83.4444523  47.4688721  42.1824026  83.0729008  46.1467838  41.5459919
  61.2196815  14.6376520   6.8654937  62.0732105  14.7986417   6.4632434
  61.2223137  13.7017923   7.0664805  73.8145590  45.7526588  54.1919613
  74.6608877  46.1454582  54.4056654  73.8044357  44.9272108  54.6764851
  91.3694477  74.9311018  77.7621365  92.1266747  75.4129362  77.4294376
  91.6529083  74.0168953  77.7723742 109.2302513  75.3434801  35.8651423
 109.2860508  74.7552443  35.1120830 108.2916451  75.4821110  35.9917450
  52.5063122  11.5605026  22.0788497  53.0765999  10.8247476  21.8559951
  52.9060066  11.9457203  22.8586406  68.5947847  83.4484863  48.5161257
  68.3628225  82.8793240  47.7823162  68.9146137  84.2514038  48.1046915
  17.4850153   2.8323222  66.6607666  16.6385721   2.6559783  67.0714569
  17.8404306   3.5724307  67.1528435  76.4715719 100.8793545  85.8046246
  76.9947863 100.8523083  86.6057110  76.1478233 101.7790508  85.7602692
  86.6889286  68.8072348  71.6452503  85.7682896  68.5496235  71.6931581
  87.0541000  68.5495853  72.4917126  93.6467552  88.6216736  38.0957317
  92.9501247  88.8488007  38.7116456  94.4116116  88.4601879  38.6481404
  96.2253666  66.1804295  69.1125870  96.3508606  66.5434074  68.2358170
  96.1692333  65.2348948  68.9745903  96.8750954  95.0676346  67.8510284
  97.8046703  95.2512264  67.7153301  96.8513393  94.5182991  68.6345434
  81.7282581  59.8131800  59.8833275  81.2366867  60.1006317  59.1139412
  81.4242172  60.3841257  60.5888796 104.4586849  67.4840641  21.5123844
 105.0647831  67.8846788  20.8891773 104.2810726  68.1743574  22.1512723
  54.3948555  68.8354397  77.8599739  55.2380419  68.5376453  78.2014132
  54.4651270  68.7180614  76.9125986  86.4832115  76.7355967  49.7485685
  85.6384754  76.4175272  49.4300032  86.8405724  77.2395611  49.0174437
  87.4090958  73.3223438  57.6824570  87.6120567  72.4176502  57.9202890
  87.6237011  73.3791256  56.7513514  76.9620895 105.3074932  66.5729856
  77.3112965 104.5505619  66.1025143  76.9415188 105.0313663  67.4892616
  85.7669067  67.8414631  56.8017912  85.5964184  68.7774086  56.6961145
  85.8104515  67.7114058  57.7491140  89.5707226  81.4333057  64.3324375
  89.6656704  82.0656776  65.0447035  89.3915367  81.9684696  63.5593128
  78.9277029  75.9836817  58.5056067  78.5031605  76.8371868  58.4188604
  79.0238380  75.6714439  57.6058865  81.6708279  44.5642471  55.7745314
  81.0388565  43.8486958  55.7050419  82.0954227  44.5929146  54.9171305
  73.6067963  78.1815481  75.9903955  73.8766766  77.5441790  75.3292179
  73.0827332  77.6753712  76.6111803  70.4003000  76.9625521  50.2663326
  69.7024488  76.4013863  49.9282026  70.2512980  76.9868469  51.2115526
  93.4918976  69.3120241  64.7119379  94.3837452  69.0053320  64.5482779
  93.4284306  70.1342821  64.2260408  80.4789162  52.1168470  53.9614820
  79.7347021  51.5383196  53.7950897  81.1252403  51.5577126  54.3926096
  71.0700607  61.3429260  61.6374207  71.6228533  61.2153530  62.4083805
  71.2503481  62.2409344  61.3593817  60.0654888  91.4734650  78.1955004
  60.3605413  91.9481945  77.4184465  59.2031574  91.1341286  77.9557896
   0.6212578  89.1532421  37.1947289   0.3388272  89.4245815  36.3213229
   0.1313744  88.3488750  37.3657370  79.5618439  79.7644281  47.8971338
  78.6182070  79.6211720  47.9696608  79.9502754  78.9178753  48.1178141
  81.3646603  81.3973808  54.4359875  81.4399815  81.7018700  55.3403330
  80.9352684  82.1183491  53.9754915  97.2599125  62.7263975  35.0091147
  98.2140255  62.6533270  34.9853063  96.9767666  61.9901609  35.5513453
 112.9133034  72.5470829  53.9006519 113.8386345  72.6743746  54.1099167
 112.8796005  71.6902113  53.4753656  83.6675549  82.7165699  78.8033867
  83.6655903  83.2631779  78.0176067  83.3236217  81.8731022  78.5092688
  13.1705069  12.1473361  23.7976909  14.1132902  12.2246314  23.9440370
  13.0525087  11.2593985  23.4602594  90.7126331  78.7488842  76.2326813
  90.1625443  78.2780838  75.6066036  90.1975060  79.5193005  76.4721298
  63.3186329  41.8939501  37.7058619  62.9609382  41.2440401  38.3107680
  64.2008484  41.5785795  37.5097007  74.3810892  76.0427475  67.3347092
  74.6299887  76.3206577  66.4532042  73.4799862  75.7332420  67.2427750
  78.8165092  86.9792652  64.8478365  79.7602654  87.0906162  64.7331333
  78.5560799  87.7079678  65.4112244  90.7602978  85.5874634  56.6047621
  90.0542450  84.9415398  56.5823650  91.4926910  85.1571274  56.1635923
  80.8139992  81.2247658  42.4548769  80.6683826  80.2924442  42.6155233
  79.9683332  81.6342449  42.6376820 100.1565552  66.6595936  50.4480267
  99.4888306  66.7819262  51.1228704  99.6635056  66.4155769  49.6647024
  92.9562378  91.1385727  55.2098227  92.4709892  91.6533756  54.5650530
  93.8461781  91.0941505  54.8601627  76.2170362  62.9874086  39.7788548
  75.4050827  62.5159311  39.9650621  76.2628031  63.6623240  40.4560709
  73.2352066 105.6209373  41.7887163  72.3595333 105.4993153  42.1556473
  73.4984970 106.4934158  42.0814323  59.6467638  76.9984102  80.6575966
  59.1037607  76.2189341  80.5401230  60.3743935  76.7031574  81.2049675
   3.7115631  77.1757984  48.5620975   4.5471917  76.8276787  48.8731861
   3.7644539  78.1157732  48.7349415  35.4260038   0.9035540  74.4966173
  35.5481123  -0.0457143  74.4824934  34.7373556   1.0468245  75.1458168
   4.8001442  75.6909704  54.6082449   4.9349842  75.3069401  55.4745960
   3.9811478  75.3035784  54.2993689  98.4640789  61.8859577  50.1347399
  98.2335758  61.6577721  49.2341661  98.2987595  61.0863256  50.6342316
   9.1215573  89.0705776  51.6834450   8.8387165  89.2852020  50.7945347
   8.4977684  88.4077835  51.9798088 114.2920494  46.5552521  11.9640565
 115.1514149  46.7326975  11.5816391 114.2968464  47.0305777  12.7948833
  75.9082985  53.1684685  53.4125137  76.7156410  53.6823463  53.4314585
  75.5303717  53.2839346  54.2843342  84.8389816  60.7230902  71.6473341
  85.4957199  60.7655382  72.3424006  85.2419662  61.1796904  70.9088516
  84.7941208  98.8771915  31.3965344  84.3217373  99.2144585  30.6353927
  84.5157051  99.4392490  32.1195865  19.1733609  56.5154409  56.0436058
  19.2315541  55.5600643  56.0534096  19.3995247  56.7599773  55.1462317
  96.9916916  88.8514328  87.3242283  96.5808582  88.0478191  87.6430702
  97.8949070  88.5989666  87.1326923  89.5756149  93.6028862  51.6837502
  89.5252800  94.5222569  51.4221191  88.8100815  93.1961155  51.2778997
  92.2164059  64.3293571  40.6689644  92.9730892  63.7893677  40.4407835
  92.2429562  64.3875599  41.6240215  98.1069279  55.1462126  83.4198856
  97.1690273  55.3351974  83.4493256  98.5104942  55.9757328  83.1644154
  84.3137074  90.7902336  33.4552908  84.6331501  89.9144077  33.2382321
  84.6071911  91.3392353  32.7281785  84.4222260  69.4687700  49.2288733
  85.3223515  69.5794678  48.9226770  84.4966888  69.4296408  50.1823664
  91.4379025  72.9497766  62.2288513  91.2140846  73.2959223  63.0927515
  90.5931091  72.8035545  61.8032026  24.3228970  68.6479998  59.4098902
  23.4638272  69.0675259  59.4571638  24.1320572  67.7349377  59.1951132
 115.3143501  84.3996811  67.1723795 115.2195168  84.3195343  66.2232685
 114.4159222  84.4363117  67.5006056  74.6809578  90.7666206  66.8258524
  74.9931145  90.7234097  67.7296925  74.1589928  91.5682125  66.7907906
 112.1066189  92.4461269  58.4208775 111.9001293  92.7780342  57.5471354
 112.6039314  91.6440201  58.2610416  84.1493034  78.2023048  24.9647355
  84.7387886  78.0593538  24.2242646  84.6039963  77.8127241  25.7115412
  98.3397007  94.8151875  51.6921568  97.6249123  94.3158150  52.0870447
  98.1198788  95.7296562  51.8700981  69.2776108  85.7765007  62.1377230
  68.8094807  86.3736153  61.5541697  69.3366337  86.2498379  62.9675961
  87.7062607  92.6923847  65.0969982  88.5253143  93.0682564  65.4196453
  87.9323196  92.3223782  64.2436361 101.1692619  63.1824398  93.4842968
 100.7644558  64.0267277  93.6831570 100.6745720  62.5507593  94.0063095
  71.2454891  38.2523680  59.0632963  71.8957281  37.8206611  59.6174145
  71.5246725  38.0560708  58.1690073   4.4426989   8.5022402  53.0658770
   4.1108679   7.6699401  52.7291250   3.7865423   9.1466666  52.8005362
  72.0327950  56.2947941  66.9490242  72.5133514  56.2822437  67.7767563
  72.6730347  56.0120296  66.2960577 103.7556648  69.5215034  51.9195843
 103.8152122  68.9152431  52.6579142 104.4766140  70.1362610  52.0557117
  65.5235004  71.5410233  80.1959896  64.6352148  71.3369226  80.4884243
  66.0244560  70.7461596  80.3789425  89.1502857 108.9504337  81.8040752
  89.3587875 108.0283833  81.6538048  88.3945847 108.9324856  82.3913002
  80.2415180  69.6100569  74.7824383  80.3460979  70.5496645  74.9322081
  81.0848141  69.3287659  74.4275379  80.2098846  62.9734325  60.6306124
  80.1168156  62.5229502  59.7911835  80.0209904  62.3012590  61.2853909
  79.5675325  47.9469061  59.5831251  80.4482746  48.0800438  59.2326975
  79.1054296  48.7615252  59.3854189  64.5166302  87.2118568  38.1042790
  64.0100861  87.8405476  38.6184645  64.5217800  87.5754929  37.2188568
   0.8401928  40.7316065  88.8477802   0.6886349  40.2550459  88.0315971
   1.1602173  40.0667143  89.4574738  10.5352282   2.7023078  70.7654476
  11.4106154   2.3340178  70.6458664  10.3749632   2.6381827  71.7069530
  93.6994267  89.6697807  29.4353509  94.0775299  89.5817661  28.5604119
  94.3913174  90.0787163  29.9552488 104.7699833  76.5129852  62.7725458
 105.2422237  76.6202402  63.5982132 104.1176414  75.8368969  62.9558086
  96.9835567  65.2392435  49.2027664  96.3384724  64.5358562  49.1296291
  97.7584648  64.9011755  48.7539291 107.8267956  68.7609148  72.9782248
 106.8875408  68.7562704  73.1626415 108.2400894  68.7958574  73.8408995
  75.7104731  70.6461191  46.6775990  75.3810787  71.3809776  46.1601877
  75.7547522  70.9838438  47.5721502  70.1346254  81.6498756  29.5185566
  70.3450680  81.4625072  28.6037683  70.0713921  80.7884407  29.9310684
  91.6728592  40.7541656  52.5051928  91.9020844  40.5434990  51.6000366
  91.4537144  41.6857481  52.4861670  26.4258659  29.4928747   8.8506431
  27.1553362  29.3779951   8.2416266  26.2892187  30.4396539   8.8848132
  84.2953491  58.5632992  91.2125111  83.4192848  58.7011814  90.8523273
  84.2712021  58.9876270  92.0701790  97.1443272  68.9139462  82.3207188
  96.2573051  68.5648394  82.2338295  97.2659397  69.0270615  83.2633972
  91.6194820  65.5609465  82.5063896  91.8205166  64.8687696  81.8765354
  91.3491631  65.0941277  83.2971096  96.9059467  82.2473335  40.4651451
  97.3817158  82.9364300  40.0014544  97.4733734  82.0181274  41.2011623
  95.6760788  64.8583412  55.9487104  96.0050869  63.9674759  55.8289385
  94.9515629  64.9316311  55.3274822 101.0016918  23.5878420  59.5344400
 100.7501125  24.5081902  59.4576359 100.9160900  23.2412243  58.6463213
  93.1958961 108.4932804  70.4517651  93.2410908 107.6828575  70.9591055
  92.3278522 108.4754562  70.0487423  90.4513550  67.7229118  47.0509529
  89.6559906  67.6883125  46.5195036  90.1455879  67.5918007  47.9484797
  53.1250715 104.7913647  64.4178104  53.7153578 105.2572727  63.8255930
  53.6971521 104.2073536  64.9156904  83.2747746  77.3702240  46.1524868
  83.1957722  76.8458414  46.9493628  83.2716751  76.7285490  45.4422235
  96.9386292  83.0239201  89.6761322  97.5279045  82.2700405  89.7016621
  97.2323799  83.5820293  90.3961658  63.5257315   5.2605105  54.3305302
  63.6280417   4.4368983  54.8074245  63.6586737   5.9388018  54.9927092
   4.8955021  91.1079884  11.5159869   5.8265934  90.8880424  11.4853799
   4.4478379  90.2782917  11.3503563  61.1943043  30.3153234   1.9676417
  61.1120212  31.0565096   1.3675517  60.5587852  30.4961591   2.6602000
 110.5192757  97.8807354  83.3986759 110.0861549  97.0281410  83.4402084
 109.8066998  98.5049343  83.2614136  86.2580681  83.1584167  68.3410740
  86.7347813  83.5484791  69.0737581  86.9266129  83.0096817  67.6723719
  52.5934290  29.8649932  48.5688162  52.7327417  30.7874823  48.7828875
  52.3046278  29.4692469  49.3911409  93.2592106  98.7660408  14.4646621
  92.5080395  99.1112328  13.9821553  92.9163933  98.5767365  15.3380859
  18.3456002  61.4226294   7.3972368  18.7157498  62.1080780   7.9534620
  17.4095974  61.4312172   7.5973582 109.2777634  85.5010128  27.6127267
 109.2786694  85.7892323  26.6999507 110.1035786  85.8293056  27.9683781
  90.4032898  52.9611158  64.6942091  89.6819973  53.5892057  64.7325182
  91.1451817  53.4243679  65.0830889   6.9932137  84.4856167  84.9626732
   6.3085041  84.5889950  84.3018246   6.6656266  84.9645901  85.7239342
  61.1294054   9.3950415  29.9516273  61.9610571   9.7596884  30.2543306
  60.4772734   9.7542334  30.5532360  70.7333755  89.8471451  58.7113667
  71.4538622  89.2363834  58.5561371  70.5544233  90.2297306  57.8523922
  33.5166430  36.3803244  64.0112448  32.8554224  35.8325339  63.5882330
  34.3396353  36.1292887  63.5918570 113.6462975  42.3244524  84.2629051
 114.2424965  41.8426275  83.6896515 114.2174244  42.8947783  84.7774696
  93.7202358  71.3194990  39.7484040  94.0138912  72.2151661  39.5817518
  93.5766888  70.9485960  38.8777399  43.1685995  50.9888411  21.3498378
  43.8626741  51.3961554  20.8315754  42.5586104  50.6390525  20.7003808
  26.9002222   3.6543704  81.3742065  27.1031832   2.9662276  80.7405663
  26.0298800   3.4285784  81.7024517 107.4544334  78.1372976  39.0929985
 108.3458710  78.0379009  38.7587976 107.0053673  78.6572552  38.4265089
  15.7430230  94.6663570  42.1430206  15.4205380  95.1961422  41.4139271
  16.2120304  95.2868652  42.7008963  31.6418610 107.7266121  33.6899424
  31.7896328 107.9889774  32.7813363  32.4979267 107.4256420  33.9945817
  77.6700115  79.6310902  68.8771152  78.3127880  79.1584158  68.3482933
  76.9422388  79.0170670  68.9748764 101.9041729  68.8028526  49.9130869
 101.6898632  67.9688978  50.3312159 102.5790977  69.1854239  50.4737568
  95.8111477  31.4474845  87.2281075  95.2525043  30.8983350  87.7781773
  96.6998291  31.2690878  87.5357628  92.9686832  83.0295277  38.1516886
  93.7009430  83.2367229  37.5710845  92.4611187  83.8398838  38.1955981
  86.6311455  44.6446753  56.2566757  85.7210732  44.4404554  56.4718390
  87.0193005  43.7994051  56.0306692  13.1390165  15.6197596  72.1613264
  13.0914949  15.4289485  71.2245417  12.3295950  16.0944129  72.3504353
  44.8783386  34.2430692   7.1974868  45.0775707  35.1385885   7.4705905
  44.9855697  33.7207704   7.9924315  87.6219749  70.6278658  69.9366713
  87.2866535  69.7710276  70.2005196  87.5459290  71.1675072  70.7235861
  93.4204578  84.4690132  60.0600958  93.3246994  84.9846935  59.2593861
  92.6227283  84.6488190  60.5576181  80.8324814 101.8038464  52.4332190
  80.6535053 101.5394688  53.3356047  81.7862415 101.8711472  52.3880434
  78.6858368  87.0009708  57.2934866  78.1218052  86.2290382  57.2462893
  79.2238474  86.9531631  56.5032387  97.2079086  79.6908951  81.2445736
  96.7052174  79.6581697  82.0584965  97.0653343  80.5764866  80.9104443
 109.0188408  51.5473032  77.8844738 108.3423519  52.1933270  77.6813889
 108.8934422  50.8565664  77.2337866  85.7481956  50.1376247  62.9581451
  86.4789963  49.5580053  62.7432013  85.1657963  50.0797367  62.2007179
  67.9560614  71.8570375  90.7241631  67.2613955  71.2330914  90.9347820
  68.0657101  71.7824030  89.7761917  99.3676056   6.1195803  34.3422294
  98.7130798   5.6800223  34.8850060 100.1774563   5.6358767  34.5047069
   1.3970160  15.7202101  63.8169813   1.0500025  14.9296046  63.4037590
   0.9121203  15.7933665  64.6390247  49.7526621  15.5960227  57.1181726
  49.3196177  15.4917861  56.2709141  50.5279039  15.0374652  57.0612478
  77.9929066 109.9020672  62.6108646  77.7147818 109.4400311  63.4016895
  77.8430414 109.2760086  61.9024801  82.5334930  77.5938320  80.9273052
  81.9094372  76.9598293  81.2806129  83.2278252  77.6383352  81.5846920
  91.4539051  94.6417999  33.6249733  91.8958092  94.3624687  32.8231454
  91.6418648  95.5782318  33.6882567  10.5079613  85.8670139  74.3379021
   9.8554097  86.2259769  73.7366056  10.5931149  84.9494362  74.0789890
  57.0219410  23.3454376   8.7936896  57.7457035  22.9559475   8.3030814
  57.0490444  22.9107528   9.6460647  74.4083357  86.1162949  38.2092643
  74.6080542  86.8379879  38.8054991  74.9932909  86.2524986  37.4639416
  14.4076500  88.1654549  47.3681784  14.8051510  87.8752422  48.1891537
  13.4951840  88.3456135  47.5944090  74.9710178  99.7326183  51.5753174
  74.0691233  99.9697495  51.3594770  75.4760027 100.5265713  51.3996458
  98.1453133  76.2626076  66.2537050  98.9830112  75.8530998  66.4700365
  98.3365917  76.8122864  65.4937744  84.0428925 104.1533661  92.7954006
  84.2076015 103.2889366  93.1720448  84.9126625 104.4914436  92.5822353
 100.5792713  94.3123245  35.6310916 100.1954269  94.5075130  36.4859533
 100.7977390  93.3813572  35.6735730   5.3705655  65.3576231  81.3539124
   4.9183236  65.6610346  82.1410847   5.1616917  64.4249249  81.3021660
  18.1901239   3.7003375  32.5444102  17.6953768   2.9906321  32.1347928
  18.9729857   3.2753897  32.8947949  76.6592826  14.2873049  78.0419683
  76.3210500  13.6348201  77.4287081  76.6199363  15.1128722  77.5591373
 108.0785465  74.1751194  87.5835896 108.4148502  73.4817314  87.0158291
 108.2401466  73.8568878  88.4717560  25.6962526  34.8656183   9.7950667
  26.0454548  34.0397840  10.1301688  25.0158537  35.1100641  10.4223937
 101.7276478  98.0783749  44.4225550 102.2656727  97.3201752  44.6503687
 101.8266106  98.6741161  45.1652098 101.1813545  71.2609196  15.0193965
 101.7231655  71.6848660  15.6849301 101.8020821  70.7651901  14.4853675
  27.1274733   8.7694598  79.8367643  26.9833254   7.8234149  79.8576975
  26.3091158   9.1437102  80.1630592  42.0819449  14.3242980  64.8170805
  41.2663817  14.7649241  64.5784521  42.7403521  14.7095061  64.2388582
 110.1275635  52.1272802  66.6230679 109.7751617  51.4078808  67.1470022
 109.3541908  52.5914574  66.3026619  80.3636456  68.5742283  81.4400959
  80.1793957  67.7166748  81.0568428  80.7657146  69.0730286  80.7289124
  91.6604233 108.6574459  80.5359364  90.9823036 109.1418457  81.0068417
  91.7915344 109.1533470  79.7277784  84.1121292  65.0818348  59.5965481
  83.8822174  64.4477129  58.9173794  83.3266354  65.1463747  60.1397514
   3.1455860  71.6138649  42.0658445   2.6047764  71.6666365  41.2778234
   3.2045040  72.5172138  42.3768377  99.6512604  99.2046070  21.2298012
  98.9462757  98.6272812  20.9366751  99.2883492 100.0865364  21.1477423
  98.2638836  75.4226828  73.1369638  98.4741879  75.3262138  72.2081470
  99.0537643  75.8008528  73.5233641  87.7521610  66.2670898  66.8388414
  87.1673679  66.9301701  66.4719963  88.0988312  66.6680384  67.6358938
  42.7813137  48.1897360   1.1151141  41.8584430  48.1382375   1.3638896
  42.7664936  48.3445650   0.1706332  13.6482786   7.2047950  71.6583776
  13.8823198   6.7342997  70.8583212  14.4871401   7.3961783  72.0777893
  96.3102055  86.8443680  60.8484364  96.0417175  87.6213741  61.3387394
  95.8588982  86.1199379  61.2817526 109.4994926 103.7026882  88.3448124
 108.8905621 102.9940414  88.5527897 108.9435291 104.4760799  88.2498932
  99.3582726  54.4704533  34.1111445  99.7573566  54.1565657  34.9225903
  98.9174938  55.2829647  34.3596888  97.6573277  93.9817524  47.6645899
  98.3649349  94.2183018  48.2642365  96.8642521  94.0323734  48.1981611
  45.5684566 101.8113804  81.1302280  46.2525225 101.9867516  80.4840565
  44.7665834 101.7296314  80.6139374 112.9614830  92.2769451  86.7060757
 113.6706161  92.6375198  87.2383785 112.7844048  91.4192104  87.0923042
  94.6843624  75.5377197  59.4941187  94.5535660  74.9124146  60.2069426
  93.8584900  76.0189390  59.4431067  33.3571778  99.4713497  41.6677475
  33.2853947 100.3844643  41.3897181  32.5415669  99.2994404  42.1383381
  81.3037586  76.5237713  41.9778204  80.7186413  77.0458841  42.5266933
  81.0303211  76.7201948  41.0817814  94.7176456  71.9242573  36.0129929
  94.4023228  71.0830307  36.3433552  95.6671619  71.8859816  36.1278296
  76.1985958  36.1672979  20.9465236  75.3161037  36.2787252  21.3001174
  76.7763889  36.4871698  21.6393870  91.1550713  81.5984440  29.8332930
  90.5662727  81.9916344  30.4774618  91.0667610  80.6555080  29.9722195
  33.3173060  10.8543826  15.3512859  34.2414640  10.6055880  15.3678560
  33.2627367  11.6119815  15.9337676   0.2425442  82.6191998  47.9330158
   0.6761227  81.8902302  47.4893522  -0.2169742  82.2130871  48.6679649
   9.3141913   6.2008048  62.5847721   9.7109961   5.9249926  61.7585087
   8.7196802   6.9099475  62.3400164  13.0738793  84.3905926  35.0344682
  13.6679230  83.7913609  35.4864264  12.2081147  83.9971828  35.1435280
  89.3783092  91.8180084  71.9657803  90.1650238  91.3228798  72.1941805
  89.5638943  92.7105427  72.2576427  90.1335049 104.9184895  29.7338629
  91.0206985 105.2379322  29.8983979  89.7114182 104.9305916  30.5928946
 107.5874329  65.6679869  57.5482559 108.0998707  66.3326216  58.0085850
 107.9036999  64.8357344  57.8997755 113.3937263 105.1273918  61.2538147
 113.8442707 105.8074760  61.7545509 113.9853764 104.3755817  61.2847090
  93.0859852  97.1732330  78.5084152  93.1303787  96.2171173  78.5181999
  92.1518135  97.3703480  78.5769272   2.0449696  87.0496941  43.1177282
   1.6600762  87.9130554  43.2684088   1.6413651  86.7461395  42.3045921
  88.0839157 108.6742687  69.5128918  88.1975269 109.1645145  70.3271294
  88.9741325 108.4487438  69.2429066 104.5166588  91.7155170  59.4210625
 104.0555096  91.5823269  60.2492142 104.1560745  91.0490227  58.8362551
 108.0376720  99.1641617  71.2767506 108.4879208  98.3354950  71.1130095
 107.2523594  99.1219521  70.7311010  95.3699398  90.4275513  57.7055264
  95.6172657  91.2837982  57.3563862  94.5183849  90.5737495  58.1174994
 110.0813675  95.8604527  79.6000051 109.5954037  96.4106655  80.2142811
 109.4261646  95.2577877  79.2482519  35.1209425  16.6790534  64.3685246
  35.2866911  16.4459944  63.4550476  34.3610167  16.1522723  64.6160126
  97.0492077  99.2182064  44.2693615  97.5772667  99.5285130  45.0049543
  97.6491356  98.6782551  43.7548018  19.6505604  84.7036648  68.1688547
  20.1172791  85.3634262  67.6558971  20.3418789  84.1537094  68.5374451
 103.4666634  72.9245281  48.2661009 103.8283348  72.1683168  47.8039694
 102.6492500  72.6038599  48.6472082 105.9812260  81.5000534  79.6115971
 105.4959297  80.9037113  80.1817703 105.3039837  82.0006466  79.1566467
  84.5818233  84.7123718  46.9522572  83.9239979  85.3503895  47.2287035
  84.4360065  84.6101952  46.0117626 102.1087170  91.5707397  69.9061871
 101.5490437  91.0081100  69.3709755 102.8258610  91.8195438  69.3230724
  97.6948608   6.1989737  15.0098860  97.6883424   6.8231631  14.2842317
  96.9257177   5.6492854  14.8599029  91.6872120  94.8012829  86.3639832
  92.5010967  95.3036785  86.3262177  91.9432735  93.9117908  86.1201000
 100.6230354  69.0532827  24.7242308 100.7602596  68.1065559  24.6908998
 100.8488750  69.3591070  23.8457656  90.3042126  76.5402937  67.4141693
  90.7997894  75.8697844  67.8843307  90.9616089  77.1854544  67.1537018
  30.6809687   7.7228595  55.5561876  30.1574396   6.9448519  55.3642035
  30.0866770   8.2987262  56.0372448  91.6083336 100.1029205  58.7295103
  92.2235680 100.8350754  58.7702703  91.3596439  99.9480247  59.6407700
 106.6340542  75.0584698  43.4688616 106.8675041  75.6830215  42.7820778
 105.8568764  74.6121740  43.1326485   9.3482361  77.8029966  51.7988968
   9.8055325  77.0475388  51.4295769   8.9606343  77.4751377  52.6103783
 111.1219978  76.9049215  66.9699383 111.2932491  76.8677044  66.0289192
 111.3192368  76.0226154  67.2843599 101.3479233  88.1601906  48.5278082
 101.1548424  89.0968227  48.5686255 100.6191063  87.7867794  48.0322027
 111.6939735  68.6528158  56.2073278 111.7831898  67.9810095  55.5313444
 111.6898537  68.1649065  57.0308304 104.7865295 104.1313744  37.3697758
 104.3545818 104.9582100  37.1553183 105.3634644 103.9623070  36.6249323
  23.5108732   8.6187125  35.5286837  23.1102060   9.1021014  34.8061681
  24.4453215   8.8139106  35.4583931  91.6361141  96.7718506  42.1198082
  91.1292648  95.9873390  42.3292875  92.1924973  96.9093418  42.8864670
   7.7192078  75.6865168  86.2250328   7.6001892  75.1215076  86.9884682
   8.6026535  75.4873323  85.9150505  98.4436321  65.8872747  80.8647919
  97.5801754  66.2452841  81.0709476  98.3097076  64.9398994  80.8369827
 111.5262712   7.6751567  92.7306461 111.5544809   8.0933810  93.5911846
 112.4012579   7.3044635  92.6157093  86.1360168 104.8423290  68.1191874
  86.4006424 105.4582500  67.4359274  86.5357399 104.0118313  67.8608847
  52.6126945  25.5821043  21.1454505  53.4086406  25.2511221  20.7293242
  52.9283226  26.1441141  21.8530864 107.1454906  81.9226742  24.5525455
 106.2243176  81.8192482  24.3138528 107.1493530  81.8966484  25.5093837
  77.2557020  94.3682766  80.1697350  76.3955212  93.9487553  80.1878452
  77.1651077  95.0728226  79.5281410  61.4473999  53.1763845  14.6698970
  60.6363380  53.4033781  14.2150516  61.4601314  53.7488561  15.4369372
  27.3608278  21.2489367  46.2731075  27.9027151  20.8156825  45.6136513
  27.8903364  21.9892073  46.5695095  83.9594460  75.2895927  91.1599445
  84.7263241  74.7245741  91.2542248  83.7189484  75.5187225  92.0576572
  75.6874228  98.1736660  40.1491880  75.6416178  97.3594761  39.6479702
  76.4647532  98.6190319  39.8120928  87.1930408  72.3325348  49.6459198
  87.0935535  71.4872742  49.2078876  87.9246998  72.2047520  50.2497149
 111.5568352  75.2013540  76.8205643 111.3055420  74.9498034  75.9318542
 110.7815647  75.0155258  77.3503447  85.8314037  81.2731743  49.6767950
  85.6620693  81.5754509  50.5690861  85.8875942  82.0759773  49.1585541
  15.4168009   5.7175589  53.3422947  15.9802889   5.6564666  54.1136408
  15.0764536   6.6119242  53.3645391  16.8273793  44.9339581  71.6854620
  16.6778431  45.7435322  71.1971378  16.5324078  44.2403746  71.0954094
  28.5818743  11.1563445  43.6680460  28.6288332  11.0705901  44.6202374
  29.2678713  10.5743647  43.3410263   8.9301548  47.8069735  58.8142014
   8.7955914  48.6720610  59.2011642   8.0464421  47.4644709  58.6801291
  77.3094893  72.5531769  78.5522175  77.6014566  73.4259319  78.8154364
  76.6259098  72.7152538  77.9020786  91.2500763  58.4247780  93.0616951
  90.7756901  58.1660509  93.8517952  90.5694008  58.7346554  92.4643040
  93.2199478  81.0655499  69.6364117  92.9814625  81.0867310  68.7096405
  92.5579262  80.5051994  70.0413418  21.6770052  13.3507014  44.7679520
  22.4235510  13.6511279  45.2862740  22.0263933  13.2462931  43.8829327
 107.8321552  86.6318512  31.7954111 108.3324718  87.3420048  31.3934207
 107.7968597  85.9526253  31.1218834  38.3365689  69.9276590  80.8646870
  39.0638886  70.5484533  80.8215714  37.8998814  70.1274729  81.6927052
   1.7991982  82.4143600  54.2463684   1.4937745  82.2948074  53.3471155
   1.9825325  83.3513641  54.3144751  54.4919395  81.2091351  53.7913513
  54.8642015  81.8712902  54.3737555  53.7616634  80.8379555  54.2864847
  97.5482464  97.4596691  52.2933388  96.6372871  97.5682545  52.0202303
  97.6221848  97.9802704  53.0931759  60.9906530  87.4919033  83.5583687
  60.2167892  87.9786015  83.8420773  60.6509829  86.6393375  83.2863522
 103.7337685  77.0095110  28.9701939 103.6141968  76.2121487  28.4542990
 103.8819695  77.6957703  28.3195639  -0.1196981  14.4442225  43.7140751
   0.1740526  14.2519999  42.8235722   0.2040791  13.7105609  44.2366982
  76.5830946  65.5316973  79.8859835  75.9502459  65.5507660  79.1680861
  77.3837233  65.1871061  79.4903994  27.2775339  17.6269866  46.3639259
  26.9183420  18.4747363  46.6256857  28.0074858  17.8448058  45.7843113
  95.6714058  70.3379297  68.2459688  94.9341869  70.1692915  68.8327360
  95.5845261  69.6793318  67.5568104  75.5891895  58.6568594  55.4187059
  74.8991442  59.3121767  55.5218029  75.1370382  57.8842020  55.0799084
  99.7398853  85.7100773  35.3373122  99.6215248  85.3573227  34.4553900
 100.3126240  86.4675808  35.2174139   0.6081353 106.9826603  64.9192429
   1.4210759 107.0526409  65.4197073   0.1645718 106.2189960  65.2884388
 108.8949871 101.8456841  74.1002083 109.3111897 101.3236427  73.4142971
 108.8285637 101.2506485  74.8470306  95.9668159  59.7822714  56.7278385
  95.0649071  59.9404383  56.4489794  96.0987186  58.8440943  56.5912390
  99.6220875  79.1395664  91.6286373  99.6870327  78.4899712  92.3286629
  99.6072769  78.6228514  90.8230209   0.0361882  92.7995491  13.5068583
   0.2456246  92.5837708  12.5981176   0.8763085  93.0447960  13.8945293
  90.7913589  94.1551876  71.6103315  91.6474533  94.2876339  72.0175123
  90.9888077  93.7634468  70.7595730  74.7003317  81.9934273  69.3273735
  73.8094330  81.8760204  69.6571350  74.5858765  82.2280979  68.4064722
   4.4104729 105.3604889  40.5509567   3.8442479 106.0828400  40.2792597
   5.2606831 105.7699108  40.7114029  81.7831326 103.0046654  66.3547754
  82.0611858 102.3682404  65.6960773  82.4934483 103.0111885  66.9963694
  11.2067471  81.5576744  61.5339851  11.4670716  82.2338772  62.1594620
  11.9694577  81.4507866  60.9655762   3.2950077 101.6467571  45.3883791
   4.1880856 101.9471645  45.2198410   2.8846608 102.3697090  45.8629131
  27.3919081   4.9111987  69.0158367  28.1784605   4.3678046  68.9678955
  27.6714872   5.6962348  69.4867754  80.4114628  64.2994690  50.4146528
  80.2513981  64.1225863  49.4876575  79.5439291  64.4776869  50.7777643
 115.0546360  70.9486771  50.7314157 115.3462315  70.0466967  50.5986071
 114.4781494  71.1259270  49.9881315  15.4116307  70.5624294  59.9171877
  15.3666649  70.0653982  60.7339954  15.7535038  71.4181948  60.1760674
  70.2580261  80.2779865  52.8578615  71.0178804  80.4079151  52.2904301
  69.5535755  80.7647419  52.4300146  74.6076286   7.4518161  35.9433860
  74.7096241   6.5762716  35.5702323  74.1029537   7.9340273  35.2884025
   6.5344391  69.8958969  19.8903489   6.3762150  69.1573095  19.3023992
   7.4222241  69.7544336  20.2190781 102.8339577  92.7232838  52.3103237
 102.2197056  93.4249115  52.5262880 103.0207348  92.8465080  51.3796473
 109.3420792 106.8927193  41.5507221 109.2970943 107.5600338  40.8659554
 108.5942841 107.0807648  42.1178913 114.2157364  51.6789389  57.3606968
 114.7225952  51.9753742  56.6047525 113.5402489  51.1118746  56.9886923
  82.3349190  85.1123905  79.7849178  81.7242050  84.8474121  80.4726982
  82.7334595  84.2935944  79.4900036  73.1579399  97.4847221  41.3030148
  73.9651966  97.6962280  40.8341455  73.3996248  96.7618084  41.8819952
  95.8329296 108.9920139  40.1311398  96.5517616 108.3692360  40.0231361
  95.1383400 108.6567307  39.5642519  75.2052950   0.1976538  90.9251785
  74.9310850   0.9683276  90.4280853  76.1446928   0.3218222  91.0606766
  16.6880188  69.3778753  62.2017145  16.4654885  68.5044765  61.8793964
  17.6236306  69.4686413  62.0210981 104.6360779  76.4690018  75.3514719
 104.6243668  76.0586405  74.4867754 105.2858067  75.9687138  75.8452272
 105.8114624  78.2048368  54.5382118 105.5452919  77.2993898  54.3783617
 106.6269016  78.1308031  55.0340080  70.6701612  78.9890194  73.0169916
  70.1282263  79.1772079  72.2507524  71.1782742  78.2172060  72.7672720
 101.8066788  73.2596636  74.5809364 101.8928051  74.2128325  74.5978451
 101.0689163  73.0754900  75.1623249 105.4802990  78.7281656  50.5237532
 106.0609150  77.9674053  50.5429554 106.0468674  79.4674921  50.7442713
  10.1980458  79.8875523  26.7754769  10.4976521  79.8512554  25.8670974
   9.9775086  80.8079720  26.9183445  85.8635223  54.1268736  14.1067046
  85.8437240  54.8611074  13.4929103  85.2519596  53.4896570  13.7376899
  64.2222643 106.3063431  46.3172150  63.3125162 106.4479733  46.5790033
  64.4495440 107.0854950  45.8097696  11.7598032   6.6907073  18.8163280
  12.3055624   6.0543586  19.2783332  11.4548849   6.2243796  18.0379975
  88.7223721  75.5720329  58.9839840  88.1934166  76.3673449  59.0466452
  88.1144810  74.9045277  58.6659527  92.4452400  97.2566891  61.1151600
  91.9450855  98.0458450  61.3232708  92.8018188  96.9704151  61.9560719
  89.0014267 109.4313145  72.9942179  88.8572502 108.8322353  73.7267160
  88.6731339 110.2745628  73.3062792 113.3459377 104.5804310  46.7695332
 113.6860752 103.8496971  47.2858381 113.9797878 105.2848148  46.9048405
  64.4997644  63.4372520  50.0335646  64.3225574  64.2509651  49.5616531
  64.4875526  63.6884642  50.9571314  85.5820370 107.2415829  72.1192741
  86.2069321 107.5876141  72.7564621  84.7391510 107.6074600  72.3874187
 105.5068111 101.1346531  71.1233187 106.2688351 101.6795254  70.9266710
 105.1683044 101.4847183  71.9473934 105.7660103  98.9049911  68.3781624
 106.7015076  98.7087345  68.4287739 105.7179260  99.7115898  67.8650141
 115.0671864  63.6140633  55.8627558 115.0784874  62.6702690  55.7035017
 115.0063801  63.6956501  56.8145275  20.1497053   0.7581950  50.7936335
  19.2946695   0.3365660  50.7077217  20.5474543   0.6718684  49.9272776
  86.6126919  94.3226433  24.6661162  86.4965343  93.4510136  25.0442767
  86.9857025  94.8442650  25.3767490 102.9455757  96.2152576  29.7086525
 103.4166241  96.6512871  28.9985704 102.0580196  96.0971832  29.3702316
  11.7751465 104.6534252  81.7776108  11.4906178 105.5216122  82.0631504
  11.6580639 104.0976048  82.5480556  28.6074041   0.9961653  90.1060581
  29.2601465   0.2984000  90.1633167  28.0354952   0.7306243  89.3858910
  83.4282589  77.3085737  51.4278507  83.8741589  78.0719900  51.7947388
  83.2235336  77.5605917  50.5274057  16.0812626  77.4913073  62.1886635
  15.1491032  77.4092007  62.3900890  16.1041508  77.8116369  61.2869453
  95.7140541  79.9812126  37.9436636  94.8595810  79.5752907  38.0896854
  96.2629700  79.6454430  38.6523151  97.6399612 106.1119461  71.6585636
  97.2066498 105.7445621  70.8881712  98.3731747 106.6148186  71.3039494
  13.5947857 107.7744293  35.1117039  13.0180703 107.0110226  35.1405239
  14.3056927 107.5155544  34.5253348   2.5904332  66.0584688  34.2278218
   2.6408539  66.1072826  33.2731962   1.6536484  65.9997129  34.4154954
  82.2650242  97.5401592  45.7728624  82.8008938  98.0424023  45.1590061
  81.8498230  96.8672848  45.2333498  75.2573347  88.6459255  62.6937389
  75.7614422  88.6211491  63.5070610  75.2159452  89.5746613  62.4658012
 110.9579754  54.8538351  23.1918001 111.5459251  55.3817320  23.7320518
 110.5450249  55.4838657  22.6012373 105.4754829  95.9868813  76.1585093
 104.7817039  96.3158703  75.5869579 106.0773945  95.5336857  75.5681372
 100.4938877  85.0119692   0.4548091 100.2844322  85.9239011   0.2529925
 101.1839760  85.0653845   1.1159820  37.4873709   8.4432650  88.1876469
  37.1093439   8.7458277  87.3619461  38.3621191   8.1344748  87.9516792
   9.2905865  98.3730316  87.2991467   8.9710579  99.2018700  86.9425678
   8.5697327  97.7587700  87.1602440  86.8521118  79.0952206  47.9950953
  86.0964680  79.5046043  47.5736237  87.4947834  79.8004341  48.0717993
  90.5736828  94.2089558  62.3658037  90.4596424  94.3844128  61.4317560
  91.0723400  94.9584293  62.6911545  21.1301766  99.6329498  26.5051270
  20.4885826  99.8344517  27.1862960  21.6245327  98.8910770  26.8536544
  98.7330055  97.5240517  65.6193542  99.6259212  97.2950363  65.8772087
  98.3115768  97.7988338  66.4336777  82.5535965 103.1897354  85.1981354
  83.0360031 103.1663704  86.0245514  82.8763390 102.4316597  84.7109032
 102.6643562  71.2934351  42.2159863 103.0467796  70.4394531  42.4177313
 101.7867661  71.0921526  41.8910885  52.1830439  17.1139575  64.3573380
  51.8140387  16.6750098  65.1237488  51.5050291  17.0346690  63.6863422
  51.5999197  19.9336768  40.8010101  52.1216559  20.2239466  40.0528383
  52.0488524  20.3003264  41.5627575 115.0742340 106.6448593  47.9388189
 115.1841164 106.8922997  48.8569355 114.8389912 107.4609375  47.4973297
  39.1773771   1.9783831  60.2548027  39.0111040   1.8597460  59.3196487
  40.0709127   1.6594077  60.3815556  83.5909450  37.2304731  16.4634150
  83.8409126  38.1154543  16.1978072  82.7397526  37.3391252  16.8875522
  98.5825729 107.4933434  81.2311840  98.7660599 106.6761684  80.7677364
  97.8558731 107.2789764  81.8161488  97.9857635 103.2121468  52.4749184
  98.1539822 102.2988224  52.7068138  98.8463974 103.6298656  52.5071335
  12.7751612  16.0852767  52.4780941  12.6320242  16.0454703  51.5324974
  11.9118475  15.9223986  52.8580856   0.7713566  99.6043015  44.1870975
   0.0625191  99.4806099  44.8183584   1.0154019 100.5253506  44.2784262
 103.2149315  66.6257954  66.4320040 102.3709297  66.1783075  66.3716745
 103.0073833  67.4778748  66.8155622  27.4873709  19.4355345  81.3089085
  27.4020933  19.7650767  82.2035313  26.5889143  19.3977309  80.9809208
  16.6785870  89.6381664  43.8554955  17.5681076  89.6593094  44.2083931
  16.6525898  90.3606033  43.2280779  36.3499903  60.2353430  31.6645288
  36.5651011  59.8106909  32.4949622  37.0018744  60.9305335  31.5750909
  89.3788242  91.6472435  69.0103865  89.2001438  91.7220592  69.9477816
  89.0050507  92.4426460  68.6310959 101.2411785  68.0808020  56.0256624
 100.7141399  67.5618267  56.6332293 102.0253468  68.3100891  56.5244007
  83.1097221  71.7559671  70.4259443  83.4411812  71.9852829  69.5577383
  83.2102013  70.8054399  70.4773045  20.3937887   7.7194453  75.9544420
  20.8529734   6.9387770  75.6446791  19.7242140   7.3829604  76.5499926
   0.6533585  95.1827621  81.7676067   1.5360127  94.9105072  81.5165615
   0.7907353  95.8524323  82.4376106 100.3456020  83.8517952  42.8137589
 100.4675674  82.9116535  42.9460382 101.1522007  84.1401958  42.3866129
  17.0955429 103.0254269  18.2750559  16.8837510 103.6060524  19.0059817
  16.5593682 102.2467232  18.4246194   3.1335888 102.2374916  86.8477535
   2.9040490 102.3523235  87.7698994   4.0797577 102.0927143  86.8526840
 104.0093040  94.9935150  87.0079708 103.5972881  94.7459221  87.8357220
 103.9169788  94.2188549  86.4533424  88.5704994 104.6952534  24.2177892
  87.9776192 105.3209114  24.6340632  88.6302948 103.9709949  24.8407722
   8.9883207   9.0267134  56.6642952   9.6374964   8.3383990  56.8093014
   8.4276365   8.9942694  57.4394178   8.7618504 109.2504215  92.0118904
   9.2614708 109.5402718  91.2486076   9.4268570 108.9762878  92.6434422
 106.7271423  90.7133675  32.3108959 106.2576962  91.3151360  32.8885913
 106.8644524  89.9292469  32.8424263 114.9704456  81.7492485  25.7217002
 114.4095898  81.3400745  25.0627208 115.8581734  81.6436386  25.3796339
  44.7861837   3.7380934  64.2872524  44.3100142   4.2238284  64.9607182
  44.7278952   4.2901374  63.5074615  14.8274302  22.2615481  55.6607866
  14.7970461  22.6249743  54.7757816  14.1493582  21.5859557  55.6656790
   4.6201681  13.6881877  49.5328045   4.6010946  12.7394057  49.6579742
   4.1303991  14.0378714  50.2771664  57.5736212  26.1392546  89.9157047
  58.2634520  25.5171157  89.6848011  57.8335356  26.4779998  90.7723999
  58.6659718 108.8098049  66.6869307  59.4255400 108.9459896  67.2532654
  57.9290056 108.7226105  67.2915077 109.2701912  87.1379852  45.5144882
 108.8134670  87.4460506  44.7317171 108.5823917  86.7516994  46.0566568
  13.5868988  98.6988449  71.5903234  14.4134388  98.2651424  71.3782597
  13.1683693  98.8446712  70.7419157   9.1073189 105.0506592  68.2985210
   9.3913708 104.8798370  69.1964960   9.2940960 104.2374611  67.8294277
  80.4739857  79.7875977  59.2928934  79.7590971  79.6762753  59.9196053
  81.2517071  79.4823360  59.7600079   7.0247231  73.9751625  38.5504746
   7.0095692  73.5852957  37.6763988   6.2474785  73.6223173  38.9836216
  98.0882835 102.0788765  32.0683098  99.0058899 101.9840145  31.8129158
  98.1175709 102.5725746  32.8878427 113.7635708  94.0157223  13.6249053
 113.5722351  94.0970707  12.6905572 114.4836807  93.3865738  13.6680377
   8.1144022   7.6072074  48.5196447   7.4788355   7.8983641  49.1734886
   8.3971857   8.4120608  48.0854940   5.7904396  76.3387966  50.1751471
   6.3897858  75.6758404  50.5179310   6.0417519  77.1449137  50.6259823
   7.6183472  87.1226120  53.2336521   7.7724514  86.1792374  53.2840061
   7.1116505  87.3248386  54.0201616   0.2514229  86.1431789  46.8706751
   0.4641018  87.0090866  47.2188282  -0.0928058  86.3153458  45.9942627
 111.0010815  93.9156723  53.0797482 110.2687550  93.3317566  52.8823614
 111.6529465  93.7180805  52.4072456  18.1988024  12.0493556  73.6999941
  17.4704241  11.4360095  73.7974596  18.9563250  11.4941741  73.5151720
  30.6474934  95.7471848  46.0901451  31.2653313  95.0674343  45.8209896
  29.7865830  95.3847027  45.8811760  77.2469986  71.1171346   2.8704089
  76.6775882  71.2326914   3.6310977  78.1289757  71.0598856   3.2379168
  51.1314011 105.2981758  42.5222015  51.1370039 104.3413925  42.4944448
  51.0614681 105.5103779  43.4529543   7.3765335  79.4505644  13.0859339
   6.7724667  79.4264889  13.8280642   6.9898663  80.0854206  12.4828780
 109.6584702  75.8395004  19.5413649 110.1181889  75.3782892  18.8398147
 110.3057861  76.4529800  19.8890197 109.3235397  55.9500885  64.8796415
 108.5753918  55.7089901  64.3334103 110.0871563  55.6543016  64.3840170
  96.6900635  89.9004364  64.3419743  95.9092236  89.8610401  63.7897301
  97.3770237  90.2295494  63.7623215  94.1123199 104.7915077  41.6093874
  93.2083702 104.6680737  41.8989801  94.5129395 105.3251171  42.2956800
  98.3535398   4.7921324  58.4877539  98.3429683   4.1657592  59.2114782
  98.5564913   5.6315947  58.9004850   7.0366631  88.1063271  32.7083230
   6.4699993  88.5536575  33.3368301   7.8795205  88.5534286  32.7852511
  65.2264404 108.1842232  51.5806341  65.0150013 108.7327290  50.8252096
  64.4040537 107.7434731  51.7942810  84.6663761 101.2014294  69.9680185
  84.7079849 100.3161812  69.6063089  84.4724751 101.7591286  69.2146206
  98.8094139  80.8605289  61.9446802  99.5851040  80.8490086  61.3839626
  98.8937283  81.6668129  62.4536276 109.2406178 109.5240116  55.9203720
 109.1401577 109.2791271  55.0004959 110.0269890 110.0694752  55.9385109
   0.2656803  94.9090767  93.4914780   0.3546486  94.0744591  93.0313301
  -0.4157581  94.7509193  94.1448307  56.6093134   7.6956702  47.0814133
  57.5254034   7.9483081  47.1962595  56.4329123   7.8497649  46.1533117
 104.7931767  70.9633398  47.1126509 105.7188988  70.9216070  46.8728018
 104.3951797  70.2185392  46.6619873  50.8494639  25.1594306  68.7386847
  50.3351950  25.8489562  68.3188009  51.5924429  25.0230838  68.1507969
 104.3857002 108.3819199  64.4514608 104.2517567 108.7043476  63.5602093
 103.6227798 107.8300858  64.6237183  85.3176689  74.3393183  60.9812927
  85.9852886  74.9144411  61.3551140  85.0652122  74.7659683  60.1624680
  39.1801142   6.8730212  82.9504871  39.2590593   6.9480849  81.9995022
  39.4465612   7.7307654  83.2813931  61.8220949  75.2150106  57.5065374
  62.6401520  75.0975561  57.9894638  61.6667986  74.3678713  57.0888424
   5.4977856  96.2163925  46.3040257   4.9155007  96.3695812  47.0481396
   5.3945408  96.9937325  45.7551050  23.8816904  15.4893256  59.9266195
  23.7939047  15.0974990  60.7955265  23.5107874  16.3666869  60.0209379
 106.4265060  89.9500179  49.5604944 105.9630013  89.5710659  50.3073406
 107.3530579  89.8633480  49.7845793   0.6706581  87.0987988  79.9945164
  -0.2012004  86.7299557  79.8529387   1.2177906  86.6827965  79.3283129
  11.3301539   5.3847647  55.7562542  11.5250753   5.5406142  54.8321581
  10.7203554   4.6469737  55.7512951 109.2378712 108.8370609  68.7512493
 108.9940739 109.3532467  67.9829121 108.4271908 108.4012508  69.0140915
  48.9817608  47.7608019  16.3945121  48.9307010  47.4466806  15.4917640
  48.2122696  47.3854833  16.8225879  96.1202717  91.3409138  86.0208702
  96.7918587  92.0212555  86.0691738  96.3260841  90.7493687  86.7447090
 105.3555870  95.3701496  48.8197756 104.7425079  94.9592876  48.2102203
 105.2337170  96.3099480  48.6850071 102.2092819 104.0334415  38.8565350
 103.0382824 103.7243843  38.4911847 101.5427208 103.6919689  38.2604504
  10.6303667   6.1634112  48.7896872   9.6995615   6.1574412  48.5665226
  10.8299707   7.0839740  48.9598703  34.3209337  11.3746215  51.5816259
  34.2747187  10.5597163  52.0816565  33.9201998  11.1615515  50.7388639
 112.8827190  99.6660519  35.4487062 112.8591919 100.0421143  34.5687890
 112.0273018  99.8775864  35.8225369  45.5449366  10.6988574  32.1087480
  44.6328520  10.9597350  32.2363114  45.4932570   9.8822642  31.6120172
 103.6890888 103.9474297  54.1962528 103.6879730 103.9595795  53.2391262
 103.1607628 103.1832409  54.4266987  12.4474596  10.0888015  35.5110455
  11.9235777  10.7021380  34.9956751  11.9256186   9.9302722  36.2976742
  85.9416389  51.8514538  49.6590996  86.1321831  52.7385378  49.9640703
  85.8475304  51.3374996  50.4611158 107.0755196  78.3071947  44.1894484
 106.9563103  77.4357843  44.5671511 107.0735550  78.1605673  43.2435465
  39.6357988   0.4085780  66.6791344  40.5190920   0.1412059  66.4250898
  39.7288584   1.3244868  66.9411945 101.0519218  74.0593767  65.1392460
 101.2616730  74.9652767  65.3663445 100.1716042  74.1036987  64.7660017
  73.4942198 108.7740803  59.2138386  72.6869774 108.8605213  58.7067699
  73.3145714 108.0648613  59.8310614  20.8149504  22.2810889  83.0235577
  20.9302973  22.6951743  83.8788128  19.8718809  22.1324015  82.9546738
  37.6217341   6.6883803  54.8880386  36.8517660   6.5432406  54.3382120
  37.2639822   6.9365550  55.7404804 105.5079842  88.6462975  67.3167133
 106.3768864  88.9542198  67.0589972 105.0283623  88.5651970  66.4923239
  93.1655979  87.9718590  83.6979675  93.9253998  88.5348606  83.8461494
  93.5387230  87.1291256  83.4394646 102.6247501  79.1978359  69.7867966
 102.0088959  79.3690777  69.0743208 103.3732605  78.7798071  69.3611002
  35.8652281  15.5696727  44.0300226  36.0219835  16.3999987  43.5803366
  35.1040339  15.1965380  43.5855293  31.3526987  13.6434222  70.9543943
  31.2413572  12.8636504  71.4982653  32.1728109  13.4925318  70.4844141
 101.1332035  90.6603432  53.5146809 101.1841202  90.8148098  54.4579649
 101.5881157  91.4068699  53.1248331  80.1718521 108.1577492  47.4494743
  80.9088326 107.8481865  46.9229221  80.4167843 109.0471649  47.7048016
 103.0856895  77.3464584  71.5565729 102.7926540  78.0733442  71.0070276
 104.0245914  77.2784519  71.3831425   5.0511418  96.6468525  61.8341780
   5.0329171  96.8922901  60.9091616   5.8498917  96.1279106  61.9285917
  65.1090979  14.9874831  52.5728893  64.2029070  14.8443175  52.2998333
  65.0822043  14.9367190  53.5283661 113.8305153  41.0414935  69.1054201
 114.3729700  41.5025378  69.7452736 113.1815256  41.6892005  68.8306141
  56.9250441 108.8979530  60.1713133  57.7794838 109.1810513  60.4969168
  57.1038055 108.0778980  59.7110987  85.4239273 102.0148945  54.0172291
  85.9162617 102.8357410  54.0238714  84.5415497 102.2670364  53.7450790
 100.1190853  92.1438599  38.7903929  99.4538021  92.7727127  38.5107780
 100.3773785  92.4405575  39.6630216 105.5198479  95.2634811  61.9279861
 105.8370018  94.5050144  61.4377069 105.3771782  94.9328041  62.8148556
   7.0055651   8.7746573  54.0599298   6.1359667   8.8657428  53.6703968
   7.2524904   9.6661902  54.3057203  70.6942558  93.5933304  59.4226313
  70.9110451  93.8588142  60.3163576  70.8869648  94.3650341  58.8901234
  71.3972998  72.5863218  51.1027479  71.1706495  73.1459761  51.8454790
  70.8771849  71.7933607  51.2328625   9.3629049  31.0739566  40.3385592
   9.8946261  30.6810713  39.6463585   9.7313379  31.9496012  40.4557800
 115.1509380  92.1432590  61.8933868 114.6632671  92.2861099  62.7045631
 115.9416199  92.6735306  61.9927263 109.6739769  86.9881535  94.6900654
 110.2234173  87.7646160  94.5831013 109.8675442  86.6777706  95.5746174
 105.7391644  98.1293106  44.1872406 105.0324059  98.1674194  44.8316526
 105.3294086  97.7625561  43.4037685   2.2724114 102.8180504  63.8336372
   2.7181874 103.2637691  64.5539474   2.5325261 103.3061028  63.0523729
  91.0136509  72.9795456  36.2161946  90.8429909  73.9145613  36.1028314
  91.2885189  72.6794767  35.3497982 111.6191101  51.1060381  61.9185734
 111.5839767  51.2220764  62.8680611 110.8622169  51.5911007  61.5898323
   4.3501912 100.7431602  37.7171636   4.5990334  99.8643684  38.0035758
   3.6908970 101.0241508  38.3516812  47.2387671  16.2212611  66.5785027
  46.3765024  15.8708239  66.3550854  47.7817988  15.4465533  66.7240381
  90.9352016  75.7411766  72.7290297  90.7912350  74.8535156  73.0570030
  91.6919136  76.0587692  73.2217360  65.4116440  95.9920120  36.1329460
  64.9404764  95.7805920  36.9388819  65.0737190  96.8499184  35.8759713
  81.8627453  97.0661640  57.3563576  81.6598034  97.5638866  56.5643215
  82.8024292  97.1945858  57.4857426  49.0768980   9.1499663  57.6307774
  49.1385531   8.2089186  57.7946758  49.4174360   9.2613078  56.7431593
  36.9830965  12.6399184  44.8682880  36.9693445  12.6151133  43.9115047
  36.2581419  13.2190848  45.1033115  95.9516144  91.4165306  66.3323498
  96.4450836  90.9229660  65.6772804  95.2706432  90.8110809  66.6255140
  11.8787073  20.9707213  63.5766792  12.7302527  20.5543662  63.7099171
  11.6412043  20.7475711  62.6766586  97.6423073  97.0448399  14.9015462
  96.8648338  97.4038696  14.4739246  97.9105377  97.7241135  15.5203223
  78.4022379  57.5385427  50.7848692  79.3437099  57.6347113  50.6413174
  78.1822062  58.2339430  51.4047384  38.1955408  23.4201289  61.4493942
  38.6868357  23.5576297  62.2593069  38.8369631  23.5618830  60.7531786
 116.0828304  76.1471462  29.1228509 115.7042313  76.8870592  29.5976424
 115.3698730  75.5113316  29.0623307 103.5529613 103.3510494  61.3278770
 103.7798977 103.4246445  60.4008818 104.3962860 103.2943439  61.7771387
  59.3230009  23.8781118  65.0432348  60.2509117  23.6716056  64.9311209
  59.0556479  24.2445898  64.2003584   7.7212988  78.6569952  43.7936783
   7.3943030  79.4104313  44.2852497   7.0169388  78.0111717  43.8486099
  87.8211165 105.1613250  55.5820179  87.0880736 105.2709755  54.9763346
  88.3190001 104.4259595  55.2248335  54.2617846   8.9149052   2.4069658
  53.5172081   9.4818324   2.6080537  53.9247799   8.0265963   2.5234509
  61.4169359   0.4201752  56.2481642  61.5136003   0.8999076  55.4255199
  61.9149590   0.9332186  56.8845558  53.2264185  30.6197095  65.5748320
  52.9692936  30.2069402  66.3992929  53.6104393  29.9093485  65.0608778
  35.2058673   7.4372274  16.5374637  34.3250942   7.7097487  16.7947650
  35.7807708   7.8390467  17.1888161  74.8947525   5.1365852   7.4876106
  74.2671871   4.8091814   8.1319708  74.6427345   6.0497540   7.3503500
  57.6556635  20.1652813  26.2183714  57.2620583  19.3601704  26.5546823
  58.4895611  19.8848438  25.8412838 113.0406301  16.6872633  43.7781906
 112.8532981  15.9801877  43.1607914 113.5248082  16.2641072  44.4872332
  23.6053276  13.3588111  66.3100958  24.3462372  13.3017302  65.7067490
  23.2930613  14.2592883  66.2214231  38.7650895  20.9853506  36.6545010
  39.6282196  21.0399222  36.2443089  38.3229780  21.7922282  36.3904595
  35.8109080  92.9317068  77.4289846  34.8692595  92.7757084  77.5010967
  36.1730038  92.0890199  77.1551323  37.4589705  16.7070866  71.9184780
  36.5273619  16.7541969  71.7037296  37.6287937  17.5021315  72.4237442
  52.4850451 100.4311060  28.4055138  52.9596983 100.3004449  27.5846243
  52.5692450 101.3676631  28.5844088  14.6293389  99.9392533  30.7930636
  15.5215870  99.5934212  30.7701373  14.2851006  99.7722053  29.9156666
  71.3071537  17.0914423  52.9423809  71.0709667  16.5407276  52.1959496
  71.6361380  17.8997207  52.5490761  60.7756805  13.0098307  15.2228260
  60.0757265  12.5658965  15.7015991  61.5457058  12.9171693  15.7838106
   8.7161766  87.2471594  38.8925290   8.9383065  86.3853978  38.5400319
   8.5950028  87.0983743  39.8302984  50.7234383  11.3602197  63.3427620
  51.2223005  10.6648159  62.9140615  50.5870247  12.0144773  62.6575089
  17.3181903  12.8701198  33.0217552  17.2372615  13.3671701  33.8357735
  16.7943394  12.0826149  33.1688952  13.5275471  26.2557960  53.9875984
  12.8258526  26.0459757  54.6039057  13.4051657  25.6387019  53.2661772
  98.9123918 105.3162106  31.4103270  98.3916236 104.6350878  31.8358898
  99.5166589 104.8367112  30.8436036  99.7555018  97.0514917  40.8336163
 100.4635836  97.6906490  40.7540655  99.4607759  97.1322119  41.7407274
  99.9802876  95.5458068  38.2696605  99.1011835  95.7382654  37.9435205
  99.9895788  95.9023165  39.1579437 108.3644916 107.1387490  56.9997120
 108.5804201 107.9483979  56.5370321 108.3825613 107.3800101  57.9258347
 109.3555642  84.5666956  43.1016541 108.7349320  85.2953457  43.0909443
 109.0985585  84.0222143  42.3575306  12.9681849   8.5689038  42.0903873
  12.8353393   9.1093963  41.3116360  13.9143896   8.5845226  42.2342110
  52.0007801  30.5102944  37.8010011  52.8974342  30.8451462  37.7899957
  51.5352821  31.0918903  38.4020734  13.2416760  99.1738843  28.4779286
  12.3880230  98.9999770  28.8744903  13.1139075  99.9803632  27.9784298
  62.6228285  10.1544607  76.2429762  61.7291403  10.2175212  76.5799809
  62.6412106   9.3243301  75.7667637  17.5000131   6.6434747  46.0762119
  17.1970069   6.4943916  46.9718647  18.4500253   6.7292428  46.1559153
  17.0878947  10.1508164  42.2213936  16.3106024  10.5083132  41.7921543
  16.7774785   9.8669761  43.0812216  82.3940372   9.3455100  30.2513170
  82.1972942   9.7847188  31.0787344  81.5411091   9.2309272  29.8322535
  21.7408228   5.3680152  32.6361108  21.2788701   5.1012963  33.4309006
  22.3897028   4.6789110  32.4935508   5.6537628  25.6292081  10.3007007
   5.4753619  24.9273181   9.6747971   5.9046006  26.3764167   9.7575700
  41.9705963  10.6547594  36.6995239  41.7571211  11.4192879  36.1645913
  41.9169092   9.9158287  36.0934448  16.7812907 103.2776182  26.5200734
  16.6988169 103.2285445  25.5676985  17.7197539 103.3864885  26.6739202
  97.6043750  91.7906331  45.9137058  97.4200238  92.6386594  46.3175535
  97.3281814  91.1487257  46.5678501  66.5022087   2.5771669  33.8075972
  65.7828188   1.9657679  33.6497927  67.2934961   2.0523906  33.6863351
 105.5004788  85.9311032  53.5625076 104.6429373  85.9267997  53.9877558
 105.7480336  85.0077819  53.5132504  66.0211945  11.2043977  63.6884832
  65.2320099  11.4404309  63.2009268  65.9471035  11.6865599  64.5120525
  36.9968414  48.4158039  60.9511280  37.5566673  49.0262508  60.4713535
  36.8727374  47.6814651  60.3498173   8.7844025  69.6380901  59.5661497
   9.6227585  69.8163890  59.1400051   8.9633261  68.8983011  60.1466084
  12.0893513  72.1420931  89.9432373  12.1473824  71.5034627  90.6538868
  11.3599240  72.7103042  90.1908207  20.1077782  87.2512626  40.5404758
  20.6820236  86.5389990  40.8218193  19.3341814  87.1697783  41.0982800
  97.6337362  80.5769753  76.8364763  98.4586430  80.9714603  77.1195698
  96.9649244  81.2139200  77.0879221   7.3434674 106.9359829  71.1176109
   8.2193934 106.7461338  71.4536715   7.4807440 107.6236778  70.4661036
  97.2314930   6.6215253  47.8848934  97.5114536   6.1214375  48.6515570
  98.0471230   6.9217980  47.4838829  19.9977231   4.7791779  16.1335516
  19.3012893   5.2075797  16.6312289  19.5445561   4.3513125  15.4070508
  50.9862089  24.7431326  44.2966604  50.9776402  24.3514371  43.4233141
  51.6043997  24.2071819  44.7934771  46.0808945  16.7098200  35.8670044
  45.1606178  16.7211425  35.6039572  46.5446329  16.3703251  35.1015472
  57.2046090  99.7843754  53.1242180  57.7426148 100.3224623  53.7049437
  57.3378874  98.8890778  53.4355259 101.3597169  26.8112421  28.3730674
 102.2384598  27.1242905  28.5876465 101.2386348  27.0489049  27.4537802
  16.8702732 106.6382169  41.3544083  17.3127066 106.6745406  42.2024441
  16.0990320 107.1947341  41.4625978  11.5853249  96.0225212  68.0784988
  11.2170922  95.9623408  68.9599800  12.5093972  95.7987332  68.1891584
   5.2818857 105.4254588   8.3619058   5.8907591 105.2450913   9.0781248
   4.5197855 104.8783409   8.5519040  71.8850279  12.4805343  59.0768766
  71.4386797  13.0780578  59.6768522  71.2199450  11.8320823  58.8457775
  65.4170322   8.3730280  41.5346384  65.8027029   8.2254493  42.3981810
  65.7684040   9.2189419  41.2567854  82.2499506 105.7759344  37.2143078
  82.1355347 104.8372003  37.3623586  81.5840925 106.1881232  37.7647305
  98.5537387  91.3523566  14.0170550  99.4986487  91.3207280  14.1666377
  98.4159327  90.8102643  13.2402813  13.5494280  23.4931207  22.0337820
  14.4279063  23.8466620  22.1734786  13.6331034  22.9450631  21.2534833
  19.8129821   3.9623031   9.8074299  20.7457685   3.9911404   9.5945734
  19.4487464   4.7452289   9.3944031  40.0182819  35.3372192  50.1371813
  40.1609039  34.9813414  49.2601156  40.3808594  36.2222457  50.0984240
  11.3304758  20.0069237  60.9057903  11.0475838  19.1091287  61.0794783
  12.2798133  19.9429548  60.8013916  37.6273799  34.1071129  50.7197952
  38.4758091  34.5490313  50.7530880  37.6678848  33.4576797  51.4218140
  34.7438478  45.5770493  49.3236351  34.1812062  45.0594139  49.8995876
  35.5745077  45.1016092  49.3097496  50.6591272  14.1256547  45.3858137
  50.2912426  14.3129539  46.2494183  50.2225542  14.7442770  44.8002005
  19.2158686 101.0270386  46.9699526  19.1536509 101.1382716  46.0212755
  19.9966418 101.5218949  47.2184324  37.7592373  16.3313818  11.2567985
  38.4896088  15.9213662  11.7201293  37.6769781  15.8284080  10.4465616
  74.3555832   8.1946957  54.4714594  74.0263224   9.0346611  54.7912693
  74.7178221   7.7680868  55.2480030 101.1004234  70.3773522  34.7623277
 101.6018463  70.6321120  35.5368638 100.3519655  70.9739947  34.7546244
  74.3010044   3.4536240   4.9027729  74.0380907   2.5405455   4.7870350
  74.0145969   3.6748534   5.7889223  23.4350824  29.2461944  12.5210285
  22.6101398  29.3289781  12.9994094  23.2289124  29.5434356  11.6348159
  20.2580010  80.9154319  17.0440590  19.3999039  80.5692601  17.2891366
  20.3749310  81.6836070  17.6030481  30.5772948  15.8176124  72.0493841
  29.6668959  15.7807112  71.7560530  30.9592915  14.9928975  71.7491245
  40.7191992  30.4533792  53.3396959  40.3373337  30.0344205  54.1109800
  41.3827419  29.8345184  53.0348110 104.3710876 108.4720748  57.1530676
 104.9037958 109.2210992  56.8858290 103.4890247 108.6844677  56.8479729
  48.9991175  91.8731605  28.0532718  49.0070139  91.2850224  27.2981143
  49.2825781  92.7173852  27.7023244  22.1555376   0.8740971  30.5469441
  22.4515605   0.3173300  29.8267961  21.2403250   1.0649472  30.3415418
  66.2886988 106.3027691  58.7814426  66.2139784 107.1390241  58.3217382
  66.8003069 105.7497435  58.1909800   9.6419417  93.6541878  51.3212633
   8.9291178  93.5411846  50.6925011   9.6063076  94.5805036  51.5598059
 102.3159708  49.8655580   6.5972918 102.6214803  50.4835998   5.9332675
 103.1078113  49.4096367   6.8825168 105.2419592  97.9372954  53.2458210
 104.7342850  97.1319413  53.1463146 105.5183388  98.1576525  52.3562765
  40.3773832  22.3709750  48.5768938  40.8081532  23.2151294  48.7113142
  40.4286909  22.2235894  47.6324987  61.6531420  22.3448372  44.8075247
  61.5486240  22.6891136  43.9205170  61.4265203  23.0794430  45.3778172
  52.7920341  39.5548415  70.4427052  53.5860300  39.7880220  69.9616337
  52.4544096  38.7831712  69.9879932  18.4906946 100.0108754  40.9938383
  18.8597332  99.5288300  40.2537870  18.1154763  99.3341612  41.5573072
  41.7777205  30.7298088  43.7666845  42.5284338  30.2133536  43.4735346
  41.0183859  30.2809405  43.3949852  55.0217867  21.6413140  51.7291975
  55.0785017  21.0278606  50.9966040  55.6399345  22.3375511  51.5069866
 111.3840962  99.2942607  24.7342753 110.8084298  99.3855464  23.9749932
 110.8965493  99.6948706  25.4540253  16.5466797   0.5822976   8.1303138
  16.4161217   1.5039936   8.3531660  17.0490921   0.6016642   7.3157960
  22.7194678 104.4768994  51.1087704  23.1752526 104.9748280  51.7874146
  23.3622443 103.8327562  50.8118677  18.1021094  66.3990116  61.4290094
  17.7170289  66.1691713  62.2746563  18.8307011  65.7872629  61.3234138
  24.3590522  27.1281123  15.0114048  24.0074110  27.5460386  14.2253292
  25.2283621  26.8228531  14.7518861  89.1891193  12.4054241  75.6239891
  89.8306561  13.0878830  75.8212423  89.3147087  11.7524254  76.3125038
  38.4758043  18.6807632   8.9606994  37.5417542  18.8836336   9.0119570
  38.5128713  17.7243555   8.9487714  52.3841333  28.3223748  50.8435774
  52.0732450  27.4240923  50.7310247  52.5051165  28.4173489  51.7883396
  74.8593426   9.6834064  18.7084544  73.9084435   9.7854102  18.7487078
  75.1088190   9.4128162  19.5920682  16.0228907  87.4724936  57.0367432
  16.4145027  87.4805140  56.1633539  16.5579163  88.0823468  57.5447369
  62.6303244   5.8469081   9.9560463  62.4380350   5.9143806  10.8913016
  62.3756027   6.6969603   9.5972162  59.4293391 101.3406586  35.1391816
  58.5559260 101.1211669  35.4635358  59.2890536 101.5960067  34.2273998
  33.5061169  29.4386697  46.8407440  34.3241692  29.9345112  46.8748903
  33.0053878  29.7505069  47.5945759  67.5295973   2.8707251  79.1281319
  67.0785713   2.1961506  79.6358252  67.7919579   3.5235944  79.7770977
  31.6807890   0.9581248  75.0238323  32.2510219   1.6115418  75.4289389
  31.3321137   0.4552180  75.7598639  98.6221076  83.9362239  29.4971061
  97.8113151  83.6096262  29.1070056  99.2704917  83.8653397  28.7965322
  79.0569748  65.3057258   7.0380324  79.0288128  66.0414033   6.4262980
  78.5993756  64.5985274   6.5833777  52.2445917  27.2977996  53.8622236
  52.9570723  26.7045403  53.6242104  52.6116562  27.8472161  54.5547819
  54.5773268  23.9671469  64.0960217  54.4025850  23.2476306  64.7026491
  54.8171663  24.7027111  64.6596289  13.3845316 105.8514785  39.0657735
  13.7235342 105.3632679  38.3154678  13.7522589 106.7295867  38.9661098
  14.2062365 102.5579649  38.5603380  14.7626959 103.3226883  38.4127522
  14.8156105 101.8625056  38.8077855  54.2238855   1.3802922  59.8978043
  55.1307201   1.0799633  59.8371220  54.1701841   1.8089160  60.7519865
  89.9106503   9.2788595  49.7220945  89.3169975   9.0162462  50.4255486
  90.1748371  10.1697600  49.9517298  26.0660028   3.1955174  58.5364008
  26.0692286   3.2355362  57.5800467  25.7870841   2.3022798  58.7378073
  36.6203690  39.9158788  57.4856043  35.6860232  39.8261929  57.2980261
  36.8348980  40.8079195  57.2127151  58.3700991  11.0840344  86.7447758
  58.6273241  10.2924812  86.2720108  58.3886147  10.8287907  87.6671314
  90.9342766   0.9525482  61.6929007  91.8642807   0.8269462  61.5043783
  90.7468605   1.8417090  61.3920689  47.8585039 108.9160041  46.8397427
  47.0997893 108.4792214  46.4526892  47.4992548 109.7045453  47.2464085
  98.4633923  13.6469197  49.2583275  98.4882355  13.1640971  50.0844574
  99.3036461  13.4536386  48.8425875  33.5649157  46.4412403  59.9196148
  33.7379670  46.6366959  60.8405304  34.0000534  47.1457052  59.4393873
  69.9201632  18.7581766  40.1733637  69.9956417  19.2514789  39.3565488
  70.7679319  18.3244812  40.2704573  68.8177824  25.6798720  38.4186840
  67.9734421  26.0736799  38.1990647  69.0631104  26.0870337  39.2495084
   6.0827261   8.5672420  74.7661543   5.1696789   8.7582099  74.5514250
   6.5494037   8.6646855  73.9361238  27.2707748  19.5541155  91.0722065
  27.9143405  19.8487270  91.7166138  27.7036619  18.8342857  90.6132030
  71.0255337  32.7112365  43.9476585  71.0082102  33.4099245  43.2936192
  71.6804695  32.0940471  43.6215162  32.6598501  13.4656620  74.6843958
  32.9915905  14.0292776  73.9854527  32.5140643  12.6196599  74.2610073
  39.8204851   7.4282926  42.3260689  40.4038572   6.9922334  42.9471636
  39.0145063   7.5791639  42.8198957  47.0908213  24.4080877  61.3230371
  47.6307917  24.3122482  60.5385113  47.7069378  24.3192720  62.0501804
   6.8441079  62.0452065  84.4958406   6.4219926  62.7592671  84.0181702
   6.9565365  62.3845792  85.3837698   1.7060791  94.7242021  55.2387857
   1.9912754  95.6272423  55.0994635   2.0480000  94.4956922  56.1031389
  52.7155590   5.5970824  72.7971077  53.5541391   5.3493929  72.4076605
  52.9169750   6.3659668  73.3304739  50.1640320  46.0994720  30.7666707
  50.4147863  45.4664850  31.4394879  50.6894493  46.8757582  30.9604335
 107.3649240  98.6614262  65.2286291 107.3059727  98.1141876  64.4455004
 107.4631501  98.0388498  65.9490299  64.5723152  19.1534996  57.5829315
  65.0941515  18.4351373  57.9405260  64.7949219  19.9067080  58.1300640
  47.0051908  12.3157823  59.7257423  46.2177992  12.8558302  59.7935247
  47.3232460  12.2420478  60.6255388  79.0405703   8.8783157  70.0923491
  78.8158798   8.0931288  69.5931196  79.9299288   9.0941501  69.8118305
  55.5094910  21.6737652  41.9118929  55.6633615  22.5086188  42.3541307
  56.3241243  21.1856198  42.0315647  17.0760059  41.6989899  66.4349604
  17.8513575  41.6269588  65.8782959  16.6765082  42.5314379  66.1826468
  55.2502333  96.8906879  55.6843424  55.5207526  95.9727978  55.7073307
  54.4446551  96.9159686  56.2007093  59.0704012  16.3887894  36.9021511
  59.2356730  16.2162268  35.9752536  58.6853743  17.2649980  36.9177127
  61.6007566  10.4959404  34.4994521  62.5221252  10.6388199  34.7160029
  61.1465502  10.5455518  35.3405619  50.1190615  20.3064156  81.8772030
  49.4425488  20.9809566  81.9368458  50.7504988  20.6554461  81.2481594
 116.1279012  84.1320967  56.6124773 116.2745715  83.1862401  56.6037846
 116.9896770  84.5097303  56.4365005  27.5001287   7.2788882  70.2232170
  28.0978298   7.8563839  70.6980705  26.8207955   7.8626192  69.8855829
  38.0897270 101.4696544  15.9685254  38.1885277 101.7439794  15.0568151
  37.7000939 102.2268724  16.4056039  96.8596757 109.6691029  81.0197353
  97.0736862 108.8093294  81.3819790  97.6988054 110.0179472  80.7190704
  32.0530438  44.1376686  66.3302565  31.2404513  44.6404409  66.2742186
  31.9876766  43.6687469  67.1621656  55.7700920  12.8969169  75.1149082
  55.7994080  13.8105071  74.8307848  56.6342306  12.7361047  75.4938889
  20.9233271 101.2829887  69.4841671  21.3406884 101.3999736  70.3376055
  21.3332354 101.9426524  68.9246559  22.4399077 104.8553970  28.2968760
  22.5180470 104.0864938  28.8615990  23.2449328 105.3494167  28.4521508
  56.6797352  38.1951809  15.6779885  56.9574833  38.5541177  16.5207541
  57.4390793  37.7035213  15.3651011  39.6135879  19.1265690  16.7934465
  39.7596312  18.1805789  16.7913175  38.6857629  19.2251992  17.0070946
  34.3420349  99.8808806  27.9862285  33.3953177  99.9147915  28.1233501
  34.5463072  98.9462280  27.9557610  35.0670195  33.3358145  64.0123463
  35.0186610  33.2595587  64.9652767  34.1626334  33.2295108  63.7173605
  67.8351498  28.6616230  45.2647924  68.7846279  28.6845875  45.3839445
  67.5934935  29.5713711  45.0910330  35.2280807  22.2742605  61.7847776
  35.6724215  23.1075978  61.9407988  34.2992568  22.4718881  61.9050407
  72.2203302  15.8875167  29.5489287  71.8085480  16.4143038  30.2338862
  72.3282671  15.0225222  29.9443603  49.4624472   7.5407290  69.2549324
  49.3770742   6.6337037  68.9612532  48.9045286   8.0392975  68.6579514
  18.3070743  13.6493039  21.1687255  18.5212684  12.8790522  20.6423569
  18.2941198  14.3720961  20.5413222  29.4578671   8.9750671  37.3051143
  28.7847328   8.6325145  37.8931451  29.6390176   9.8550826  37.6352501
  48.2211065   1.9028321   7.7900559  47.4061632   2.3832586   7.9359651
  48.8613844   2.5790015   7.5685269  60.5134249  14.9569702  13.2623398
  59.5794439  14.7727227  13.1624925  60.8547258  14.2071021  13.7496197
  98.5558844  78.2204270  28.8262653  99.1394902  77.4761676  28.9736152
  98.2875968  78.4918832  29.7040844  96.4954639  93.7553369  77.3551893
  96.2403227  94.1167211  76.5063477  97.1707679  93.1095742  77.1473742
  73.4554243  13.7392509  56.3480616  73.8924551  14.5558560  56.5897036
  72.9058075  13.5292292  57.1030712   7.0085512 109.3518055  55.4916382
   7.3553501 108.4933703  55.7346439   7.6251208 109.9762015  55.8740091
  24.8319279  86.9711470  60.2633572  23.9914023  86.5139961  60.2357578
  24.7346102  87.6088928  60.9704924 105.7789994  99.5038032  31.7679238
 105.3879023  98.6917745  32.0902371 105.0762154 100.1504117  31.8329144
  52.0393562  31.0612512  32.8854394  51.7362881  30.3157663  32.3671389
  52.9672050  31.1445189  32.6654601  14.5729481 105.2197962  86.4624023
  14.3140923 106.1115848  86.2301636  14.7192704 104.7862392  85.6216621
  59.0622377  36.7095470  62.0787811  58.6891508  37.5313902  62.3975468
  59.7274065  36.4807558  62.7279615  30.8028817  35.4341888  57.6008892
  30.3163028  34.8850417  56.9861460  30.9824753  36.2381816  57.1134758
  65.0883532  14.9276447  55.2407598  64.3227339  14.4003212  55.4687691
  64.7619152  15.8272123  55.2196026  53.7157440   7.9751027  67.6120663
  54.0753841   8.8153237  67.3276043  53.3890963   8.1414258  68.4963036
  62.6361738  95.5495655  32.1977735  62.0248305  95.1770698  32.8331780
  63.1642901  94.8053729  31.9088125  49.3002796  22.0239186  67.7755928
  49.9727297  21.4771938  68.1819630  49.3513203  21.8130779  66.8432999
  42.7964640  60.7160759  72.3020697  42.4456739  60.2256584  71.5586519
  42.2593355  61.5073633  72.3419094  64.7845221   9.8258585  87.4340343
  64.0129995   9.4747251  87.8786469  64.6342993   9.6361804  86.5079212
  37.2839355   1.5922828  80.7636261  36.3652658   1.4960825  81.0146713
  37.7681780   1.1217885  81.4421368  31.0918188   8.9567685  34.6581268
  31.1447120   8.5639387  35.5294013  31.9778299   8.8763201  34.3049359
  18.6167204  24.3127489  51.4675522  17.9402661  24.9093342  51.1470413
  18.1403744  23.6719918  51.9955254  36.6134620  35.6404090  95.3310204
  36.1693549  34.8423052  95.0446033  37.3992085  35.6859326  94.7862625
  48.8302612  12.2293735  40.2949476  48.5134554  12.8734934  39.6617246
  49.1270208  12.7518833  41.0400343  20.6450868  51.5635586  67.1643829
  20.4792118  52.4730730  66.9163942  20.5174708  51.0677004  66.3556385
  47.7496039  87.8078889  64.2460299  47.8921877  88.7544107  64.2453146
  48.3035551  87.4827623  64.9557161 114.3529726 107.9862321  50.2697182
 113.5122991 107.5410002  50.1635504 114.1557766 108.7413427  50.8239317
  56.9478941   9.2178619  31.4064622  56.2577152   9.8761427  31.3255119
  56.7088795   8.5411137  30.7731247  49.1704607  24.8932695  27.2077513
  49.2092991  24.4909382  28.0754209  49.0034103  24.1627145  26.6122532
 103.4897709  13.2100284  60.1931477 102.5866890  12.9570413  60.3846359
 103.8267517  13.5429001  61.0249376  35.4513359   2.4043632  55.4186106
  35.6918073   1.4778632  55.4168987  36.2440681   2.8580928  55.1323652
   2.1699177 106.8549427  18.4892011   1.9622694 107.2490361  17.6419663
   3.1264674 106.8292730  18.5134220  22.8569031  37.5687337  48.8957310
  21.9748855  37.4287605  48.5512304  22.7891850  37.3473954  49.8245239
  36.9951474  92.8818297  35.6420684  37.7587973  92.6343571  35.1206994
  36.4813553  92.0771729  35.7111788   2.4225317  94.6744692  38.5721779
   3.2725416  95.0154614  38.2938981   2.6303850  94.0544581  39.2711878
  75.5948353  13.4068549  11.3398683  74.7610283  13.7964332  11.0767484
  75.3597927  12.7730131  12.0175350  60.3402042  22.4252272  79.7671747
  61.1515760  22.9295683  79.7075796  59.7183943  23.0204749  80.1858234
  38.9107251  21.8962193  42.0635843  39.3346930  22.3332787  41.3250303
  39.4163108  21.0931754  42.1890116  42.4955559  26.7182422  56.8174219
  43.0851889  27.4721241  56.8023252  42.9287767  26.0643148  56.2688541
  34.0543795   4.7342494  14.5661151  33.5158610   5.5073917  14.3973541
  33.4383917   4.0811333  14.8981225  51.6543484  14.9781513  37.0259356
  51.1574125  14.8508322  37.8340650  52.4676895  14.4932806  37.1659899
  28.2201648  22.8591609  11.3190126  27.8823018  22.4070740  12.0921206
  27.7638006  23.7005591  11.3150489  53.9177990  36.7431569  39.0138221
  53.8626003  37.6954627  39.0932083  53.0508375  36.4777446  38.7069607
  34.0299869  15.7887530  37.9745579  34.8192382  16.3288069  38.0152464
  33.3288050  16.3662267  38.2763863  93.3647848  92.3976325  79.7448492
  93.2153715  91.5023517  80.0487900  94.3154300  92.5053083  79.7750425
  76.8506002  22.3065329  59.9198103  76.4435434  22.0812845  59.0832663
  76.3653755  21.7954779  60.5675840   0.7220282  22.1214366  49.1998529
   1.4789768  21.7871308  48.7187099   0.0110144  22.1196437  48.5590076
  31.1031246  34.8555875  25.8646846  31.8474984  34.3253827  26.1493254
  30.4835653  34.8090768  26.5928459  42.5933599  29.9098873  40.6657124
  43.4492731  30.2512527  40.9247732  42.5914335  29.0053964  40.9789562
  41.7291641   1.0394834  31.7625570  41.9425869   1.0989767  32.6937628
  41.7425156   1.9459596  31.4553857  47.3410130  42.2947073  32.4159288
  46.4806080  41.8778515  32.4624348  47.3349142  42.7642059  31.5818024
  25.4873466  15.2276838  91.4962006  25.8052874  14.5670998  90.8807564
  25.9855843  15.0677943  92.2977161 112.1711827 104.0534049  19.8214066
 112.6864935 104.0531587  19.0147555 111.7548276 104.9151229  19.8393774
  42.8926455 103.9618485  45.4980707  42.7142893 104.3981319  46.3311863
  43.2074629 103.0924445  45.7455730  77.0704919  91.1105489  47.8893518
  77.8379915  91.6730463  47.9931450  77.1680880  90.7309448  47.0160770
  75.9171677  14.4548035  46.5845680  76.7533445  14.0009630  46.4793634
  75.8938885  15.0841677  45.8637428  72.5658798   1.8233033  30.4698706
  73.1426859   1.3148424  31.0399556  73.0928087   2.5782567  30.2079201
  38.4867620  11.0706449  76.9687176  38.5286975  11.8079782  76.3597727
  39.0162206  11.3472831  77.7166319  34.7112036  36.0120726  70.4417133
  34.2795873  36.6198063  69.8412132  34.3665290  36.2425160  71.3044596
  54.2387009  19.4858015  53.4625340  54.1058731  20.2772713  52.9408407
  54.3977165  18.7972546  52.8168964  58.2623625   4.1763243  54.8841953
  58.8251543   4.2995590  55.6485987  57.4129820   3.9287266  55.2495527
  25.6871449 102.5762718  38.5389924  25.1237713 102.7845221  37.7936912
  26.5477930 102.9133665  38.2902288  42.4313641  23.6623716  24.7219682
  43.0032301  24.4296837  24.7010994  42.1211910  23.5702491  23.8211131
   1.3294731 101.6021370  29.3647861   0.8191334 101.9027072  28.6128259
   0.6957160 101.1437272  29.9165511  74.6487474  10.2362502  31.1661816
  74.4849968  11.1422086  30.9041572  75.4230595   9.9784702  30.6659555
  28.2375479   4.2387742  42.1024370  27.4169397   4.6920702  42.2957134
  28.0454755   3.7177238  41.3227940  55.1608658  27.1281886  23.1687307
  54.4060040  27.7150345  23.1236577  54.8183584  26.3274622  23.5659170
  21.4905620  14.4490182  63.7407970  21.1018038  14.9172676  63.0019855
  21.8450880  15.1388454  64.3017626  50.5671930  10.6083286  70.1441908
  49.8041439  10.7091105  69.5751286  51.1652946  10.0509441  69.6463680
  69.3606091  17.5078595  49.5792150  69.9756432  16.9274497  50.0276423
  69.7071266  17.5831294  48.6901188  26.6621100  88.1878351  23.5726810
  26.1242567  87.4715328  23.2352591  26.1576449  88.9779209  23.3789992
  36.8139219  22.2875404  66.3214684  37.2320557  23.0864668  66.0003519
  35.8781290  22.4354720  66.1849451  41.1930227  47.3783112  49.9443579
  41.9078064  46.7602444  50.0970316  41.5220070  48.2124519  50.2793407
  67.2890902  25.1416159  45.0650835  66.8695974  25.5576372  45.8182001
  68.1705141  24.9267697  45.3703117  39.8079896  36.3642311  40.5028963
  39.7589350  35.4500341  40.7822990  38.9119458  36.6895580  40.5894899
  92.7013683   5.3700846  56.8760538  93.2550716   4.7832540  56.3610077
  91.9877529   4.8136148  57.1880293  44.6427917  10.4865730  52.0903683
  43.8539124  11.0107183  51.9519043  44.7662163  10.4856932  53.0395794
  61.8785238   4.3231285   1.5461513  61.1826563   4.9730039   1.6444348
  61.5559769   3.5539502   2.0157889 101.4780785 107.8728842  51.1599350
 100.5863691 107.5253760  51.1779928 101.8291236 107.6769685  52.0286226
  39.6749640  40.1854467  67.1579933  40.0002575  39.2861867  67.1997738
  40.1758814  40.5886459  66.4489460  81.3974285   8.5390699  61.6943979
  80.9080791   9.0958828  61.0888195  81.2352753   8.9223212  62.5564051
  30.7107483 108.1816562  74.2123747  30.1279723 107.6355363  74.7399712
  31.4141976 108.4301504  74.8120737  60.8624268   8.1267869  78.3203650
  61.2299538   7.3499566  77.8988314  60.7894468   7.8862095  79.2439604
  15.2580248  80.0015234  42.7975416  14.5558487  80.4684066  43.2505322
  14.8527561  79.6838497  41.9906521   0.6889878  14.9343681  57.0508623
   0.5634461  15.4654956  57.8372288   0.5459843  15.5425715  56.3256931
  70.8431768   8.0009657  41.7970753  71.3050985   8.8021559  41.5501833
  70.4908609   7.6640874  40.9732962  59.5788288   7.1954113  18.9998841
  59.2099476   7.2255844  18.1171346  60.2287340   6.4935797  18.9640248
  64.7066450  13.6406398  61.1826468  65.2246332  14.1273868  60.5415535
  63.8971138  14.1441500  61.2684679  26.8879676  10.5948591  29.7910380
  27.5885129  10.5740368  30.4429841  26.2822509  11.2631273  30.1115966
  60.9675264  22.8533268  57.6589584  61.0749054  23.7593460  57.9484987
  61.5714931  22.3532629  58.2079506  86.1505222   0.4777308  54.5607615
  85.9119701   0.1589956  55.4312420  85.3328991   0.4515192  54.0637302
  91.1731625   9.4850743  82.6210785  90.4165649   9.9799448  82.9355621
  90.8565998   9.0358597  81.8373489  32.9709554  24.4315934  40.6521273
  32.5271368  24.0940332  39.8741102  33.8630795  24.6156144  40.3580475
  20.4868780  98.7772285  52.4837351  20.6585251  98.0766391  51.8544960
  20.3735100  98.3255696  53.3200264  25.5086160   0.9070443  30.5793619
  24.5776343   0.8870233  30.8009624  25.9073520   0.2602588  31.1615229
  54.0092134  20.6628180  39.5822549  54.3581486  19.7881877  39.7540045
  54.4643402  21.2289262  40.2056456  47.0109415   1.8860227  47.8831291
  47.1263266   2.4198271  47.0970154  47.9010439   1.7258176  48.1966305
  93.0597496   2.4602377  71.8817234  93.5763168   2.6121911  71.0903406
  93.6344147   1.9446170  72.4475241  82.4593258  41.2202454  53.1329632
  82.8123665  40.3353405  53.0405188  83.2271957  41.7689848  53.2926273
  18.0145012 105.7426291  58.6866999  18.9498650 105.5538168  58.6113644
  17.6785933 105.0607031  59.2683983  28.3456206  10.9398746  46.4481688
  27.4990392  10.6823528  46.0831833  28.4293914  10.4209590  47.2481298
  73.4192514  15.2370751  34.7728682  74.1061640  15.7961845  34.4098520
  73.3923626  15.4636419  35.7024813  92.2515583   9.1137826  74.2959213
  92.1803665   9.9994498  73.9398909  93.1863499   8.9986914  74.4666386
  45.4239355  98.5306668  70.1871395  44.8048483  97.8480624  70.4460144
  45.8109270  98.8278567  71.0106373 102.5427009 106.5028241  39.5239902
 102.6850391 105.5578207  39.4697618 101.8636728 106.6804981  38.8731551
  11.9239317  68.1005239  60.9660387  11.8023621  68.6260175  61.7568016
  11.0458647  67.7869081  60.7495308  12.4254166  89.4720601  64.2673349
  11.7506110  89.6963691  64.9080801  11.9978033  88.8525652  63.6760616
  32.8398538  44.4221735  50.8533478  32.2796226  43.6743212  50.6457710
  32.2386670  45.0845098  51.1941099  37.0097494  16.3708675  75.3486204
  36.3214874  15.8312321  75.7376194  37.8003359  16.1384439  75.8356333
  46.5900183  36.3322973  48.1632996  45.7811403  36.5866852  47.7191925
  47.2753382  36.8282318  47.7153969  17.4261272  13.6950505  57.4181938
  17.1481240  14.5754671  57.1655846  17.7192068  13.2926214  56.6006470
 114.8495556  69.0167426  17.5849688 115.3402162  69.8292636  17.4613070
 114.1521932  69.0560912  16.9304705  26.3244139  57.7478170  38.3116341
  25.9097515  56.9488954  37.9860377  26.9097410  58.0191564  37.6045275
  47.0185375  18.5000837  57.4399519  47.7623510  18.9592457  57.8300047
  46.9657850  18.8438118  56.5481520  36.4153910  12.3041618  56.2130356
  36.6653085  12.7693129  57.0114136  36.0013580  12.9719865  55.6663942
   1.0856353  96.4585542  57.8579521   0.1733743  96.3371455  57.5947571
   1.1812531  95.9222256  58.6449957  60.3434324  19.8521709  44.5393753
  60.6060553  20.7198024  44.8467398  61.1683607  19.3847382  44.4081020
  48.4239292   4.3370351  53.0999470  48.8297987   4.0960574  53.9326715
  47.9220819   3.5627779  52.8451777  39.4714499  25.0740027  46.8571138
  39.1695976  24.9158311  45.9626341  40.0086403  25.8636165  46.7925119
  43.9017725   3.5625401  53.2161617  44.0575266   4.3472397  52.6905966
  42.9761267   3.3616486  53.0781126  42.1087694   4.1670856  75.6511307
  41.4384747   4.3922460  75.0059652  41.6149044   3.8997617  76.4262867
  50.2391720  32.8578305  51.5499783  50.7689285  33.4897017  52.0361137
  50.2486420  32.0694637  52.0927668  35.9186875  86.9967102  37.6582670
  35.5124508  86.1453342  37.4959087  36.3090931  86.9137930  38.5282922
  50.9890162 102.5812434  43.0871916  51.7935358 102.0935421  42.9107666
  50.6984793 102.2628640  43.9418554  76.5776205   2.7246574  16.7225397
  76.3177252   2.3387700  15.8860123  77.1292400   3.4689859  16.4818680
  76.7255211  25.3018928  51.3068676  75.9929514  25.4407072  50.7066154
  77.5052834  25.4166627  50.7636976  26.8850470  23.7145996  43.7840652
  27.4561834  24.4818354  43.7468624  27.3053455  23.0750299  43.2091475
  65.0170755  12.3544991  90.5541229  65.0743532  13.1761074  91.0418892
  65.4425955  12.5424385  89.7175598  38.7527919  25.7520103  49.6733093
  38.9962745  26.6586494  49.4863510  38.9283490  25.2836967  48.8571644
   9.3840252 100.4241692  43.6432695   8.9259993  99.8966353  42.9889393
  10.0154291 100.9367179  43.1384420  41.9827843  15.1168716  33.8665748
  42.5857019  15.3252745  34.5802212  41.6893482  14.2251670  34.0536308
  19.9279380  16.1071682  48.6605215  19.1864121  15.5115283  48.7681532
  19.6275008  16.7499959  48.0180693  73.9703465  15.9659290  81.0898972
  74.3600655  15.5754280  81.8721104  73.7674427  15.2199411  80.5254841
 112.8389860  97.0779383  16.8326414 112.5333429  97.7767491  17.4109817
 112.2331954  97.0980334  16.0917997  32.5892591  28.3503842  32.6929736
  33.5204029  28.2000518  32.8560877  32.5331497  28.5046697  31.7499566
  56.6324997   2.8190324  78.1691837  56.3743496   3.1626087  79.0244865
  57.5891209   2.8009757  78.1971216  34.1654277  15.1934087  28.1851220
  34.1787219  15.8541656  27.4926949  33.3803463  14.6755779  28.0069995
  57.5901794  17.7027225  42.1347094  58.4517908  18.1071103  42.2363091
  57.0951462  18.3245504  41.6013193  37.8732085  36.5164232   3.3165348
  37.6588416  36.1611032   4.1791034  37.1172810  36.2962413   2.7721798
  47.0848131  48.8189745  57.2668314  47.0683622  48.2557011  58.0405760
  46.4509630  48.4229946  56.6687870  87.8385925  28.2589841  33.2189631
  87.9676056  29.0112162  32.6412654  88.5362911  28.3344722  33.8699245
  63.9921999  10.5502570  30.8898401  63.9463997  11.3773751  31.3694310
  63.9567137   9.8770773  31.5693998  51.0253477  34.9840593  28.6512256
  51.3174391  34.4395351  29.3822575  50.3135014  34.4851828  28.2504439
  21.5398346 101.4103191  53.1926775  21.2716519 100.5019134  53.0544472
  21.2750374 101.8627410  52.3917818  67.4727058  38.1950760  45.5239677
  67.1038198  38.7210107  44.8143578  67.8637934  37.4401546  45.0842285
  14.1371476  97.2270631  50.4146624  13.4807383  97.4576782  51.0720634
  14.4183575  96.3445818  50.6562853  79.8925495  28.0571914  14.6440494
  79.2782402  27.7988172  15.3311431  79.3940639  27.9692721  13.8316381
  60.4457045  36.9456029  53.8802576  60.3248644  37.8794789  54.0520191
  60.5121708  36.8839717  52.9273558  64.1941404  22.8532100  26.8591833
  63.2500029  22.8131437  27.0115972  64.5539331  22.1491075  27.3986459
  82.9823875  10.1642394  27.0693636  82.2374249  10.3257465  27.6483202
  83.7494946  10.2591360  27.6339602  58.4045601  27.3827028  57.4341154
  58.0147934  26.8557453  56.7365313  59.3334913  27.4298954  57.2080851
  33.9515948  50.9732819  61.6614771  34.8033929  51.1415768  61.2585545
  33.5131049  51.8241358  61.6588688  38.4987879  38.2973957  34.4363618
  38.9386368  37.5089836  34.7544360  38.0321956  38.0110931  33.6511517
  24.8689461  17.5620544  57.1324301  23.9806342  17.2881842  57.3607445
  25.3685355  17.4533236  57.9416418  47.8084612  54.3934441  34.1348529
  47.2607088  53.6136341  34.2248511  48.5431051  54.2399788  34.7289705
  52.4987173  19.5366859  32.9032779  53.1759167  19.1747296  32.3317719
  51.7046833  19.0570211  32.6673388  75.0208139  28.2947445  34.2374539
  74.8983383  27.3752260  34.0014076  74.6841764  28.7819576  33.4854341
  38.8131844 106.4530014  48.0789995  38.6238324 107.2180959  48.6221457
  38.1688772 106.4955183  47.3723936  41.5655375  26.1400270  52.6917267
  41.1209154  25.2926445  52.6696825  41.4009047  26.5194178  51.8284798
  46.9710588  16.0028362  38.4255147  46.8604565  16.1994970  37.4952865
  47.0139170  16.8605781  38.8482118  56.9335699   0.6326815  59.5207405
  57.6073790   1.1228506  59.9918556  56.6239023   1.2381047  58.8470936
  40.6751490  25.4482245  33.4782171  39.9714899  25.8052301  32.9363322
  41.2886953  25.0644231  32.8517246  46.4359652  96.4208590  45.7294512
  46.5483176  95.4741120  45.8147812  45.5715643  96.5245842  45.3315973
  29.6141696  52.8701019  18.2009614  29.0428829  52.3569107  18.7723625
  29.9521708  52.2362137  17.5683653  76.8246460  24.8512840  35.8119869
  76.4214134  24.7565055  34.9490547  76.9997692  25.7888460  35.8928561
  26.8966185 101.8087875  44.9134541  26.4816414 101.1292415  45.4447222
  26.5014063 102.6256441  45.2180624 113.4779085  70.7779412   4.3272513
 114.0756048  70.4217665   4.9846190 113.8973154  71.5874963   4.0357989
  93.0734348  12.1200538  42.1141100  93.2918644  11.3751173  42.6740980
  93.8720036  12.2851753  41.6128635  19.2749630 102.3377692  59.9446440
  19.8199402 102.5398248  59.1841125  18.4185540 102.7079760  59.7307730
  35.9121537  19.8334312  76.4186716  35.7504869  20.0231671  75.4944992
  35.5860019  18.9418292  76.5407515  69.3914652  47.6793766  53.4745741
  69.0719128  48.5075855  53.1165361  68.8625717  47.0104980  53.0397129
  68.6360645  40.7150555  37.3769140  68.8558197  40.5781984  36.4553881
  67.6858187  40.8301163  37.3820066  62.9714298  50.8554029  13.3775258
  62.4692440  51.5535259  13.7978423  63.5461473  50.5247736  14.0678978
  65.0413370  17.2033942  44.4915867  64.1151333  17.1709514  44.2521620
  65.0949669  17.8984833  45.1474857  56.0499430  36.1141014  57.0770597
  55.7836819  36.1477351  56.1582518  55.4238749  36.6800237  57.5287247
  69.7004223  37.2644448  51.4350462  70.2340698  36.4709711  51.3920355
  69.8855209  37.6309943  52.2996950  55.0793600   7.2719145  35.5302095
  54.5574474   7.1945524  36.3288665  54.5880556   6.7774421  34.8741961
  41.0620213  27.3427367  46.3532495  40.9046030  27.5683856  47.2700548
  41.5142822  28.1056046  45.9930754  83.7424755  20.3443527  52.8339481
  84.3867397  21.0428834  52.9488707  84.0845108  19.6155083  53.3516645
  46.2705755  22.8203344  46.4950991  46.5452719  22.1591926  45.8597565
  45.3818512  23.0547333  46.2277842  86.1641121  15.8442032  60.2222252
  86.5296459  16.1752963  59.4018650  85.4374790  16.4361298  60.4168177
  71.8258095  46.5926647  58.0277872  71.5552616  45.6797647  58.1260109
  71.5545225  46.8287516  57.1407127  51.3668299  17.3387599  39.8807025
  51.1527157  17.5997388  38.9850020  51.2359810  18.1326258  40.3992462
  82.3385620  17.3139977  49.2834711  82.8028488  17.8857148  49.8948717
  82.0226002  16.5906096  49.8248672  84.5544338   8.9455986  62.5650549
  84.2687130   9.7773635  62.1872139  85.0990772   8.5483569  61.8855000
  68.0335999   9.5856607  69.9910641  68.2758331  10.4987693  69.8368311
  67.4369764   9.3717062  69.2737770  41.7817163  45.3728867  11.8818200
  42.2913313  44.5830011  12.0624018  41.1128283  45.0891209  11.2586832
  55.0303602  44.4500017  37.1678019  55.1911879  43.5205317  37.0051408
  55.7445240  44.8993349  36.7158055  64.5107651  14.1063392  39.6732283
  64.1638279  14.9913204  39.7858191  65.4112720  14.2380404  39.3766236
  51.1668634  21.2440538  37.7767658  51.1595821  21.8355489  38.5293055
  50.4350138  20.6474638  37.9339528  71.3500261  22.3514366  29.6947861
  70.6981707  21.6827416  29.9049330  71.0252142  23.1447554  30.1206684
  14.3364703 108.8245430  20.7629991  13.6784159 109.5152047  20.6843710
  14.0971552 108.3555902  21.5624022  92.0801926  15.7409775  40.7186937
  92.6077557  16.0362864  41.4607859  91.4807034  15.0953519  41.0928679
  46.1605059  95.2037739  25.2900982  46.3990771  94.4205605  24.7942233
  45.2815043  95.4239785  24.9817348  84.4507027  18.7632000  59.3572044
  84.8390579  18.9848161  58.5108614  84.0144825  17.9242945  59.2082596
  63.1718588  27.8451490  42.1654797  64.0730715  27.5426269  42.2773933
  63.0457354  28.4860849  42.8651381  65.4733658  16.6144311  25.0986528
  65.0266457  16.8185198  24.2770576  64.8114634  16.1680102  25.6266952
  92.6387978  50.0707245  25.9627652  92.2076225  49.9297714  25.1198816
  92.4162579  50.9714937  26.1979651  40.4853487  22.6664877  26.4767575
  40.3061581  22.5665736  25.5418038  41.0539865  23.4345698  26.5309048
  60.4951715  12.2485018  69.2661190  61.1208010  12.6732111  69.8530149
  61.0161829  11.9932938  68.5047722  88.3751297  12.0524275  35.3675270
  87.9567719  12.6938844  34.7932887  88.3898449  12.4738717  36.2268281
  35.1948166  26.4349580  46.7846489  34.7906327  26.5021944  47.6497173
  35.9198356  27.0594120  46.8098402  40.1348400  26.8961310  39.4099450
  40.1088095  26.0518193  38.9597321  39.2149734  27.1329093  39.5283127
  78.4792805  10.6530809  54.7301626  78.2640314  11.0929930  53.9077425
  77.8266048  10.9750068  55.3519440  37.1383368 105.4557943  41.4123011
  36.2568365 105.3761017  41.7767715  37.2019945 106.3704025  41.1372185
  52.6942062  39.3599582  67.5159645  52.2445107  38.7392044  68.0892611
  51.9939184  39.7615933  67.0016479  57.4098206  46.3706827  25.9778762
  57.4485064  45.5328560  25.5166006  58.3197069  46.6654921  26.0157251
  80.2673531  40.7760286  26.6964316  80.3897858  39.9278235  26.2700582
  80.8092880  40.7286406  27.4840140  67.0628023  23.7429857  52.2543573
  67.4451923  24.1426206  53.0355787  67.5941801  24.0752244  51.5308380
  56.3948727  28.9430094  45.1783705  56.2596750  29.0918398  44.2425251
  57.0441246  29.5983529  45.4337740  57.5355053  14.1008103  28.9165735
  57.8432369  13.2140672  29.1042423  56.8529224  14.2604184  29.5683718
  18.6528802   4.2783856  44.6363211  18.4796238   4.0153751  45.5402231
  17.7940977   4.5174292  44.2876339  40.1009655  65.9721327   4.1685590
  39.8385239  66.0128736   3.2489410  39.5302796  66.6021252   4.6086299
  39.3545567 105.3067919  10.3390491  39.1800772 105.5486422   9.4294912
  38.5640799 104.8460089  10.6202233  66.7491674  44.4271898  19.6102023
  65.8696508  44.7209024  19.8477364  67.0109034  45.0081062  18.8958740
  56.2825298  19.9142528  49.4304132  56.2984371  20.7779336  49.0180588
  57.1947765  19.6247482  49.4152069  78.2544851  31.4210033  26.9674182
  77.7765036  30.6496716  27.2720671  78.6312485  31.7986608  27.7621841
  46.0349751  25.6814861  28.0888867  46.7006445  25.5871844  28.7702274
  46.1706781  24.9271941  27.5154233  63.7202597  15.7822633  77.3413897
  62.9281425  15.5357957  76.8638611  64.4111490  15.7755291  76.6789293
  66.7727995  32.8058410  46.7634773  66.8631887  32.2972727  47.5693417
  67.4799824  33.4495187  46.8058825   6.8557154 106.7051836  40.8643436
   7.1671854 107.6073020  40.7908440   7.6516138 106.1853995  40.9766006
  66.4311600  45.9423733  40.1570797  65.5383730  46.1335897  39.8696637
  66.9205332  46.7427874  39.9671268  59.5335102  24.4384503  31.5160847
  59.4604635  23.9128041  32.3126960  60.3900766  24.8600793  31.5850449
  61.6083002   7.3743343  48.0676126  61.9575071   6.7753637  47.4076700
  61.1082792   6.8128574  48.6600256  41.4877306  93.1030690  57.0894241
  41.0613095  93.6429738  57.7549314  40.9318291  92.3270952  57.0182562
  42.9033518  18.5122538  61.4607620  42.4437189  19.2965579  61.1610317
  42.4674416  18.2775581  62.2799873  63.6347675  35.0999856  48.5243893
  64.0301514  35.8790731  48.9154434  63.7676382  35.2108288  47.5829554
  77.4185038  35.8435893  50.3253412  77.6411247  34.9136353  50.2822733
  76.5105629  35.8866644  50.0253057  76.3796473  12.0554054  56.4193439
  76.3665581  12.9698324  56.1367083  75.5397892  11.7020297  56.1260986
  49.1025352   3.8035059  50.1590252  48.6008787   4.1587463  49.4252825
  49.4351053   2.9652169  49.8382473 112.7379895  75.3963637  61.2010098
 111.8863893  75.8061718  61.3528776 112.7366877  75.1797461  60.2686405
  53.5927296  54.3901825  25.7687116  52.9140854  54.1843987  25.1258063
  53.9685631  53.5408974  26.0004306  64.4665718   4.9009103  75.6316423
  64.7958517   5.5821836  75.0454092  65.2276564   4.6448222  76.1526060
  24.4535327  34.8487258  61.8396711  24.6801543  35.0619245  62.7448893
  23.6951017  34.2693496  61.9127369  70.6442833  22.7271938  66.6581774
  70.4815197  22.7148533  67.6013565  69.7730207  22.6835728  66.2641811
  95.8308601  12.1767449  41.7866135  96.1716843  12.7765214  42.4501991
  96.5746403  11.6161549  41.5657997  85.1680756   7.3116106  58.7540388
  85.6988907   6.6410661  59.1839647  85.3242970   8.1052965  59.2657900
  46.2725149  95.8801090  54.8024654  46.6388975  95.0618529  55.1378012
  46.1191260  95.7106768  53.8729525  56.5936327  44.5292282  44.5199585
  56.6556072  43.7330055  45.0476122  56.0784101  44.2706633  43.7558126
 114.3059921  49.6523046  34.5929003 114.8378468  49.0966082  34.0231991
 113.5467815  49.8858213  34.0587664  57.9676151  26.1539388  46.7313337
  58.1188965  27.0885825  46.8719959  57.9349375  26.0571694  45.7796001
  46.9374084   4.8952886  34.3193316  47.7338314   5.4164374  34.4210362
  46.3723850   5.1785654  35.0381732  57.8302240  34.9846530  50.9884930
  58.5764074  34.5917845  50.5356169  58.0499840  34.9147058  51.9174910
  69.0411472   7.8858435  21.7623639  68.2723618   8.0692446  22.3023319
  69.6477032   7.4392813  22.3530459  53.9053583  22.0018196  17.6153326
  54.1797733  22.3462915  16.7654705  52.9921389  22.2754955  17.7011490
  38.7789822   1.9052120  20.5939317  38.7804198   2.0327237  21.5425992
  37.8574014   1.7733279  20.3713870  16.7103516 107.6572012  44.3028450
  15.8504139 107.9926000  44.5563221  17.0572792 107.2596078  45.1014614
  31.1689615   4.5161283  61.8399906  31.6728663   5.1932096  62.2915125
  30.4017711   4.3780443  62.3954964  28.6670089  34.7405839   0.9938393
  29.3054032  35.4536152   1.0102373  27.8168702  35.1803899   0.9856749
  41.6092110  33.0628300  45.3295565  41.4582014  32.2925949  44.7816849
  42.4544239  32.8975940  45.7473469  63.5915661  36.8257046   8.1126440
  63.2317638  37.2667408   8.8822287  62.8228855  36.5524292   7.6119673
 109.4523168 103.0663496  51.1639881 108.9233256 103.0908781  50.3666210
 109.1127921 102.3172676  51.6537142 113.3454610 109.5138021  62.9257059
 114.1135837 109.7746223  63.4338331 112.6489855 109.4198788  63.5755777
  39.6220303  23.5044980   4.8093066  38.9983916  22.7868652   4.6983650
  39.1492963  24.2810774   4.5098421  61.0752296  11.9622421  54.8662663
  60.3744793  12.3478186  55.3921080  60.7660532  12.0369828  53.9634609
  33.1454158  36.8115902  33.3128357  33.6112809  36.0732532  33.7053394
  33.3174229  36.7318583  32.3745990  25.8146797 108.3560345  11.7761409
  26.0414969 107.5140079  12.1708262  26.6138541 108.8777882  11.8491173
  35.8189964  24.0331721  85.1053429  34.9840426  23.5659242  85.1329708
  35.7342768  24.7146535  85.7721615  55.2141714  30.0354052  52.6761818
  54.6182394  30.4281235  53.3140469  55.0430489  30.5116343  51.8636847
  44.4981050  31.6398883  17.6757276  43.8864183  31.5726018  16.9425523
  44.1735172  32.3780417  18.1914818  34.7834717 105.1982575  42.8203154
  34.0132462 105.7190358  43.0478621  35.1509796 104.9331745  43.6634636
 103.0415440 100.4256385  50.9971142 103.7641407  99.9452566  50.5929852
 102.6032806 100.8595013  50.2650452  41.4416361   2.5942731  52.0826769
  40.7083750   3.1869525  52.2478580  41.1668253   2.0787951  51.3243914
  58.3892905 102.9405379  26.7364860  58.0422198 103.8292127  26.8141460
  58.1380354 102.5128876  27.5551534  58.0216551  31.0437155  40.7626677
  58.0109215  32.0008302  40.7695818  58.4084654  30.8146286  39.9176049
  93.4875298  40.8508825  41.6330290  93.6044216  40.6469059  40.7051468
  94.3780899  40.9240294  41.9762182  92.8673649  13.3959985  18.6642921
  92.8511524  14.3525541  18.6331558  93.5465813  13.1887352  19.3061185
  71.2756920  36.1762404  54.8876715  71.3717461  36.8625069  55.5480051
  70.9360456  36.6312218  54.1170454  94.4241524  37.1326041  42.3420525
  95.0466919  37.8568220  42.2774172  94.9687576  36.3457894  42.3184729
 114.6429873 106.5528687  44.5014191 114.6547056 106.3089608  43.5758924
 115.5661059 106.6497978  44.7352695  73.2596540   0.1444588  43.1652403
  72.7842855   0.8766085  43.5579348  73.4445667   0.4310857  42.2708750
  79.6666765  25.7346773  37.4571609  80.0261497  26.4115882  36.8837500
  79.2623520  26.2199497  38.1763697  35.9399223  12.0912790  74.7545815
  36.1072087  13.0147171  74.5661449  35.1066279  11.9056320  74.3216991
  54.2044973  39.3901610  43.7400723  54.6697998  38.5843277  43.5156679
  53.3043289  39.1091585  43.9043045  60.0925684   9.6543401  16.3681018
  59.3184566   9.0919697  16.3412070  60.4951572   9.4672847  17.2161388
   2.3150978  34.9810123  65.6072092   2.3916493  34.2551756  64.9879122
   1.9633160  34.5811534  66.4025688  77.4196291   0.5252373  42.8794098
  77.7296257   0.4180446  41.9801664  77.6578426   1.4233348  43.1094217
  97.8395844  16.2355316  48.5478115  98.2959652  15.4141605  48.7303019
  98.3568382  16.9023919  48.9994574  92.9429054   5.2332389  29.8384786
  93.6825275   5.5802983  29.3397355  93.3143997   4.5130005  30.3478718
  49.3583298  30.8425760  41.6066360  48.5679674  30.3931022  41.9058561
  50.0780535  30.2901721  41.9117308  72.8551435  19.2576373  51.7163944
  72.0968676  19.8142505  51.5391159  72.8999329  18.6672294  50.9643030
  48.9464569  56.2861872   8.7334442  48.8959312  56.6019392   9.6356523
  48.8532543  57.0743179   8.1982863  18.4458767 107.9844365  48.0449533
  17.9255329 107.3940302  47.5000715  19.2581450 107.5053731  48.2091093
  65.5802155  29.0247679  18.6992204  65.0683260  29.6391749  19.2252481
  65.1065445  28.1960344  18.7704170  52.6988411  27.8143382  33.4498191
  53.0127335  27.1902037  32.7954793  52.2197294  28.4708381  32.9441595
  65.4866171  17.5312579  87.9929066  65.6052208  18.4797108  87.9419041
  66.3749647  17.1823871  88.0661011  76.3150454  22.8192139  18.7810135
  76.9128132  23.0630946  19.4877172  75.9018707  22.0110559  19.0849853
 102.4797916  32.2033811  38.4364581 103.2532692  32.0397592  37.8968358
 102.3596478  33.1523633  38.4013557   2.3931490 104.3201064  37.3280168
   2.5294863 105.2340462  37.0783019   2.3527752 103.8480311  36.4963031
  75.5780411  16.9472075  48.9141846  75.2659035  17.5004411  48.1981325
  75.1025677  16.1236167  48.8053036  37.9937887   8.0960780  22.5244713
  38.4223413   7.5653875  23.1959915  38.6136055   8.8034701  22.3465490
  34.2835461  89.7938394  43.1395483  34.7590672  90.5850958  42.8865147
  34.8319708  89.3894958  43.8118315 105.3537560  12.8636229  22.9634809
 104.9163151  12.9623771  22.1178317 104.9252415  12.1094191  23.3681774
  71.1299610  21.3743567  57.0533323  71.3355923  22.1089220  57.6315737
  70.2061272  21.1885619  57.2214031  35.3631258  17.0579219  13.0331111
  36.0174704  16.7352271  12.4134862  35.8098245  17.7568114  13.5108626
  25.5310392  38.7114096  51.4692163  25.3356051  38.1460309  52.2164679
  26.2514162  38.2714033  51.0179043 112.2179080  90.1273298  51.2452602
 112.5249673  90.4972314  52.0729780 111.7028213  89.3622326  51.5012789
   6.0913693  92.0643389  17.2911072   5.1569353  91.9478142  17.1193838
   6.4349543  91.1736607  17.3609030  58.4471226  11.5431488  62.8151131
  57.7533293  12.1159375  62.4883127  58.5945559  11.8347871  63.7148046
  68.5532093  15.9776866  53.6594296  67.9118013  16.4206004  53.1038666
  69.3738937  16.0347581  53.1700897  52.7807140  27.9752755  37.8404737
  52.6064062  28.9162970  37.8223443  52.4466038  27.6536274  37.0031285
  34.0633249  30.6697607  37.8970218  34.0000510  30.8324838  38.8381648
  33.1547189  30.6412601  37.5972652  72.4906826   8.4875590  31.7329431
  73.0281734   9.1473460  31.2947488  72.6300430   7.6887465  31.2243080
  37.9784536   0.0328638  18.6026561  38.7125516  -0.1166837  19.1984463
  37.5077534   0.7740484  18.9838648  69.4702673  51.8992424  58.6811399
  69.4281387  52.8116894  58.9673233  69.1799593  51.9205809  57.7692747
  20.5927073 104.5335155   9.9735457  20.9600006 105.1212721   9.3133438
  20.1059424 105.1096552  10.5629170  77.9183769  22.8384328  44.4475126
  77.7950907  23.6128020  44.9964952  78.0710602  22.1263242  45.0686598
  20.8772635  40.8912659  67.5902081  21.5835571  40.9340525  68.2348442
  21.3202286  40.9613943  66.7445755  65.6705427  41.7339277  13.1246173
  65.3172636  42.0479918  12.2922778  65.4913092  40.7936621  13.1213474
  86.8645954  19.2838848  52.1719360  86.7620564  19.9386716  51.4813042
  86.6767025  19.7584319  52.9817057  37.8684235  15.0753617  40.3420448
  38.0203605  14.7215199  41.2183714  38.2476306  15.9538174  40.3693867
  68.8166142  40.1415110  55.6258583  68.5406446  40.6709671  56.3740206
  68.0212879  39.6875072  55.3473473  34.7258520  57.4128103  23.9354610
  35.1841354  56.6251421  23.6425710  34.7837281  57.3824453  24.8904276
  39.7025537   9.8816818  40.5339432  40.2276182   9.2201120  40.9843493
  40.0235891  10.7159889  40.8761358  50.9590244  17.4284613  54.4488430
  50.0326967  17.2815633  54.6400738  50.9625769  17.8445470  53.5868120
 108.5208035   9.6729940  37.1863675 109.1209888   9.8738545  36.4682698
 107.6692390   9.5633674  36.7632294  26.1346912  30.5738354  27.6005816
  25.7295895  30.1707244  26.8327093  25.8776808  30.0104523  28.3304977
  48.3273363  35.4810691  61.7346191  49.0587568  36.0746098  61.9048071
  47.5799656  35.8909059  62.1701670  62.1030413  93.5822689  45.9550333
  62.5311171  94.3173575  46.3939285  62.3216616  92.8216242  46.4934158
  98.9298738  50.8381899   0.0836486  99.4258083  51.3777165  -0.5321294
  99.4056381  50.9193848   0.9102649  69.5004736 102.4801593  27.8461599
  69.9101340 103.3451789  27.8338265  68.5809599 102.6476472  27.6395988
 106.9516659  52.1998024  30.6082702 106.2576199  52.8460979  30.4785442
 107.7617645  52.7087164  30.5768704  19.6610438  89.3272280  38.6176443
  20.0265156  90.1287042  38.9922142  19.9049174  88.6401247  39.2378449
   9.1265427  86.5384650  19.9824488   8.5189711  85.9238099  20.3938937
   8.9141070  86.4972925  19.0500295  72.1490383  -0.1064666  49.2666388
  71.9176006   0.6728836  49.7718906  72.4802494   0.2359588  48.4364128
  53.6641455  52.8851652  28.5594153  53.4628582  52.3903608  29.3536973
  53.5289192  52.2601652  27.8471541  48.2291651  47.6856947  34.4621134
  48.7282944  46.9514894  34.1042805  47.3137569  47.4456215  34.3185186
  83.6816883  44.7855330  37.2800636  84.3005562  45.1336241  36.6381383
  83.2213879  44.0871000  36.8147159  57.7333260  19.1225111  53.3216858
  58.4670544  18.6164141  53.6705971  58.1447554  19.8226118  52.8149128
 102.6189995  14.6483147  40.3945446 102.3486233  15.5651355  40.3438854
 102.0659828  14.2730284  41.0797882  75.7333660  52.7151060   4.8537633
  75.8975124  51.7743540   4.7884148  75.0428343  52.8828669   4.2124751
  89.3834591  52.2206640   5.0755084  88.9805222  51.8688917   5.8693117
  89.9351597  51.5088034   4.7512865  56.4723063  28.6588812  34.6216726
  56.4794970  27.8704619  35.1644182  56.5780878  28.3348870  33.7272072
  88.8345623  33.2768512  34.0831542  89.1690826  32.5924826  33.5035276
  89.5695972  33.4816313  34.6611047  91.4822292  44.0860891  43.4056664
  92.3344898  43.6917543  43.5910988  91.6503334  45.0283957  43.4005594
  81.7349052  11.2067211  15.6547987  82.5082588  11.2117493  15.0907695
  81.7636967  12.0492053  16.1082542  48.4693800  95.6152677  68.4732866
  48.4424673  96.5682148  68.3872747  47.6424490  95.3897905  68.8994026
  80.3972912   6.4930624  22.6414227  79.9322987   7.0940739  22.0593596
  79.8316765   6.4183617  23.4100151  70.0575066  34.2291236  36.8912148
  70.1109505  35.1654840  37.0825386  70.0494194  33.8090110  37.7512574
  85.7378197  21.2690878  76.7872715  85.7649612  22.1554923  77.1475267
  86.2590122  21.3201237  75.9860373  58.9486599  39.2727637  35.5767632
  59.9052000  39.2991328  35.6006861  58.6933327  40.1359081  35.2511573
  59.9367237  30.4573655  55.9608603  60.2974319  30.5020332  55.0753498
  59.0696669  30.0681758  55.8469391  85.1776886  32.9022217  52.5131702
  85.7486534  32.1436906  52.6350737  84.3451595  32.6410484  52.9067659
  58.4324169  56.5195656  21.4057112  57.9164505  56.6974211  20.6193423
  59.2694235  56.1941147  21.0744524  55.1917267  27.4152851  38.9396930
  54.4771862  27.8178191  38.4460998  55.8737278  27.2562099  38.2871580
  68.7821245  27.9112720  48.4334707  69.4861555  27.7868724  49.0699482
  69.2338276  28.0659699  47.6038551  86.2994671  14.6105945  46.9151211
  86.5917206  14.1622519  47.7087259  85.3828907  14.8271239  47.0860958
  97.8029442  42.2167444  42.2525072  98.0051994  41.7274666  43.0499601
  98.0767441  41.6383266  41.5406799  58.2113075  22.5463629  30.1345134
  57.9759121  21.9434881  30.8397532  58.5551262  23.3183098  30.5840898
 110.9125448 105.1281851  30.2036881 110.4901648 104.3920987  29.7609663
 111.7610885 104.7845941  30.4832411  37.0477806 108.2311163  40.9031439
  36.3686167 108.8538919  41.1622143  37.8700863 108.6653527  41.1300564
 105.5311012  15.4171956  68.9068794 105.7742119  14.5148444  69.1139841
 105.4827309  15.8534670  69.7575045  37.8476607 108.8744444  30.0418186
  38.6784731 109.2111344  30.3774047  37.2034346 109.5384470  30.2873898
  80.1878357  30.0461769  29.2982888  80.5892372  29.6348476  30.0637412
  80.0258636  29.3214822  28.6942911  84.7302723  47.2533464  39.1304541
  84.7242355  47.4392319  40.0694132  84.0768433  46.5628433  39.0187860
  89.8437786  31.8357968  31.7916846  90.4678631  32.4701500  32.1443129
  90.1952648  31.6068649  30.9312940 102.1833420  55.3846788  51.7954206
 101.7154312  54.6050215  52.0944691 102.3369884  55.2290821  50.8635330
 106.1386204  48.9066935  55.1688623 106.5217113  48.2373285  55.7358122
 105.6419945  48.4125376  54.5166397  50.8590651  23.9927578  34.9652100
  50.0723219  23.5659814  35.3045201  51.5439367  23.3284688  35.0419998
  74.6502733  61.2508440  44.5240259  74.1740704  61.5039301  43.7331963
  74.8376942  62.0789146  44.9660730  53.4544563  14.6333480  69.4739151
  52.6072264  14.9258423  69.8098993  53.9077187  14.2820787  70.2403307
  93.1304741  18.4460378  36.3122320  92.8804970  19.3102276  35.9852457
  93.5500050  18.6208510  37.1546483  59.5722628  78.9988899   6.3762593
  60.0401211  79.3945360   7.1116531  59.3091679  79.7413635   5.8324355
  76.2729311  16.4567864  44.8858023  76.7919588  17.2538614  44.9931097
  76.0955572  16.4111459  43.9462852  66.1147547  46.5351057  30.9686971
  66.4379978  46.5145111  31.8694329  65.6534147  45.7033968  30.8607149
  61.4676428  48.5640764  39.6582389  61.5749836  48.8566303  38.7531829
  61.2945938  47.6253033  39.5875764  63.4837437  34.2255306  53.1134319
  62.8662443  34.9333215  53.2977057  62.9385281  33.5125470  52.7808285
  28.4233832  23.7552524  83.2791042  28.4376502  24.4313145  83.9565754
  29.2382669  23.8850760  82.7939892 113.4584713  39.3952990  40.2256918
 112.5908184  39.0743876  39.9798751 113.3394146  39.7597909  41.1027336
  99.9527073  31.0642385  61.5554380 100.1332474  31.7242074  62.2248220
  99.0271378  30.8505321  61.6732836  75.9953642  18.7675118  38.0135846
  76.8298006  18.6065567  37.5730872  75.8712673  18.0043221  38.5778308
  80.8377457  23.4775066  46.7049837  80.5788994  24.2385936  47.2245789
  81.6228485  23.7625027  46.2374115  62.8234196  49.7376013  11.0499597
  62.8728199  50.2819300  11.8357694  63.6518812  49.8950195  10.5970848
  53.8611269  42.4625731  44.5697975  53.7965727  42.3320866  45.5158615
  54.2183352  41.6387510  44.2382145  90.4583740  34.3832064   1.8251173
  90.8793259  34.3333650   2.6833397  91.1828804  34.4906855   1.2088593
  54.7698116  34.0070868  38.6854410  54.5369148  34.9351525  38.6592340
  55.2925444  33.8689303  37.8955722  53.6474991  25.3314257  71.7712450
  52.8903818  25.4450870  71.1967134  53.4960508  25.9439492  72.4910450
  40.5661774  37.2664738  12.9498875  41.3563871  37.8064799  12.9638147
  40.4448700  37.0432353  12.0270228  87.1569633  17.1085227  26.5167856
  87.1482658  16.2814212  26.9985127  86.2590694  17.4335730  26.5827560
  84.2611217  24.9037313  54.4468927  85.1718044  25.1983500  54.4373512
  84.0387058  24.7831583  53.5237312  88.7076855  27.2784638  13.9005518
  88.1131268  26.6492724  13.4920788  88.6351776  28.0636430  13.3579004
 106.9092464  21.0155821  45.8049059 106.3256931  21.1697388  46.5478325
 106.5029049  20.2924514  45.3271961  61.1951065  55.6827211  21.5635395
  60.9661913  56.6023970  21.6978049  62.1139383  55.6239223  21.8253064
  85.1266861  22.5436521  65.8536386  85.7427979  21.8620610  66.1220932
  84.9893951  22.3878741  64.9192333  83.0916023  21.4209771  22.8462839
  83.9360332  20.9705162  22.8621697  82.5761509  20.9408116  22.1982217
  58.7316418  42.1279573  50.6386375  57.9108667  41.9098854  51.0802221
  58.4962130  42.8246355  50.0259066  96.4642143  69.9881601  55.0601768
  96.6618252  69.1957045  54.5609856  96.1190414  69.6667051  55.8930969
  93.4075928  23.9030695  36.5137029  94.0650558  23.7358117  37.1889782
  92.6463223  23.3921838  36.7888451  74.9066257  35.4920149  49.1262293
  74.0837097  35.9806371  49.1431713  74.6471071  34.5926905  48.9259720
  90.6841373  31.1132717  29.2772555  91.6320705  31.0032439  29.2028046
  90.3263474  30.6087446  28.5467267  86.5227509  20.4252529  19.2769229
  86.0097504  20.7565999  20.0139880  85.9101295  19.8780966  18.7854552
  87.4889851  33.6728573  69.2842054  87.5693989  34.1042423  70.1348972
  87.3805237  34.3910432  68.6607647 111.9008160  49.4126320  78.0259085
 111.8096161  48.5599422  77.6006556 112.1481133  49.2055941  78.9271355
  99.4579601  50.1615906  41.5017223  98.6869907  49.6533966  41.2495565
 100.0727272  50.0390053  40.7783556  80.4556084  12.5316858  19.4054472
  81.1995697  11.9294226  19.4104242  80.6690216  13.1703556  18.7251627
  64.9214315  40.9383249  28.6063123  65.2106953  41.7867470  28.2705522
  64.7827625  40.4055119  27.8232980  77.2729349  43.6844349  20.1857185
  78.1402874  43.7550116  20.5844045  77.3851299  44.0391922  19.3037939
  67.0200526  99.0738868  27.9717040  67.4337851  99.7813927  27.4772406
  66.3719355  99.5134961  28.5220790  43.5883713  39.9324799  12.1575499
  44.3348312  39.6977019  11.6062677  43.9503860  39.9826598  13.0422294
  72.6882505  34.1990542   6.9318122  73.4510040  34.7772980   6.9402099
  72.9705334  33.4231830   7.4161386  34.6399294 108.3034474  29.0319538
  34.1430174 107.5031938  29.2019582  34.7785794 108.6877322  29.8975945
 107.2406387  37.5206923  26.8837595 108.0793571  37.9311490  27.0942664
 106.6609478  37.7792072  27.6002479  41.1672306  18.0686367  45.2551508
  40.8986092  17.1994531  45.5527973  42.0688391  18.1593680  45.5635405
   9.9826227  79.8159694  34.6706748  10.3576838  79.6630048  35.5379462
   9.0711104  80.0524926  34.8422408  82.2126484  42.6189375  41.4484549
  83.0589294  42.7928495  41.0363817  82.4307442  42.1557951  42.2572565
 101.6602135   5.5427384  47.6457691 101.0372829   4.8286322  47.5106955
 101.7066383   5.6434453  48.5965252  89.4939137  24.0679479  41.6972876
  89.1307831  23.1845760  41.6338539  90.3899193  23.9825416  41.3715601
  61.2053299  28.6467719  51.2694454  61.9463110  28.0692220  51.0860968
  60.4338694  28.0952740  51.1393166  82.5934505  49.6157503  61.4850330
  82.4283028  49.7927141  62.4111223  82.5096703  50.4690456  61.0594749
 116.7635536  62.7565670  63.4961414 116.2544823  62.3148012  62.8164959
 116.1198330  62.9864359  64.1662264  75.5993176  28.3180523  45.0554991
  75.9382248  27.7565908  45.7527304  74.7241020  27.9747176  44.8756266
  74.9551964  37.3523951  44.1017914  75.3659582  36.7597818  44.7313261
  75.6429672  37.9799676  43.8796282  71.5592527  76.6759777  57.6206779
  72.4894714  76.4702749  57.7134418  71.1274815  76.1367893  58.2833099
  89.5541668  33.7356353  58.1051159  89.4184494  33.2842612  58.9382267
  89.1167927  33.1816649  57.4585438  75.3247261  43.9931440  56.0412598
  76.0839176  44.5494032  55.8667803  75.6805563  43.1050825  56.0722685
  75.4523468  17.9406166  68.0536509  74.9370909  18.4401572  67.4202442
  75.8348703  18.6041784  68.6277485  60.1246262  51.9731903  26.9340611
  59.5589733  51.8397760  26.1734891  59.6818495  52.6499605  27.4460793
  76.3334560  34.4739556  28.0475903  77.1733952  34.7918153  28.3788013
  76.3303614  33.5404301  28.2591414  58.3478451  46.2951994  39.7130990
  57.9126453  46.9562387  39.1747093  59.0870810  46.0014296  39.1806865
  68.6129093  53.9291573  24.5054483  69.4956207  54.2728138  24.6431041
  68.5919285  53.6867523  23.5796881  57.3103952   6.6088331  53.8801527
  58.2031488   6.2704057  53.9486313  56.8596268   6.2520152  54.6454763
  75.2380610  50.5968714  39.5811510  76.1511946  50.8582878  39.6998000
  74.7488213  51.4193296  39.6020222  50.9940720  18.6230016  51.9977140
  51.7032909  18.6868012  51.3580561  50.4397297  19.3821859  51.8172216
  81.4210033  59.1974926  56.3726425  80.6927204  59.0571594  56.9777441
  81.8728256  58.3541965  56.3419962  97.8399658  22.2470951  43.8026667
  98.0697536  21.7361999  44.5788193  97.1082306  22.7957654  44.0850735
 105.7015705  83.3341026  54.6536541 104.8010063  83.0287552  54.5442867
 106.1922741  82.5497723  54.8991394  80.0253010  60.5497169  52.3898554
  80.7102013  61.1600256  52.6630974  80.1569939  60.4483271  51.4471960
  57.3725796  26.8561554  37.3153663  58.2486963  26.5124464  37.1406603
  56.8118000  26.4197206  36.6740561  91.7844772   6.6194254  22.1042442
  91.5063190   7.1573991  22.8454924  91.0934448   5.9635800  22.0116377
  86.8829060  38.6625004  43.5468340  87.5595188  38.8135076  42.8868198
  87.3264408  38.1674266  44.2356110 110.6023884  32.2335458  46.9822359
 111.0149479  31.3937283  47.1840525 109.6753979  32.0984054  47.1788788
  72.2404718   8.8137031  27.6811719  72.8634405   8.8965034  26.9591665
  72.1247292   9.7082818  28.0014277  95.9929752   4.7836143  70.8055401
  95.3098392   5.0293207  71.4293814  95.5219364   4.3546087  70.0911903
  98.4261608   2.2699754  25.8684015  98.1000137   2.5938088  25.0287628
  97.9555321   1.4481217  26.0072875 105.5798531  41.8276548  30.4190373
 105.9514236  42.7042150  30.3199816 104.9846745  41.7343426  29.6752024
  74.3507624  10.4869211  40.3842449  74.2666721  10.1414096  39.4955468
  73.9368343  11.3491523  40.3461647  83.9795017  28.1312275  43.5546255
  84.0463257  28.9076328  44.1104698  84.5505238  27.4870872  43.9732504
  32.0665765  38.5401297  44.1508389  31.9586110  39.2363954  44.7987509
  32.2976375  38.9985013  43.3429193  57.5486612  34.3544579  40.2481842
  56.6808796  34.6497154  40.5238914  57.4023962  33.9438844  39.3959689
  85.1492310   4.9412456  18.8313782  84.4213295   5.5628431  18.8330901
  85.5563068   5.0514805  17.9720926  73.3097649  38.7870264  42.1942949
  73.8900518  38.5346580  42.9124975  73.4375906  38.1070328  41.5328598
  80.0591660  17.4801457  34.4602799  79.4383907  18.0308867  33.9832520
  80.0456429  16.6444826  33.9936781 108.9923096  16.1618495  58.2356834
 108.8154984  15.4865694  57.5807285 109.6406651  15.7664442  58.8183689
  32.9029595 106.9431671  55.1250124  32.5038277 107.3297762  55.9044075
  32.4511277 106.1065935  55.0144482  67.7282047  38.6790752  49.8094702
  67.1992922  39.1470456  50.4555988  68.2118797  38.0301690  50.3205538
  74.5522451  28.6636543  51.3581562  73.8701105  28.0975628  51.7193556
  74.0775013  29.2980599  50.8211470  70.6599379  33.6240983  54.6452284
  70.7631588  34.5749807  54.6077824  70.3441143  33.4522128  55.5323267
  72.0091915  42.3728228  44.9684668  71.3480091  41.7830372  44.6062136
  71.6769552  43.2503128  44.7790861  54.3750620  25.3656840  52.9853249
  54.8381090  25.3773546  53.8229895  54.9965620  25.7431149  52.3628187
 102.4093246  33.7889099  43.1241989 101.7980862  33.0756903  43.3084059
 102.7652740  34.0264440  43.9804220  87.0932484  29.7200537  64.4643402
  87.3656273  28.9151740  64.0236473  87.0560646  29.4847107  65.3914118
  66.2977791  46.4446688  36.9006753  66.7590475  45.8155584  36.3459802
  66.8074083  46.4686537  37.7105761  78.3794355  62.8543997  63.2705307
  78.8511944  63.6817980  63.1751966  78.8366747  62.3979950  63.9768314
  85.8421898  31.8390727  69.9389410  85.5058956  32.1522141  70.7786322
  86.3906574  32.5551414  69.6185350  55.7614088  37.3921967  36.7016721
  55.9972906  36.6536450  36.1403036  55.4583788  36.9878888  37.5146556
  51.8436575  16.0995400  42.2079420  51.4676237  16.6819656  42.8679466
  51.5817070  16.4844966  41.3716269  75.1249075  43.2924891  39.5115471
  74.4448042  42.8600693  40.0279856  75.8059263  42.6278734  39.4079661
 114.9353504  41.3300848   3.8475543 115.0485420  40.3964567   3.6693260
 115.5614662  41.5180731   4.5467490 113.2448196   4.2215550  59.7127390
 113.0698776   3.4298372  60.2214718 112.3793888   4.5945257  59.5449305
 112.9257202  53.0694151  20.2109051 112.0248985  53.0850315  19.8876250
 113.1968594  52.1558905  20.1204252  60.9920073  28.6175823  35.5036640
  61.6399908  27.9906893  35.1821709  61.4967203  29.2312503  36.0374308
  49.6282387  44.2561245  57.9446650  49.4304085  45.1332235  57.6163483
  50.4147291  44.3717194  58.4778595  98.6127567  40.2253151  44.1864586
  99.0922165  40.3174019  45.0097847  98.0294800  39.4802547  44.3310022
  79.8962736  36.4862490  47.9470825  79.0456533  36.1282039  47.6931572
  80.1850414  35.9283257  48.6692810  81.0304260  32.7099705  22.8963614
  80.4682064  32.7338862  23.6706829  81.6806221  33.3951688  23.0512094
  70.8034182  43.9003992  58.3057833  71.6880655  43.5431099  58.2284689
  70.6548357  43.9701223  59.2488050  66.2075186  53.6374807  64.3259811
  65.7718134  54.1287518  65.0224257  66.8942261  53.1440210  64.7744942
  77.9307365  25.9497547  30.7160115  78.2388067  26.3957882  31.5049219
  78.6872864  25.9503865  30.1296139  52.0144653  33.4399962  55.7897854
  52.7932596  33.5778666  56.3289595  51.2897205  33.4263182  56.4149141
   2.1492598  84.8965353  93.6012016   2.2813151  85.4757494  92.8506665
   2.3401902  84.0210456  93.2646112  25.8284937 108.6167729   5.7711881
  25.5124556 107.8729821   5.2582294  25.5826651 109.3849509   5.2557242
  97.1127796  33.2265973  24.4244981  97.1255112  33.9500713  23.7978768
  96.5125179  33.5155749  25.1118183  96.5349865  40.8404970  12.3669171
  96.5404129  41.4431572  11.6232753  96.2566948  40.0035906  11.9949377
 102.3352146   3.3942658  11.9631803 102.2135353   2.4795327  12.2175193
 102.6089668   3.8325170  12.7689266  77.2742748  36.0559201  47.3448515
  76.6984367  36.8068099  47.2005939  76.6803265  35.3358579  47.5569057
 106.5133953  28.0350780  48.0979586 105.7958698  28.3459640  48.6499929
 107.0083523  27.4400115  48.6611128   1.1593018  53.7545443  54.2660284
   1.8372689  53.0840683  54.3500471   0.6279526  53.6582375  55.0563622
  50.6904507  37.4579382  81.3766289  50.8311987  36.6250849  81.8269348
  50.1133823  37.9510045  81.9598198  93.1521320   1.2159107   7.2915280
  92.2638512   1.4646713   7.0359772  93.7039375   1.9244927   6.9603783
  52.6188040  43.1291437  25.2682924  52.8734827  42.2899961  24.8846245
  52.9683876  43.1012344  26.1589360  71.8614674  47.3403263  44.2555046
  71.6061783  48.2625294  44.2310524  72.8029156  47.3477554  44.0827417
  82.3970890   8.4966844  21.1161757  82.4138546   7.6915169  21.6335297
  81.4747810   8.7522984  21.1007380 114.2118931  38.9146352  58.2587624
 113.7288284  38.0891013  58.2958746 114.9454308  38.7901902  58.8609886
  72.9770947  16.6212225  60.1141024  73.7293053  16.7007744  59.5275116
  72.2316694  16.4815116  59.5301056  11.1642037   1.2641835  48.1108618
  11.6843949   2.0382454  47.8953028  10.7643662   1.4718863  48.9553881
  70.6294966  49.4235516  32.4669695  69.7515011  49.0949678  32.2735953
  70.7235575  49.3131208  33.4131145  82.1150494  30.9932566  46.8118763
  81.6329956  31.7784524  47.0713425  81.7571926  30.7650924  45.9539080
  46.1965990  40.4667282  36.8284559  46.5512943  41.1948490  37.3386145
  46.9245243  40.1857281  36.2740231  96.8636131  13.6209726  39.0147448
  96.6646290  12.8665876  38.4601831  96.0153294  14.0381861  39.1649890
  87.1691322  14.1341674  44.3317366  87.1053314  13.1899488  44.1881657
  86.8119144  14.2676091  45.2097034  79.2245245  14.6891761  51.5098572
  78.7910795  15.5175078  51.3043690  78.5242987  14.1291034  51.8448734
  62.7825356  27.1110988  45.3466892  62.3128653  27.7559090  45.8757067
  63.7075615  27.3047256  45.4985714  69.4886589  42.7850771   8.2074463
  70.3832483  42.8426361   8.5430479  69.2404032  41.8706131   8.3429080
  66.1797571  34.2484188  53.3422375  65.2351809  34.1277266  53.2450676
  66.5565777  33.8156581  52.5761080  36.4852929  37.0725036  48.9567947
  35.9956574  36.5557742  49.5967007  37.0749068  36.4431477  48.5414648
  88.7148094  27.5287008  56.6586351  88.6997032  28.4612799  56.8738127
  89.5090008  27.4162531  56.1362934  64.3038702  30.0131917  48.6762524
  64.2248726  30.4320955  49.5332861  64.1501904  30.7198620  48.0491734
  94.4109440  50.6538439   0.9345025  95.1760960  50.2578688   1.3516222
  93.8292313  50.8749199   1.6618054  72.1047735  52.0424986  48.3770514
  72.0152187  52.1200705  47.4272156  72.1641922  51.1004400  48.5358810
  84.5187378  49.2877531  42.0685530  83.6667442  49.6198702  41.7856312
  85.1514912  49.8979092  41.6896534  85.8222961  62.7366352  39.0245342
  85.8743095  62.1826887  38.2456446  86.6212559  63.2631063  38.9978051
  81.0455990   3.8525233  25.4575109  81.9681168   3.9125329  25.2093577
  81.0248661   4.1335768  26.3722849  89.4559288  11.1665857  21.5699768
  89.5601845  11.1929667  22.5211167  88.5219193  11.3197088  21.4270759
  93.6004925  80.5956841  57.8499031  93.4571934  80.7270336  58.7871599
  92.8160191  80.1366615  57.5496864 110.1300430  20.0806475  50.3258419
 109.7755814  20.9002829  50.6704903 110.6556511  20.3456378  49.5710230
  75.3208113  64.6885300  56.6464329  75.2233934  64.3442774  57.5342560
  74.5055199  64.4489288  56.2058353  88.4214211   6.3636309  18.3187664
  88.1762505   7.1618348  17.8507996  88.9387035   6.6715920  19.0629530
  97.1117401  41.5025520  84.2541122  96.4969540  42.2332954  84.1886711
  96.5735054  40.7607126  84.5301723  56.6036844  11.2349594  38.0924678
  55.9199333  10.6377327  37.7890921  56.3919544  12.0715821  37.6783824
  29.1962576  57.4348259  31.8671107  28.4153247  57.0582342  31.4614558
  28.8559365  58.0607939  32.5063133  92.9550552  56.5331745  69.0129566
  92.8046608  56.0261154  68.2151461  93.3986759  57.3263884  68.7125492
  68.0066872  27.9968739  41.0091496  68.6727142  28.6513615  41.2195969
  68.3083534  27.1995997  41.4445639  75.9782934  58.7687540  52.4130249
  75.4365015  59.2151976  51.7623472  76.5467834  59.4548607  52.7627516
  79.8783207  55.5409384  35.0972795  80.7441616  55.1978874  35.3183341
  79.3376398  54.7616243  34.9685359  76.3249159  66.4849186  25.4803753
  77.1104288  65.9572935  25.6246328  76.6579151  67.3532677  25.2538610
 114.8403418  86.8379683  93.6813545 114.5762026  86.6392321  92.7830425
 114.2445290  86.3232035  94.2256459  82.7988720  55.1623011  47.0260859
  83.3016109  54.4204330  47.3624039  81.9588089  55.1086235  47.4817705
  70.9789896  55.4059029  51.0865641  71.2887716  54.5346594  51.3339520
  70.3454113  55.2452087  50.3872871  82.1188068  48.5142136  48.4766293
  82.9564095  48.2453203  48.8539410  81.5322018  47.7769947  48.6458540
  65.9391260  96.0109901  76.3382053  65.7227373  95.0831985  76.2454224
  66.8889284  96.0247707  76.4561987  71.1195946  36.8324780  37.4125147
  70.6662560  37.6368713  37.6648378  71.6469049  37.0826316  36.6538334
   5.9515915  38.1613541  56.6993141   5.1181183  37.7736473  56.9662189
   6.2092839  37.6642609  55.9229612 103.3291340  43.0301571  31.9028354
 104.0963173  42.5540543  31.5850520 103.6799049  43.8584614  32.2301030
  78.5760021  54.3659210  52.5872135  79.1161823  55.1557350  52.6124048
  79.0925789  53.7384701  52.0815611  11.4979802  62.2103548  72.3201180
  10.5730877  62.1523476  72.0804167  11.6716061  61.4018679  72.8022337
  74.3499327  72.8883696  45.9078598  75.0634098  73.3257484  46.3724852
  73.5585785  73.3340979  46.2100363  78.7304401  66.1844444  41.8393135
  79.0563393  66.6572618  42.6051235  77.8849697  66.5908146  41.6488504
  77.2572803  81.6946888  49.1172791  77.4248934  82.6368618  49.1382837
  77.6351595  81.3659477  49.9329805 102.8470230  75.9681845  85.3561115
 102.0937061  76.5241385  85.5552769 103.4443569  76.1015415  86.0920811
  72.1590805  82.0091820  70.6567812  72.1025658  82.9424858  70.4519129
  71.2712479  81.7677212  70.9207535  63.7220716  46.2924957  22.5014091
  63.6103678  45.8182764  21.6774726  64.5373869  45.9490204  22.8668118
  96.6639805  30.5263853  41.0343742  97.6136494  30.4516387  41.1280012
  96.5275764  30.6920147  40.1015377 102.6463985  58.9090204  39.4513083
 102.4448681  59.0281582  40.3794384 103.4096813  58.3314657  39.4441676
  68.6636639  32.7860427  24.1866326  68.1602955  31.9723511  24.1590881
  69.5391369  32.5167990  24.4646335 107.4974918  45.2010679  58.3371687
 107.5459862  44.2739630  58.1040239 108.3340359  45.3846169  58.7646341
  61.7415857  23.9541554  34.6966100  61.6031218  23.1158161  35.1373506
  61.7947006  24.5927000  35.4077148  87.5970364  35.1882935  52.0895767
  87.3972797  34.6874666  52.8804588  87.8091335  34.5247650  51.4330864
  67.5889969  71.1441517  38.5978627  68.4759378  71.5015602  38.6406946
  67.4007845  70.8624744  39.4931078  64.0165377   8.8996321  28.3103275
  63.3997345   9.1870046  27.6371217  64.0598774   9.6328288  28.9241481
 108.4399509  43.4760523  32.5230193 109.2264938  43.0958986  32.1317983
 108.7541199  44.2526913  32.9860115 115.3230190 109.1617107  23.3322716
 115.0162315 110.0654125  23.4060478 115.8249664 109.0130043  24.1336226
   9.5720826  35.3741217  69.5640802   9.3698368  34.5098996  69.9224806
   9.5647297  35.9562254  70.3239012  77.5190115  31.9085407  35.0765610
  76.7697906  32.2087955  34.5620298  77.9178715  32.7121401  35.4102826
  78.3257580  29.1697764  43.3299685  77.7747202  28.5708451  42.8261089
  78.3815527  28.7707734  44.1982508  82.5848007  48.2904434  58.9446878
  82.3934555  48.9819670  58.3111191  82.5390434  48.7260342  59.7958040
  83.6317539  28.3721638  29.9736929  84.5310211  28.2631469  30.2829742
  83.1001568  28.3472800  30.7693219  71.4030170  46.7751217  55.2963543
  70.8493662  47.2245359  54.6578121  72.2636795  46.7330647  54.8795462
  67.3221731  28.3915043  37.1673918  68.0737734  28.9788795  37.2469163
  66.9943094  28.2996058  38.0619812  91.9962597  47.3593807  49.6694565
  91.6385174  48.1212330  50.1253510  92.5971603  47.7280617  49.0219831
  80.3010082  42.4361277  51.6687155  80.9899521  41.8924999  52.0508957
  79.5579958  42.3344040  52.2635460 114.7459698  46.1436176  50.4997683
 114.5875359  46.3797092  51.4137650 115.0423241  46.9564915  50.0903368
  91.2071419  45.3360367  57.7125359  90.2787495  45.1999950  57.5232697
  91.5181541  45.8923817  56.9984007  72.0826721  59.1609430  60.4293776
  72.2142792  58.6533976  61.2301922  71.5098810  59.8809147  60.6935358
  13.1087838  28.7782431  53.1825876  12.9479084  28.4540677  52.2964334
  13.2213269  27.9875112  53.7101364  67.5487709  73.9869833  36.5656185
  67.6034880  74.4332790  35.7206011  68.3885527  73.5360527  36.6531444
 100.9044456  43.8490963  32.0195746 100.9527016  44.0473413  32.9547763
 101.7736721  43.5132265  31.8007755  92.5328636  29.7669768  44.0022230
  92.1842098  30.6409240  43.8264751  92.6242447  29.3671727  43.1373310
  47.0209408  80.8688641  52.0239735  47.9142904  80.7327080  51.7083454
  46.4653206  80.6170940  51.2863159  75.1721144  53.6681986  55.9275198
  75.9609222  53.4544754  56.4258575  74.4535160  53.5245800  56.5433264
  79.5688057  58.9900494  69.1254663  79.8941231  58.5867882  69.9303150
  79.8494720  58.3958721  68.4294653  85.4469013  65.7024479  69.6600294
  84.7757435  65.7611990  70.3399754  85.1403713  66.2901926  68.9695024
 109.6984863  57.6110983  42.3011494 109.6498966  58.3253431  41.6657543
 109.2935085  56.8666697  41.8561268  94.4984436  52.7333689  56.7303848
  95.2618408  53.2925701  56.5862989  94.2776299  52.8625011  57.6527739
  74.1804981  41.5318155  41.3883543  73.8921070  40.6226730  41.3076401
  74.9882126  41.4823818  41.8996143 114.1107191   1.3544799  28.4582782
 114.2887701   0.8469725  27.6664662 114.7284998   2.0845557  28.4187961
  59.1896235 109.5920778  61.3319588  59.1885935 109.4859745  62.2832584
  59.7632490 110.3421586  61.1752415  83.9092827  50.3163004  55.6329107
  83.2647228  50.7109785  56.2202787  83.4083843  50.0786304  54.8526239
  69.6308565  30.0698543  54.4617510  68.9431620  30.5565143  54.9161386
  70.2483797  29.8271942  55.1516867   7.4681435  58.9984226  21.0341573
   6.8226776  59.0221977  21.7405868   6.9824658  59.2736483  20.2565980
   7.4721012  23.9865780  48.1323481   7.9846821  23.1805086  48.1935263
   7.6092778  24.4220781  48.9736271  87.8526974  74.3668509  36.6119838
  87.8888130  74.2217398  37.5574303  88.7674904  74.4724464  36.3507533
  88.5167694  64.8003483  60.7102966  89.2399979  65.3927612  60.9157705
  87.9554939  64.8298311  61.4851141  56.8059587  41.9691944  52.5766420
  56.2118912  42.5115633  53.0954409  56.6678381  41.0808516  52.9052830
  88.7286377  56.1041784  50.2110052  89.6548367  56.0508776  49.9753046
  88.6272335  56.9783449  50.5875397   0.6868039  48.3326387  59.6803665
   1.3635121  47.9861975  59.0987539   1.1293278  49.0178204  60.1812935
  97.3023415  43.4268713  34.0674162  97.7310562  44.1887331  34.4572926
  96.9126606  43.7590837  33.2587075  71.2553549  62.5915670  45.1640844
  71.6069269  62.7943945  44.2971992  70.3077984  62.6852846  45.0661898
  91.8072987  57.3892355  58.2511568  91.4246464  57.3561716  57.3743916
  91.6875172  56.5052605  58.5982513  82.7446651  43.3307600  28.7104535
  83.1024170  44.1991806  28.8950944  83.4262657  42.7243757  29.0001893
  60.1495171  62.4151421  22.5980806  59.8558998  61.9797182  23.3983469
  59.6630335  63.2393312  22.5815487  58.5437155  64.7378159  22.9996085
  58.9297199  65.1305056  22.2166491  59.0338039  65.1218367  23.7266421
  66.2369537  42.9576397  55.0333643  65.5170822  42.9493237  55.6641912
  67.0249462  42.8596497  55.5678701  68.5386372  41.8508673  26.7125344
  68.7730169  42.7782440  26.7481732  67.8888655  41.7411900  27.4067974
  77.9768372  64.6259212  21.1149049  78.3848953  63.7607622  21.0799861
  77.6502275  64.7006750  22.0115471  61.8798065  36.0115838  51.1612511
  62.5618315  35.4298472  50.8256102  61.0627556  35.6389880  50.8298397
 116.3848209  61.8005514  47.4634600 115.4837799  61.9726467  47.1900892
 116.6656208  61.0678244  46.9152927  96.1998653  22.5507498  25.1231933
  96.1932182  23.0137205  24.2854309  95.3798103  22.0571017  25.1305628
 113.2545340  62.2253860  79.6996647 113.8909971  62.8373898  79.3300718
 112.5879776  62.1328831  79.0189451  73.4437323  53.9884901  43.8406944
  72.8570557  54.4346762  44.4513988  74.3186617  54.1305304  44.2020178
  74.2650127  77.3696899  47.2408581  74.1500902  77.0917797  46.3321257
  73.3780861  77.5578403  47.5477695 115.5638409  34.7197485  52.2145081
 116.4791393  34.5821452  52.4584818 115.4098606  35.6503463  52.3773336
  69.6209002  54.9797964  66.8911028  70.4595757  55.4062796  66.7151308
  68.9936495  55.4485893  66.3406277  60.5009222  79.5004606  49.2444277
  61.0000229  80.0371075  49.8601675  59.6756172  79.9717188  49.1303349
  91.2183571  69.6719885  72.0890713  91.7994976  70.4149008  71.9260216
  90.5688190  70.0071383  72.7071333  74.3693113  54.2539215  39.4695091
  74.6893358  53.6572647  40.1461267  73.6996746  54.7777414  39.9093151
 106.8294430  63.2242632  58.5892820 107.6797771  63.0278492  58.9824677
 106.9632816  63.0921412  57.6507378  81.3893604  67.4196911  76.4991140
  81.6189384  66.4962959  76.6033125  80.9230518  67.4578047  75.6640434
  89.7180557  75.3200722  79.8716116  90.4406929  75.2453184  79.2483568
  88.9614010  75.5540752  79.3340778  62.1610451  38.6160517  48.0668592
  62.3469210  38.9717364  47.1978569  63.0143261  38.3370829  48.3990097
 100.6806755  50.1173067  66.7602491  99.8391819  49.8674917  66.3785172
 101.3099575  50.0037050  66.0479784  79.9884558  45.3267574  63.7346315
  80.7633972  44.9668217  64.1660786  79.4747734  45.7099819  64.4456148
 108.2963276  18.0166030  87.4000835 109.1618824  18.1955862  87.0326519
 108.2065392  17.0649946  87.3489761  67.6551914  37.6893449  41.5436792
  68.3254671  37.4929214  42.1981859  67.9984665  37.3187423  40.7306290
  61.7807293  33.1639290  45.4032087  62.0879841  33.1391215  44.4970036
  61.3103151  33.9945531  45.4739618  10.9901772  48.4092331  25.8597779
  10.6391392  49.2688942  25.6274223  10.2396450  47.8186560  25.7953548
 113.6881065  74.0244770  34.4589615 113.2538033  74.8390865  34.2059278
 113.7210751  74.0575886  35.4150200  67.1183634  50.3146076  38.7790942
  66.2215948  50.6440783  38.8381481  67.6649904  51.0645437  39.0136695
  90.9363174  43.8507462  16.1380732  90.7557487  44.4576502  16.8559122
  90.4697418  44.2206383  15.3885984  82.4646473  49.6410179  36.8046641
  82.0282459  48.7933111  36.8894172  82.9623508  49.5737791  35.9898019
  79.5710135  41.7065811  46.5069294  78.6439514  41.7880201  46.7308998
  79.8167658  40.8351231  46.8174124  81.8504047  64.3238926  63.8042879
  81.9663525  63.4440994  64.1631126  81.3912678  64.8048067  64.4928741
  72.0457649  96.0057831  45.5970383  72.6391125  96.6947556  45.2978802
  71.2442398  96.1441994  45.0924206  79.9057007  81.1422539  50.6694126
  79.9414730  80.6847954  49.8293638  80.7284260  80.9135628  51.1018991
  93.5833359  72.7694130  79.4956064  93.9922428  72.2036409  80.1505375
  92.9870701  72.1919203  79.0189552  61.0807800   7.2055537  61.8857479
  61.1944771   8.1435174  61.7323589  60.1323700   7.0761347  61.8859768
  87.7376747  72.0026827  45.8781385  88.5559750  71.6643047  46.2416172
  87.6602840  72.8844357  46.2424946  71.3991690  31.9197464  24.7482371
  71.1863613  31.1038780  24.2951345  72.3548603  31.9216919  24.8018599
  44.2805624  46.5529156  42.0240307  44.5564890  47.3214531  42.5234699
  43.4543705  46.2883472  42.4285603 109.1275501  38.0361795  80.8759594
 109.3840122  38.7078643  80.2440548 109.8981380  37.4736905  80.9536076
  96.8290424  43.4884977  46.3486242  97.0242023  42.9781389  47.1345520
  96.2338638  42.9337072  45.8444405 103.7094498  69.2284870  23.2902241
 103.0578518  69.9262476  23.3593917 104.1286373  69.2060995  24.1504645
  77.4042273  61.2436628  53.5597134  77.5468588  61.5764952  54.4457769
  78.1811523  60.7162809  53.3740091 112.1905804  31.0802317  30.4651523
 112.3785686  32.0119548  30.5782175 111.7278290  30.8304763  31.2649751
   6.8338940  68.4136338  86.4768505   7.2405121  68.1119139  87.2891664
   7.1802685  69.2967970  86.3492685  72.7082586  54.2510700  54.3208742
  73.0576658  55.1108217  54.5553350  73.3187294  53.6285830  54.7159243
  93.9984798  88.5636330  44.2050028  93.3602619  88.6405754  43.4957838
  93.4676743  88.4561443  44.9942589  61.4984369  74.6060133  40.6613731
  60.9372187  75.2530766  40.2340841  60.8889294  73.9674044  41.0313940
  78.3942413  59.1757584  46.2324572  79.1109467  58.8565207  46.7807770
  78.8104916  59.3979836  45.3996420  11.1682663  42.4123859  26.0790062
  10.6909047  42.7436161  25.3183174  11.4571247  43.1990004  26.5416408
  73.3838272  85.6718540  33.7063217  73.2752371  86.5464973  33.3329105
  72.5450182  85.4857159  34.1282082  77.4111891  31.6282535  53.5039616
  76.6536760  32.1808767  53.3115768  78.1581879  32.1171689  53.1587315
 106.1342049  62.1769571  43.1382418 106.6952610  62.5815773  42.4766254
 105.4347610  61.7589426  42.6359797  69.2054224  48.7183714  49.4906712
  69.8768568  48.2621717  49.9979067  69.4660425  48.5903597  48.5785723
 112.9516888  32.7156639  32.5162101 113.5268497  32.1281385  33.0063534
 113.3481121  33.5806918  32.6201844  91.4806843  83.0993271  58.3113432
  92.3174286  83.2039928  57.8584337  91.0653782  82.3537254  57.8779602
  80.0331593  14.9767709  33.3011198  80.9487247  14.8256326  33.0663395
  79.6906900  14.1059542  33.5026789  65.2550316  57.4296474  57.6451206
  64.5858097  58.0369282  57.3295498  66.0742235  57.9202890  57.5785589
  77.3941851  80.4391098  43.7044430  77.0529890  81.2329102  43.2924938
  76.6941166  80.1541901  44.2917776  73.9077950  46.0082769  23.4963632
  74.4630575  45.3191996  23.1315517  74.5199871  46.6102743  23.9195108
  97.9848289  59.1623592  69.7633314  97.6024055  59.7513056  70.4138136
  98.0592728  59.6955633  68.9718866 110.7902527  48.5950994  70.1340199
 111.1309338  48.9189291  70.9678698 111.3507080  49.0007877  69.4725513
  90.2059078  63.8430929  20.5384302  89.3272877  64.1338587  20.2940774
  90.5875874  64.5923424  20.9957981  54.3630695  29.9018073  61.5382957
  53.9053631  30.3060317  60.8011818  55.1837015  30.3896952  61.6073132
  68.3641386  56.0287333  64.7925615  67.6015949  56.0699749  64.2154551
  68.4624672  56.9214344  65.1236916  99.9917412  48.1931162  31.4149022
  99.1030979  48.3665514  31.1043286 100.4793835  47.9568195  30.6258488
  17.6685021  98.6777014  92.6517077  17.9254029  99.2977042  91.9691914
  17.0836423  98.0628151  92.2089016  83.4231567  72.2508097  45.1541948
  83.4274578  73.1155443  44.7437763  83.1270885  72.4123335  46.0500097
  65.8899784  51.2501526  24.8125052  65.2065039  51.2582159  25.4826021
  65.6170368  50.5669117  24.2002034  81.2911892  12.6613653  57.9472828
  80.5241871  12.6042175  58.5170841  81.9360256  13.1470156  58.4616470
  78.9914560  65.6026936  63.1565285  79.8249912  66.0286045  63.3566666
  78.4899473  65.6638479  63.9695311  79.0264225  45.4064512  59.8540497
  78.4621382  45.5095196  60.6203365  79.2325449  46.3019991  59.5861959
   0.3314648  57.5679588  89.1757488   0.7088147  57.4436665  88.3048916
   0.1651631  56.6805267  89.4936085 104.3829536  27.1710563  22.9585767
 104.0430164  27.9723334  22.5602937 103.9732838  26.4636278  22.4606371
 112.8865719  51.3155937  48.1044006 113.5141087  52.0159197  48.2832193
 113.4265327  50.5745840  47.8294945  72.3162174  68.5425615  30.4824805
  72.1167326  69.4564867  30.2795529  71.8649387  68.0422449  29.8025799
  67.9603386  52.8567743  66.2283325  68.2224226  52.1169519  66.7762423
  68.4883976  53.5891342  66.5461969  24.0456543  39.8385096  31.7673397
  24.6469174  39.3622875  32.3399878  24.4379197  39.7686315  30.8970094
  92.3734951  20.4117846  39.0873361  93.1315041  19.8759580  38.8537765
  91.7096138  19.7800291  39.3636966 107.2480774  43.7350130  37.7301979
 106.6199589  44.4302464  37.5343561 107.4020576  43.3071089  36.8879271
  76.1470890  64.0117168  53.2101250  75.4538631  64.3765879  53.7601614
  76.2226152  63.1004000  53.4930325  87.3159027  62.4321985  49.0682364
  86.8745422  63.1662464  49.4955540  87.3708916  62.6888084  48.1477165
  70.0692081  40.4152966  44.3985319  70.1364899  39.4609189  44.3691158
  69.4545221  40.5902195  45.1111317  63.0531454  72.0782995  59.1872406
  63.7717581  72.7051830  59.1044903  63.4766102  71.2623692  59.4540119
  78.2248497  88.8371181  31.2916183  78.3733749  87.9033184  31.1426330
  78.8534498  89.0738106  31.9735789  95.3473854  79.4191456  55.9165001
  96.2297821  79.3479538  56.2805557  94.8062897  79.7022152  56.6536045
  87.0327950  56.0061789  62.2274494  86.3908577  56.5830708  61.8135023
  87.0650864  55.2367687  61.6589451  61.1236382  36.6388106  39.9102926
  60.9321213  37.5762343  39.8821712  60.7534170  36.2942314  39.0976238
  92.3456287  84.5347500  52.2895050  92.1659088  83.5977364  52.3665190
  92.7497387  84.7705555  53.1245661  87.5460720  86.0257053  55.4255819
  87.5815010  86.6830444  56.1204815  86.6121578  85.9171009  55.2460051
  79.4045877  78.8056040  43.1779861  79.9895668  78.9048862  43.9291000
  78.7839508  79.5296526  43.2604122   2.2851715  44.8041058  61.1487913
   1.3294278  44.8542356  61.1655331   2.5738011  45.5656910  61.6516924
  72.4276400  50.2747202  60.2733803  71.8374634  50.7918644  60.8215427
  73.3021116  50.5953074  60.4941940 105.2334595  34.0000176  74.6006107
 105.1426506  33.2042170  75.1247168 104.5719051  34.5954919  74.9527168
  15.0866661  48.4571362  24.3844390  15.5811463  49.2639446  24.5285583
  15.6913910  47.8872108  23.9093399 100.3494358  15.7265532  60.3249645
  99.7440910  16.4666069  60.3709221 101.1785603  16.0745895  60.6530714
  81.0031128  30.4494190  44.2681599  81.2540150  30.3239083  43.3529949
  80.0461483  30.4302406  44.2589474  86.6098213  47.3314142  43.5868311
  86.7880249  48.1973934  43.2200193  85.6572056  47.3000813  43.6750650
  78.7886047  72.6281834  31.8286872  78.8667297  71.6742468  31.8402934
  79.6900129  72.9431486  31.8957472  92.9995918   2.9185584  23.8766003
  93.1076336   3.8691238  23.9079571  93.8642979   2.5718376  24.0963626
  93.2414246  48.8944483  36.8079400  93.8175106  49.5291996  36.3819790
  92.4165630  49.3642998  36.9307399  99.0993786  42.3712826  55.9474707
  98.6291218  43.1204891  55.5817127  98.5381699  41.6197634  55.7564354
  75.2608490  40.8704948  56.7324543  75.3040695  39.9760199  57.0705080
  76.0789680  41.2752628  57.0206785 101.3462067  52.7866125  57.4585533
 101.4518356  51.8730927  57.7241707 101.0585308  52.7392244  56.5468407
  71.1663342  72.2081327  65.3638029  70.5053282  72.1880627  66.0558224
  71.7421532  71.4693880  65.5610991  88.7922001  49.3106794  46.8720388
  89.2798424  49.8124790  46.2188673  88.9826488  48.3962679  46.6627264
  95.0519276  50.1943350  19.3521988  94.3811321  49.5153332  19.4243813
  95.8623505  49.7595596  19.6175826  70.6769753  65.2605867  56.2162447
  70.4541254  66.1626148  55.9862137  71.5897894  65.1628256  55.9452295
   7.6160488  42.9780865  76.6816664   8.5687409  42.8861809  76.6947556
   7.2971974  42.1253395  76.3860464 105.4917049  65.4115820  46.0705471
 105.9645367  65.9893990  46.6695452 104.5741844  65.4971933  46.3294792
 111.0151577  48.7207985  50.8190012 111.9495106  48.7652302  50.6159449
 110.9382153  47.9917717  51.4344931  95.8755398  19.6398234  52.0581150
  96.6935539  20.1367640  52.0695972  95.2932644  20.1499629  51.4951277
 105.2561569   1.5886374  30.9387827 105.0156593   1.1295895  30.1340032
 106.0939026   1.2021282  31.1937737  61.9746542  68.4520769  59.1597128
  61.2979174  69.1054535  59.3367958  62.7323294  68.7494230  59.6634436
  65.6518412  42.7109623  46.0184526  65.8647156  41.8608761  46.4035082
  65.3219032  42.5021696  45.1445055  76.3221169  55.6987667  51.3639307
  76.6337490  56.5990353  51.2710238  76.9289970  55.2982759  51.9864511
  60.8002615  49.9166870  37.5216699  60.1212502  50.4835367  37.8875327
  60.9179974  50.2316952  36.6254878  84.6157932  55.0949049  60.9146786
  84.0745449  54.5158768  60.3780079  84.3667889  55.9775877  60.6406403
  55.7916069  36.9615173  45.5090523  55.5393934  36.6862869  46.3904572
  55.5696917  36.2151313  44.9523735  63.3938074  40.0308275  52.9248714
  63.2088423  39.3977642  53.6185932  63.0908632  39.6035457  52.1236944
  66.6635799  75.3036118  45.1436043  66.3762331  75.7011795  44.3216515
  67.6109409  75.2083492  45.0452566 107.1697712  29.8135304  63.9407492
 106.4424229  29.3694806  64.3766594 106.8943787  29.8836231  63.0267048
  80.1826286  86.4720345  22.0512748  80.6931686  86.9363117  22.7146220
  80.8369160  86.1256790  21.4445019  64.0290022  41.9664288  43.9326286
  64.5088100  42.2573566  43.1571484  63.7838554  41.0620070  43.7372875
  96.9366074  24.6902299  31.1841106  97.6573944  24.8963332  30.5889487
  96.6667080  23.8059592  30.9362197  74.5050526  49.9108791  57.0298910
  75.2619171  50.4960680  56.9991064  73.8378668  50.3544712  56.5061426
  72.5801611  25.5838418  33.5728240  71.8438435  25.6653857  32.9666781
  72.2878695  24.9417305  34.2197347  92.7914715  51.7439890  45.3441143
  91.9131374  51.3759089  45.2477789  92.7852821  52.5260544  44.7922373
 102.7641964  34.9512434  75.4833698 102.4264622  35.5847979  76.1164331
 102.6343918  34.1008091  75.9030628  75.0641823  83.0083179  38.3816481
  74.2230272  82.5657463  38.4948540  74.8358345  83.8731766  38.0408931
  79.3088818  74.2521906  53.0742598  78.6466074  73.7438393  53.5424519
  80.1294708  73.7889338  53.2423544  94.7260284  28.7366724  48.1415081
  95.4233551  28.2493639  48.5802555  95.0066662  28.7859821  47.2277021
  94.2276573  26.4763188  44.1162920  94.4550991  25.8844447  44.8333597
  94.3219948  27.3525357  44.4898891  67.3793602  15.9520555  11.7115915
  66.5668440  16.4265072  11.5356851  67.0960140  15.0635386  11.9271970
  66.5134859  99.2515278  57.7049780  66.0460806  99.3013000  56.8711424
  67.2982407  99.7831726  57.5717688 107.4030399  47.3368597  56.7826557
 107.1746731  46.6513443  57.4104691 108.3600903  47.3366451  56.7653799
  85.0504494  61.4288330  46.5013456  84.6563053  61.5753698  47.3612356
  85.4256630  60.5499649  46.5564919  66.1604500  34.9078393  40.3478432
  65.2686501  34.8974752  40.6954336  66.2448454  34.0770221  39.8800254
  94.1628456  63.5384989  35.2629137  94.9774742  63.2298374  34.8662567
  93.5187626  63.4890985  34.5565510  69.2814541  72.0918131  67.5215244
  68.9641476  72.9942656  67.5551796  69.0554762  71.7264175  68.3768892
  64.9623251  48.2107639  29.0096116  65.7255983  48.6228037  28.6047983
  65.3084993  47.7820587  29.7923040  97.5065041  50.9069395  62.3677015
  97.4507332  51.1616373  63.2887077  96.6720486  50.4737616  62.1880388
  78.5715008  43.7357521  62.2805738  78.8254070  42.8366423  62.4888229
  79.2619324  44.2750311  62.6662111  92.6138878  44.9929333  62.8694677
  92.5825691  45.9130096  63.1315994  91.7459869  44.6524239  63.0863476
  71.4299202  57.6306057  45.3020239  71.0856199  57.7581501  46.1860037
  71.5951395  56.6896343  45.2427912  76.0968256  47.1466255  55.3892279
  75.9599066  48.0926752  55.3394413  75.7068205  46.8918514  56.2254143
  90.2647686  50.8104563  73.7275124  90.2811813  49.8616791  73.6018705
  90.6887436  51.1630392  72.9451036 114.5930481  93.2845116  56.0379267
 114.6275043  93.4946728  56.9711351 113.9855385  93.9263153  55.6701517
 110.6497288  75.6513309  44.7337818 111.0959148  76.3136244  45.2615261
 109.7391129  75.6851625  45.0268030 100.1082706  74.0786076  77.7883959
 100.2398396  73.2151794  77.3967123 100.9639645  74.5029783  77.7256680
   9.3598913  24.6053839   9.0368742   9.9576162  24.7584201   9.7686785
   9.5805525  23.7270022   8.7270451  81.7632294  74.9396372  68.9192152
  82.6992321  74.9515533  68.7192774  81.5856266  74.0361071  69.1806078
  85.7667542  45.2910852  23.6082554  86.3008308  44.6026325  23.2119870
  85.4020691  44.8877573  24.3960118  98.9791679  71.9865608  33.7996364
  98.6654758  72.2822714  32.9450107  98.3155441  72.2931623  34.4175649
 105.4785728  77.8277826  84.9611187 105.2880764  77.4098253  85.8009052
 105.0091934  77.2970533  84.3175030 102.5116730  85.2981186  41.7117119
 103.3304691  85.4317474  42.1891499 102.5912285  85.8569717  40.9386730
  79.7679043  73.0399752  18.7138140  79.5454359  73.7422848  18.1026673
  80.5834198  72.6739550  18.3714664   0.2876530  31.4861822  13.8094819
   0.3034935  32.4417329  13.7555790  -0.5839100  31.2797570  14.1471338
  88.8606739  46.7605495  46.5500212  88.9991951  46.4910460  45.6420469
  87.9094696  46.7622042  46.6569185  79.9945021  77.5299978  31.8082261
  80.4143429  76.6981888  32.0274758  80.4793739  77.8498030  31.0473990
   6.7595063  77.2960043  57.9601479   5.9110318  76.9773388  58.2680130
   6.6727028  78.2492590  57.9629374 107.4043274  86.0516167  47.1811152
 106.9583225  85.3078079  46.7760801 106.8471241  86.8034840  46.9799805
 100.5057526  87.4765873  66.4712524 101.1359406  88.1336403  66.7668343
 100.4843140  87.5763702  65.5195093  80.1010513  53.9207315  26.1505008
  80.6625938  53.8084364  26.9174981  79.5781803  53.1196547  26.1171246
  81.3145542  63.4216356  55.1837873  81.4602184  62.9737854  54.3504524
  80.7546520  64.1654348  54.9612999 109.4710064  79.8651791  36.0701561
 108.6960888  80.3885937  35.8657503 109.9223804  80.3619385  36.7525959
  78.9951134  81.5132999  84.7875500  79.3233347  82.3980713  84.9477863
  79.6857357  80.9382915  85.1171494   7.9270516  71.1517096  47.3872328
   7.7678070  70.2526808  47.6746655   8.8746987  71.2631559  47.4632263
  92.6499844  60.5165243  51.9015503  92.4840736  60.7732248  52.8086376
  93.5473347  60.8032084  51.7318106  62.9107845  65.9207349  11.9250316
  63.7106216  65.5773073  12.3232097  62.2961128  65.1874548  11.9515342
 114.5460987  87.6175213  45.3581429 114.9556828  88.3972836  45.7329130
 113.8201046  87.9565430  44.8344660  75.1135731  84.4855118  41.4957094
  74.9794960  84.7398472  40.5827093  75.9737730  84.8407841  41.7194653
 104.0888214  60.2770615  65.4451180 104.1785145  60.9594727  66.1103296
 104.9374866  59.8343706  65.4401875  14.0433751  49.5300007  52.1342134
  14.8391686  48.9989233  52.1041918  13.9139805  49.8188686  51.2308645
  73.6115074  39.1377997  50.7602549  73.4142256  38.2082391  50.8752728
  73.4356451  39.3072367  49.8347282 113.1352043  59.7874546  80.7621574
 112.8573799  60.7011223  80.6969452 113.6325264  59.6304655  79.9594927
  93.9965343  14.6671045  45.3575230  93.4883690  15.2771378  45.8921766
  93.8400650  14.9504447  44.4567060  90.9226894  74.1505051  30.0928760
  91.1576366  74.6361208  29.3021774  91.4962864  74.5061159  30.7716680
 113.0522442  47.0864487  47.0421934 112.3555088  47.5722694  46.6008711
 112.7295017  46.1860991  47.0800781 103.2030010  65.7239866  19.9117148
 103.7150669  66.3393784  20.4364204 102.8067780  65.1342392  20.5531430
  78.2969427  23.2788682  56.5580225  78.2535744  24.0309739  57.1485233
  77.4944973  23.3350992  56.0392237  68.4523726  67.1308184  25.4891086
  67.7102041  67.2115850  26.0881853  68.7433195  68.0313396  25.3454494
 111.4939213  54.5511055  47.3135042 111.3988686  54.1268396  46.4607477
 111.5244007  55.4866743  47.1134853  73.8660192  59.8233414  50.7801247
  73.3414745  59.0280247  50.6876326  73.6991119  60.3151941  49.9761057
  68.5798264  73.0317450  54.1544104  68.4732914  73.8152170  54.6939039
  69.0817165  72.4293232  54.7034311 101.7487907  47.6629496  76.7196846
 101.3099289  47.7452326  75.8730125 101.0878468  47.9289675  77.3589134
  16.3344835  23.7383319  33.8216186  15.6335711  24.1931582  33.3546376
  16.2345385  24.0153456  34.7323895 107.5293255  85.8301258  78.2773018
 107.6933193  86.7508507  78.0733061 106.8447495  85.8512211  78.9459944
 111.4539051  62.4974632  62.0573854 111.5533352  62.3653412  63.0001926
 110.5698109  62.8503180  61.9569063 101.1311436 110.0870991  25.9776044
 101.5904522 109.5015240  25.3756380 101.4248085 109.8151207  26.8471003
  77.2626448  90.4559994  77.6394939  77.8432035  91.0743332  78.0831814
  76.6924953  91.0060501  77.1022701 107.8961622  83.6939163  91.3620457
 108.5731232  84.1077084  91.8975207 108.2334912  82.8155536  91.1862066
  14.2700348  71.5173340  38.0070281  14.7216378  72.3150301  37.7314138
  13.3588753  71.7862368  38.1241608   1.9111309  60.3354645  66.1916971
   1.2810955  60.6848669  66.8219423   2.3018227  61.1108017  65.7886553
  18.8598335  23.7868457   6.3790721  19.5203960  24.3532568   6.7778987
  19.3492830  23.0189329   6.0841483  78.6556721  50.4312706  58.8882637
  78.3034229  51.2024355  58.4439087  79.0956783  50.7813263  59.6629190
  91.3638115  51.7140245  52.8877592  90.8184528  52.0657444  52.1841097
  91.6945267  52.4877739  53.3440113 106.3772202  70.1801348  80.1552773
 106.0558987  69.2792749  80.1173782 105.6729603  70.6678629  80.5823135
  73.0324030  57.5985336  29.9130368  73.7254190  57.9416132  30.4771852
  72.2208261  57.8142405  30.3724337  16.5348778  43.0113602  36.8720365
  17.2336064  42.9722023  36.2189817  16.9900093  42.9651070  37.7128363
  57.2354841  61.7145920  17.5251317  57.7500296  61.8555021  16.7303872
  56.4968777  62.3177814  17.4423456 107.6367760  29.5501518  40.0545263
 107.2217464  28.8778043  39.5142221 106.9497204  30.2013922  40.1962090
  71.5811729  70.9101915  61.5847969  70.7267952  70.6525230  61.9310331
  72.0374680  70.0826025  61.4327097  27.5019716   0.8135558  41.0908365
  28.4292578   0.8856154  40.8645821  27.4601626   0.0741912  41.6973209
  86.5447426 100.8222580  60.5147314  86.9803047 101.2337780  61.2611723
  85.6162357 100.8260632  60.7473087  87.1937180  54.1854429  20.5702329
  87.8648663  54.7682667  20.9253454  86.3687134  54.5403767  20.9013295
  13.8587723  82.0877838  23.6500120  13.5897313  82.8268433  23.1044507
  14.1556607  81.4251995  23.0262494 111.3010788  96.8989849  30.6181455
 110.5284500  96.7619514  31.1663127 111.4573669  97.8425789  30.6560659
  84.5679569  67.3832512  61.8092346  84.3950367  66.5968037  62.3267603
  84.5054626  68.1022692  62.4379921  79.4472313  51.5444756  45.8559561
  80.2391815  51.1342859  46.2034941  79.5395517  52.4707079  46.0791206
  85.1609802  37.5500250  22.4146771  84.9731064  36.8025160  21.8470788
  84.3005848  37.8514624  22.7063870 101.7159367  48.4876919  40.5111265
 101.1532021  47.7220774  40.3954268 102.2841167  48.4859371  39.7407985
  93.9827442  98.3992386  38.1682754  94.5517159  97.7612591  38.5989428
  94.5708466  99.1091633  37.9106474  90.8077908  68.9792442  65.0969028
  90.6413746  68.5661507  65.9441853  91.7557621  69.1102028  65.0763559
 107.7376938  77.0542431  62.9467630 107.3964405  77.4786139  62.1595621
 108.5445976  77.5296736  63.1445026 110.1631165  47.0428610  36.6039491
 110.0563145  46.6510773  37.4707413 110.9646034  46.6484833  36.2599611
  99.9116516  36.9464064  51.0444832  99.9005985  37.7225113  50.4843330
  99.2293072  36.3805819  50.6832552   7.9726467  92.0168877  77.7044010
   8.3461056  92.6441002  78.3235693   7.4963436  92.5572491  77.0740271
  15.1578007  49.6605206  64.2658663  14.9315987  49.1352797  63.4982872
  15.3527413  50.5286980  63.9130259  82.2140121  64.8215342  69.2027569
  81.9407272  65.1020193  68.3293295  82.3429108  65.6371832  69.6868372
  67.8639221  72.1003962  43.8725901  68.7477541  71.9580650  44.2114305
  67.8168488  71.5529251  43.0888224  20.7673321  39.4987297  73.3914852
  20.9576950  40.2428913  72.8203297  20.4245148  39.8936677  74.1931915
 113.6421680  64.7109699  32.8526688 114.0169430  65.2988625  32.1968055
 113.0172634  65.2546072  33.3324432  64.2989016  88.7057686  58.4532976
  63.7128496  89.3175983  58.0078459  65.1161146  88.7525749  57.9571056
 108.0963612  60.0530434  54.4326878 107.8474808  60.6587744  53.7345648
 107.8863907  59.1866207  54.0841818 109.5669174  45.2032518  29.2157483
 108.9156723  44.5025635  29.2497516 109.0515232  46.0053253  29.1303802
  93.3619976  58.4202385  61.0045910  92.6391888  58.2271051  60.4075336
  93.3180141  59.3674374  61.1354208  96.8904877  69.6031427  35.3922057
  96.8271828  68.6766958  35.6243968  97.2700691  70.0187111  36.1664510
  94.4330120  68.7835693  81.3427544  94.1484070  68.7379980  80.4299831
  94.5507812  69.7185659  81.5105152  82.3748302  61.8047762  45.2207136
  82.5785828  62.6554680  44.8320723  83.2167816  61.3510132  45.2587986
  96.2132549  68.0209017  43.1210041  95.4378605  67.4622345  43.1747532
  95.8858204  68.8528299  42.7790689  69.4946671  43.7199736  60.8029222
  69.4727135  42.8032255  60.5284643  68.5831785  44.0075350  60.7506371
  91.0968018  55.0747538  45.3902388  90.2934837  54.5566130  45.4396486
  91.4528656  54.8824596  44.5227909  65.6507778  94.3960953  58.9338255
  65.0323772  94.4285870  59.6637297  66.2929440  93.7353611  59.1932106
  25.1399765  93.7859344  31.6777039  24.7695027  94.1496372  32.4818778
  25.9864960  93.4276390  31.9446468   9.1005001  74.5254374  48.8241005
   8.5515080  73.9845085  49.3917608   8.7359105  74.3998957  47.9480028
 115.7744598  94.7014618  63.3680534 115.4961014  95.4271507  63.9267397
 115.8501434  93.9560032  63.9636898  98.3454800  50.6290483  56.7527771
  97.8074932  51.2832642  56.3068962  98.6880684  51.0844851  57.5218296
  99.2483902  38.8211107  26.7862630  98.8538456  37.9900312  27.0506072
  98.5729218  39.4749522  26.9664645 112.5488377  56.6562176   8.4258246
 112.4067879  55.9899092   9.0981990 111.7115593  56.7143774   7.9655939
  98.9747524  31.4351153  46.4422989  98.1180859  31.2052584  46.0824013
  98.7756634  31.9354057  47.2336912 107.7170658  81.1112881  34.2221403
 108.2527828  80.3598690  33.9679527 107.9989529  81.8150425  33.6377668
  90.1512051  80.6038380  33.0100155  90.3739071  80.5754375  33.9405155
  90.2447891  81.5255451  32.7693582  70.7511806  40.1155663  41.6551208
  70.1068115  40.0767756  42.3618841  71.5725327  39.8437381  42.0646620
  54.4260693  94.3240929  38.6413932  54.9745846  94.0663052  39.3822813
  53.8606977  93.5672569  38.4871912  64.7287130  83.5010242  52.7051115
  64.7919559  84.4457340  52.8456736  64.9872494  83.3769131  51.7918825
  77.9841900  85.4380322  45.1650763  78.3901310  85.2609444  46.0136557
  77.6335001  84.5921898  44.8861551  89.1610718  69.4126844  57.2585773
  88.7036324  69.7696352  58.0198717  88.7907696  68.5373020  57.1453762
 113.9139462  77.8985643  43.7718964 113.5472298  78.5975122  44.3133926
 114.7813034  77.7377653  44.1434717  84.3288898  60.0076151  61.4117432
  85.0105858  59.4008017  61.1231184  83.5983944  59.8491907  60.8138275
  65.5758142  40.9598589  25.0723529  65.8677578  40.0493002  25.0290322
  66.1906481  41.4353466  24.5136738  89.5951557  53.6616564  36.0235810
  89.0492916  53.9118719  36.7690039  89.9109745  54.4925213  35.6683969
   9.8817025  80.3627396  53.2672644  10.1829777  80.3190136  52.3597622
   8.9548836  80.5926323  53.2011271  98.2205296  87.8041935  68.0528069
  98.7102127  87.0987797  67.6299143  98.4371185  88.5850143  67.5432587
   8.8887749  39.2690468  31.2776732   8.1278572  39.0793419  31.8265390
   9.6143875  38.8190866  31.7103982  75.6745434  42.5391626  29.7052979
  75.5490923  42.3064280  30.6252599  76.1021805  43.3951426  29.7309542
 115.7215881  80.6529331  37.7737331 114.9639225  80.5359745  38.3468723
 115.6268883  79.9704742  37.1092677  70.4303503  79.1037798  30.1610208
  70.8565569  78.5174847  30.7861924  70.4665518  78.6331701  29.3282843
 103.2124710  55.0266171  62.1788168 103.4200573  54.3029547  62.7699614
 102.2927189  54.8926830  61.9500208  88.2175446  50.0645828  19.0219593
  87.4893475  50.6856203  19.0385497  88.7164974  50.3013611  18.2401586
 104.3007565  84.8153591  44.1541386 103.5757446  85.4165268  44.3249750
 104.3714142  84.2922878  44.9526596  84.7978020  73.6160946  30.0846195
  84.7420502  73.2258940  29.2123413  85.7353020  73.6415195  30.2761507
  96.6887951  79.5172405  60.9299946  97.3600388  79.1638088  60.3462601
  97.1784115  80.0175095  61.5828705  92.6295662  71.6920710  67.9191303
  93.1027222  71.0889149  68.4923363  91.7135048  71.6035652  68.1822205
  75.5995703  75.3152752  78.0850458  75.5794764  75.6073856  77.1737289
  76.5224743  75.3685045  78.3333349   0.8067665  63.3673668  14.2558122
  -0.0754108  63.2468891  14.6072185   0.9104500  64.3165922  14.1891205
  84.4353867  44.4939661  43.7711954  84.1236496  45.2901936  43.3409882
  83.6385727  44.0046597  43.9758825  92.4609566  70.4041100  56.9327450
  91.9256401  70.1866865  57.6958942  93.2039642  69.8026705  56.9821692
  78.2036924  77.3544359  74.5229435  78.9313507  76.9326067  74.0659857
  77.8728437  78.0017567  73.9002514  71.5672827  77.7036524  47.8519392
  71.3801050  77.5588894  48.7794304  71.0300589  77.0562744  47.3952913
  72.9304218  68.9780998  54.0749359  73.4532785  69.2105675  53.3075953
  73.5475731  68.5412407  54.6618843  83.3326054  84.2688656  50.2563763
  82.4861240  84.0670204  50.6550884  83.1931496  85.1026535  49.8073959
  12.0839558  98.4962177  67.4113274  11.8031273  97.6948261  67.8530693
  13.0125008  98.3550835  67.2266006  90.5752468  99.2091560  62.0465565
  90.8453751  98.9998341  62.9406738  89.6678734  98.9089298  61.9939947
  86.4259529  69.4166851  78.3202744  85.7661533  68.8829184  77.8775644
  85.9965229  70.2605343  78.4607410  89.6181011  21.0755205  44.2841482
  90.0329876  20.2887630  44.6378660  89.8136330  21.0489297  43.3475113
  28.3222424  20.0478644  76.7844170  27.4612509  19.7842021  77.1090811
  28.4666001  19.4978566  76.0144287  45.5036831  67.5269175  69.4820547
  45.2514696  66.9938850  68.7280607  46.3190126  67.1327448  69.7920418
  79.5321035  64.8088264  47.6570797  79.2394352  64.0270567  47.1886683
  78.7237167  65.2668858  47.8871346 103.6091518  78.7621546  52.5838566
 104.2104721  79.0354967  51.8910837 104.1764927  78.3991241  53.2639885
  83.1450653  81.7658615  22.2370911  83.9291286  81.9558716  21.7219567
  82.6868725  82.6043415  22.2940397  56.4540625  24.1318274  42.2313643
  56.1192513  23.9493918  41.3533831  56.0723448  24.9787641  42.4620628
 105.6793594  53.1687069  48.2626677 106.4756584  53.3703709  48.7540627
 105.7808685  52.2516155  48.0079794  90.1834583  89.7283936  27.2742367
  90.4443169  89.1754913  28.0107784  90.5073929  90.5997467  27.5023460
  76.7067957  61.2660027  36.2073350  77.5498724  61.6229105  35.9279299
  76.9345188  60.5499887  36.8003774 115.7195568  67.3766708   0.1069535
 116.0955715  67.8815365   0.8280332 115.8447266  67.9302406  -0.6638418
  85.4559517  71.2552738  52.1131039  85.1378250  72.1548748  52.1888924
  84.8115349  70.7323503  52.5900793  68.2725620  63.4567022  40.3634882
  68.0421591  64.3692589  40.5377817  67.4322462  63.0197573  40.2250099
  81.6179562  81.9267273  37.6228189  82.4352837  82.0632458  38.1019521
  81.3748455  82.7983284  37.3106718 110.1562881  37.0577955  42.9599237
 110.2000332  36.5691400  43.7818336 110.9392834  37.6083517  42.9666424
  93.2772541  42.2130108  50.6313562  92.5116634  42.7384949  50.8636332
  93.6003113  41.8777037  51.4676809  87.7203655  59.3244123  62.4895906
  87.1294594  58.9249706  61.8512344  88.2330608  58.5923147  62.8322458
   6.2540589  43.8643837  68.3698273   5.5571995  43.4769297  67.8402042
   7.0629940  43.6003828  67.9314661  10.9555779  74.0120840  25.7591176
  11.3321934  74.8886871  25.6819391  10.0160275  74.1632891  25.8621573
 105.2822208  71.8641043  52.5930929 104.4434929  72.3240900  52.5586939
 105.4265976  71.6986227  53.5247612 109.3904400  71.0202217  27.3724747
 110.0859928  71.6771030  27.4031234 109.7887707  70.2321768  27.7419996
  29.9476979 107.1843523  95.0566727  29.4511578 107.4897093  94.2974365
  30.7616398 106.8409104  94.6881925  92.7913094  72.1593285  71.3838005
  92.9252911  73.0085373  71.8046618  92.6522923  72.3689985  70.4602480
  11.0963498  63.9836407  29.1454911  11.3559876  63.3659649  28.4618998
  11.6358242  63.7467003  29.8998547  65.8103739  22.6997848  86.5667188
  65.6064593  23.1430192  85.7431942  64.9888979  22.7169652  87.0577615
  70.6224728  62.0098209  52.5196791  70.3237581  62.3653078  53.3567190
  71.4749384  61.6208363  52.7152061  98.1466103  84.6421909  18.4434235
  98.1505680  85.5514336  18.1442451  97.8853798  84.6937180  19.3628430
  63.2634258  73.2335997  29.0043592  62.7875805  73.4169388  29.8144150
  63.0170250  73.9466429  28.4152174  81.3328457  75.3580427  48.0993223
  80.9629536  74.7276592  48.7174082  80.9484005  75.1200819  47.2556353
  95.0259590  76.7654848  69.8770094  94.2820263  76.8156290  69.2767811
  95.1230431  77.6564741  70.2130795  57.4657726  81.1267948  23.2277298
  58.0499125  81.6560841  22.6847100  56.7399931  80.8986759  22.6468372
 107.6503563  52.9863024  56.5083313 107.4771309  52.2952557  55.8690500
 108.5786152  53.1904411  56.3947582  93.7848949  67.4666452  49.5369720
  94.1947460  66.6451693  49.2659855  92.8456783  67.2827673  49.5198965
 106.3359833  58.3588266  19.6642995 106.8496799  58.4910870  18.8675249
 106.8376637  58.8013411  20.3489375 113.5799694  94.7748470  38.9858842
 114.1925240  95.3217602  38.4940457 113.8591862  93.8778687  38.8023257
   8.0131684  77.9414368  83.5918713   7.2456131  77.9161024  83.0205154
   8.0001507  77.0999718  84.0479374  70.9355927  40.8752823  57.6147366
  70.2906227  40.7498121  56.9186735  70.4854393  40.5952072  58.4117031
  89.5133972  64.1289186  27.2050214  89.1179085  63.5084486  27.8172612
  88.7860298  64.4187355  26.6544080  81.7826080  38.2152963  30.6795216
  82.7052402  37.9681301  30.7419729  81.4668083  38.1922698  31.5828347
 106.5054035  62.4343348  70.3728533 107.3320866  62.9006958  70.4967117
 105.8314610  63.0955458  70.5304289  21.9277249  70.1418638  22.4421978
  21.8074952  69.5317411  23.1698799  22.5997506  69.7339058  21.8961287
   4.1366921  77.1744347  41.7387533   3.7429104  76.9411182  40.8980846
   4.6277295  76.3947058  41.9978666   9.0470944  61.5391445  63.5564184
   8.9007244  61.9000435  64.4308090   8.6034928  60.6910515  63.5700130
   2.6849614  62.4137163  33.8739753   2.8748093  62.4817181  34.8096919
   1.7317639  62.4804735  33.8175082 101.7031002  39.6049881  25.3492284
 100.7985878  39.4081664  25.5928445 102.2184372  38.9115095  25.7612371
  71.9329071  92.8135872  49.2716551  72.8221560  92.4758625  49.1648483
  72.0258665  93.7628174  49.1906404 102.7242184  29.9426389  25.6837177
 102.0034218  29.8392630  26.3050103 103.1491375  29.0851283  25.6650043
  87.0487881  30.3737974  26.1060333  86.4487457  29.7454715  25.7043052
  86.4800739  30.9714007  26.5914917 100.2941513  62.7664900  67.8750610
 100.0433636  63.6121321  67.5032616 100.6469822  62.2741508  67.1338844
 112.6772594  73.8396788  23.0067372 113.0858517  73.5014343  23.8035274
 113.4073257  74.1777849  22.4881601  13.3788548  51.7436457  38.9663720
  13.5457669  50.8036041  39.0348840  12.8273545  51.9447088  39.7224474
  56.8980110   8.5908943  19.3264693  57.2658336   8.4494739  20.1987952
  56.6200626   7.7209478  19.0398234 110.9991360 106.3020039  18.2713151
 111.7154503 106.7339706  18.7366474 110.3496742 106.9923306  18.1375575
  78.6376667  34.6564531  36.3604617  78.0845165  34.7817278  35.5893803
  78.8887024  35.5424523  36.6216469 104.8170246   2.3310042  78.0582285
 105.4120268   2.0804930  77.3515129 104.0244020   2.6267863  77.6104546
 116.1218166  41.7131710  35.4003906 116.0739613  40.9695864  36.0012412
 116.8824291  41.5275669  34.8497152 103.4089661  58.4901190  24.1076279
 102.7710056  58.6482906  24.8034883 104.2276859  58.8522434  24.4464445
 103.3630943  59.3769360  58.9766073 102.4162197  59.3307161  58.8441944
 103.7135887  58.6562252  58.4531975  72.7172995  62.8030252  42.4960279
  72.5859451  62.4782228  41.6052532  73.0692768  63.6855268  42.3797083
  79.2061901 106.5705204  45.2675819  79.3876505 107.0473289  46.0774946
  78.5326004 105.9349632  45.5095959  72.7287960  54.4859314  37.1780324
  72.0757866  54.2250538  37.8274584  73.5697412  54.3049240  37.5978875
 105.1027966  65.5652523  16.4334583 105.0943565  65.5625439  15.4762995
 104.1795349  65.5160379  16.6812563 101.2908173  34.7125006  46.6381836
 101.1245441  33.7764812  46.5265846 102.2321701  34.8075104  46.4931059
  97.8511143  47.2568607  43.2089663  97.7668190  47.7078295  42.3688698
  97.4745846  46.3904810  43.0545616  96.6216755  90.5159760  17.6047051
  97.3546219  90.5899811  18.2158864  96.6561413  91.3226509  17.0905805
  96.3659096  63.7856436  39.5496345  95.6231976  63.2335138  39.7941113
  96.2616730  63.9242601  38.6082768  85.9168816  80.2769279  40.8701277
  86.1477375  80.1484108  39.9501157  85.8525944  81.2266731  40.9705162
  81.0590935  28.8926125  36.0192490  80.1409912  29.0835238  36.2112617
  81.0843372  27.9447341  35.8884001  88.2415581  67.7949047  88.5974503
  88.5165501  68.7117529  88.5950947  89.0130043  67.3142385  88.8975430
  97.6246643  96.3584709  37.2821259  97.0654964  96.7286968  37.9651284
  97.5061321  96.9423294  36.5329337 102.0357227  70.3823805  46.6994429
 102.0807266  71.0755539  46.0408735 101.6417694  70.8032227  47.4635935
  94.1512489  89.3485641  70.6608057  94.6116257  88.5109234  70.6092930
  93.2368279  89.1307926  70.4801369  98.8845825  50.8879137  14.1650343
  99.7995949  51.1547852  14.0769851  98.6132717  51.2389088  15.0132251
 111.2957001  39.7805476  62.9211569 110.6462097  39.1694140  63.2688856
 112.0441723  39.6963453  63.5118628  12.0623932  57.6289940  31.5747809
  11.8640004  57.5248623  32.5053883  12.9652176  57.3234081  31.4867020
 106.8009363  23.1882138  88.1216538 107.3675333  23.7448115  88.6558777
 105.9539114  23.2111831  88.5669213  92.9708385  67.9471445  45.9764099
  92.9463387  68.4883261  45.1872635  92.0673752  67.9436779  46.2926006
  54.5094967  93.3849621  68.9233017  55.4381990  93.5251045  69.1079807
  54.4646788  93.3012009  67.9708290  95.3482533  62.9961777  49.1724920
  95.7721710  62.1566582  48.9943743  94.4203758  62.8375530  48.9989328
  92.7048874  40.9247160  59.1477394  92.5284958  41.7032194  59.6759939
  92.7757359  41.2541962  58.2518291  20.9740792  37.4947333  51.2400007
  21.0590325  38.2642269  50.6770706  20.1177273  37.5954223  51.6556549
   0.5604134  49.6433258  44.1259813   1.0098801  50.0093317  43.3642387
  -0.2658310  50.1245451  44.1706419  66.2656403  39.2921472  51.9171143
  66.5228796  39.0317535  52.8015661  65.3305149  39.0929818  51.8712425
 100.6905174  13.7180626  42.8424644 100.6893158  13.0521369  43.5300493
  99.8359108  13.6284566  42.4207544  24.9147091  72.2584629  24.7275996
  24.9963627  71.6813850  23.9682937  25.7456646  72.7325869  24.7585559
   6.3536142  11.9312049  22.6394820   6.5426611  12.7156401  22.1245456
   5.5748819  12.1597720  23.1469989 100.3265095 104.2910767  81.9375801
 101.0886288 103.9600372  81.4623642 100.4143810 103.9234829  82.8170013
  97.0515823  77.4952745  86.8494129  96.7520523  77.2835207  87.7335262
  97.2617245  78.4284544  86.8847942 103.7090778  73.5550213  21.8537402
 104.6283340  73.6309385  21.5979528 103.3463097  74.4283199  21.7054868
  92.1202278  62.4696875  23.2025266  91.5653610  62.3968792  23.9790916
  93.0130100  62.3853350  23.5372901  95.4754257  70.2978134  25.1324487
  96.2324142  69.9877405  25.6294990  95.8446121  70.6209898  24.3105626
 106.2874985  71.9633961  41.5802813 107.0883465  71.4633512  41.7378521
 105.8873940  72.0536232  42.4451590  87.3414040  80.0719929  32.0270634
  87.6410198  79.1629076  32.0327044  88.1466103  80.5895138  32.0200133
  21.6918145  97.9719067  35.3115582  20.9711609  97.6056671  34.7989655
  22.4522267  97.9108429  34.7333813   9.6282635  82.8443050  59.6786404
   9.9566136  83.7259483  59.8550940  10.0890503  82.2871208  60.3059006
 116.2051929   4.6156836  20.5483580 116.1920322   5.5560733  20.3702784
 115.5631269   4.2479087  19.9411237  96.9478798  64.4388533   7.8453815
  96.4510536  64.0181732   8.5471171  97.4612045  65.1150703   8.2874846
 108.8399792  87.8260517  35.7993793 108.7855721  87.1151543  36.4380503
 109.7785091  87.9814053  35.6932831 101.5673637  62.4236536  32.3196244
 102.4506092  62.7260494  32.5309682 101.3536358  61.8029261  33.0162215
   0.6021176 103.8329411  43.1702995  -0.1106968 103.5659409  43.7506771
   1.0793839 103.0232811  42.9889727  10.1830063  47.4694538  43.6930943
  10.1650868  48.4264708  43.6983395  10.1589642  47.2243738  44.6180725
  25.6810354   4.8687793  19.4964695  25.1790594   5.5474044  19.0451241
  26.3665461   4.6244765  18.8746798   1.5517865  78.4116697  19.6523571
   1.1605034  77.8279686  19.0024161   1.9479237  79.1136885  19.1361427
   3.1051312  93.7243176  51.5778828   2.5908623  93.5554123  50.7884359
   3.7292061  94.4015408  51.3168573  99.4706249  72.4256897   6.4928246
  98.7347984  71.9047308   6.8143713  99.7625160  71.9671726   5.7049191
  72.7979946  59.7206402  16.5503120  72.6991129  58.8080072  16.2790978
  72.0902109  59.8616743  17.1791077 108.6065960 102.1088123  36.1601686
 108.2366848 101.5620995  36.8533492 109.5212269 101.8330193  36.1000013
  41.6686510   2.1070719  37.9663467  40.8249735   2.5592280  37.9646730
  41.8599390   1.9603968  38.8926959   0.8739815  88.0287457  69.6613216
   0.2388821  87.5666046  69.1142321   1.6400299  87.4549866  69.6757603
  98.4076595  61.6887331  40.3335381  97.7323818  61.0144854  40.4085016
  97.9654503  62.4245644  39.9101782 107.4432087  83.6916351  11.4485204
 106.6062164  83.2285976  11.4127409 107.2155190  84.6096897  11.3016701
  27.5754128 108.1189060  33.3142424  28.3579979 108.4605217  32.8816962
  27.1050988 108.8986778  33.6091995 110.6848621  99.4584846  73.1002617
 111.6306400  99.3698692  72.9824400 110.3195763  99.3056870  72.2287989
  25.4262982  86.6345215  27.7130771  26.1107693  86.1358738  27.2668958
  25.8819638  87.0815277  28.4263635 111.5508652  74.6044731  55.1140833
 111.1922169  73.7458992  54.8894358 112.3171997  74.6993828  54.5484447
 114.9322033 108.2588768  41.4535618 115.4606438 108.5293102  42.2044659
 115.3972054 108.6105156  40.6943798  21.1939310   1.5716410  37.4869442
  21.9531416   1.1582041  37.8979039  21.2602114   2.4939109  37.7344537
  93.7608624  82.9051971  48.4573650  92.9445553  83.3648968  48.2610035
  94.4490337  83.5111141  48.1825924  10.1459084  56.8306494  26.4457560
   9.7600232  56.4218235  25.6710362  10.5477677  56.1054993  26.9241881
  82.6293087  91.3929939  14.1984916  82.0893764  92.1399975  14.4567490
  83.1617260  91.7214012  13.4739852  46.6861605   6.8957854  41.4132309
  47.5782847   6.7365218  41.1050463  46.4554857   6.1037398  41.8987083
  17.1169720 106.1590767  46.5810966  16.5036068 106.1167812  47.3147297
  17.4571095 105.2678871  46.5016079  91.4688587  88.7086010  70.5451393
  91.1668396  88.9502239  71.4207172  91.5683460  87.7572346  70.5801535
  20.1503525  85.5362988  52.0310545  20.2535496  84.5954895  51.8880367
  20.4827462  85.9384441  51.2285423  45.9016489   4.0782405  69.5811224
  45.6183409   4.6707297  68.8847589  46.6069864   4.5496131  70.0244474
 111.8264580 109.0369320  64.8772621 110.9977818 108.6726093  64.5661545
 111.9370174 108.6668491  65.7530737 107.6586246  55.8310270  26.1042857
 106.7403030  55.8626890  25.8361030 107.6269913  55.7353735  27.0561671
   9.7470818  73.4183025  66.2837982  10.3882561  74.1212511  66.3886118
   9.3404065  73.5897398  65.4344130 113.1766319  80.4229641  34.6759248
 113.7503719  80.0037003  35.3172231 112.7896595  81.1608791  35.1470685
  71.6509056  79.5314026  40.7023382  70.9048843  78.9333296  40.7470083
  71.2685251  80.4006672  40.8223200  16.5111136   2.9720641  24.3348169
  17.3803495   2.9058982  23.9394903  16.5868639   3.6922599  24.9607635
  83.7880802  83.7235069  59.8044968  83.5535145  84.6331310  59.9883080
  83.1622696  83.2073975  60.3126526 103.9506626  64.7302723  51.9945002
 103.6316681  64.5457172  51.1110878 103.2766628  65.2896786  52.3805285
  16.6217385  99.4721413  51.7744541  17.1599827  99.3455410  50.9931135
  15.7385407  99.2262173  51.4993000  32.2759890   9.3726588   7.8934944
  32.4724936   9.0756655   8.7819862  33.1262182   9.3931342   7.4542642
 114.5380878  84.5429420  17.9726958 113.9376259  83.8053703  18.0806923
 113.9793396  85.3176880  18.0344272  93.4743786  71.7189693  29.9181032
  93.3686352  70.8316231  30.2611279  92.9428005  71.7330027  29.1222000
  97.5594044  52.3564482  53.3876085  96.9141579  52.1010208  54.0468884
  97.9741383  51.5340281  53.1271315  93.2093620 103.5569286  19.2238843
  94.0701199 103.9591789  19.1076672  93.2668209 102.7271557  18.7501657
 112.7094173  68.5040712  33.1547785 113.5556602  68.9433622  33.2392287
 112.6187992  68.0011654  33.9641643  15.0517807  83.5401344  66.3511753
  15.0750409  83.1347466  67.2179794  15.9085617  83.3441544  65.9720373
  95.3640175  56.3493967  79.1475058  95.9279919  55.5779028  79.0930700
  94.4968605  55.9983587  79.3500948 111.6212368  57.7798891  38.6927915
 112.3759365  57.7280140  38.1062937 111.6170311  58.6871052  38.9980316
  99.1632175  86.0589790  31.5021133  99.1569138  85.4612160  30.7545352
  99.3094826  86.9228935  31.1167645  91.8823242  79.6080589  35.9928489
  92.1988869  78.7797451  36.3532782  92.6416969  80.1898098  36.0267663
   5.7809887  72.9015350  74.6172476   5.9100113  72.4609900  75.4571915
   5.1040135  73.5554838  74.7912788  95.3659439  81.8138790  62.4867105
  95.8282375  81.3247204  63.1673336  94.4868374  81.4353752  62.4749470
 106.8901539  64.0596342  20.4150891 107.0481682  64.7135973  19.7342110
 107.6375198  64.1447973  21.0070539  92.8713608  67.7583265  20.1722074
  92.6121140  66.9865179  20.6755280  92.4343872  68.4882593  20.6109428
 109.3181801  73.7904596  43.1325293 108.3787441  73.9554691  43.0520964
 109.6614075  74.5689583  43.5711288   4.2246590  59.0675354  22.6935053
   3.9530239  58.8620567  23.5880589   4.2826615  60.0227833  22.6742554
  88.4308529  57.2748947   5.1770455  88.1714344  56.3619041   5.3010893
  89.3214512  57.2257519   4.8296940  67.8287398   8.0573983  77.4008685
  67.9882037   7.1254821  77.2514123  66.8893992   8.1146092  77.5758368
  70.2376556  88.0110741  54.1999865  70.6488514  87.5318527  54.9193573
  70.9119368  88.0498600  53.5217047   5.2781258  76.2236881  37.9355240
   4.6542702  76.0397100  38.6378002   5.9570084  75.5566216  38.0373859
  11.7842255  83.8524532  41.8661880  12.6099930  83.9630032  42.3374844
  11.3686333  83.0985832  42.2847509 102.7358341  40.6659508  79.6155214
 103.2384682  39.8814011  79.3962717 101.9205093  40.5735683  79.1226196
  84.6974659  74.6662235  32.4863124  84.5587254  74.1330957  31.7035246
  85.6225967  74.5432091  32.6989961  42.1161627  31.3062144  65.0198793
  41.3979792  31.8824244  64.7582817  42.8486990  31.8984748  65.1897430
 104.1846657  54.8656416  13.3554554 103.8648987  54.5436335  12.5126672
 104.5507050  55.7280159  13.1591070  99.2541790 108.9133835  54.0787315
  99.4241714 107.9715347  54.0946484  98.3672523 109.0026093  54.4274950
 100.5968094  95.4921341  29.6263695 100.2514267  95.5199432  30.5186510
  99.8443699  95.2519131  29.0856624 113.0204773  70.2114534  15.9816325
 112.1783161  69.7658443  16.0734653 112.7986813  71.0716391  15.6251025
 100.2857126   0.7871390  51.2450171 100.4930414  -0.1190900  51.0170174
  99.7077049   1.0846472  50.5424309  36.4127993  11.7623854  42.0565271
  36.1840891  10.8473063  42.2194576  37.1376490  11.7206908  41.4327574
  14.2333292   2.5297881  80.9405804  15.0812601   2.1116877  81.0903835
  14.3655180   3.0661154  80.1588535 109.2616558  90.3879547  15.6299484
 109.1127396  91.0684395  14.9734461 109.1506767  90.8358383  16.4685857
  90.7037640 100.5411243  18.2410181  90.0811195 100.4828835  18.9656878
  90.1844788 100.8635044  17.5043762 113.5878849 106.6564083  38.5003638
 113.9267063 106.3979149  39.3574572 113.5411835 105.8388329  38.0047607
  99.3860912  48.0362463  91.4919853  99.7414970  47.9852676  90.6046772
  98.5393143  48.4698725  91.3862705  88.7855339  70.8459806  65.6100321
  88.4940910  71.2765121  64.8063278  89.2874146  70.0890064  65.3077984
  88.7436104  67.3233843  69.1872692  89.3699551  67.2304916  69.9051094
  87.9464626  67.6487112  69.6055365 113.6658764  62.2080326  45.9372663
 113.5418224  61.2713051  45.7843447 113.7838459  62.5798559  45.0631618
  99.6526337  84.6093369  26.5749025  99.9501991  85.5022430  26.4005256
 100.3194237  84.0520096  26.1736441  10.0210642   2.9089022  37.8159261
   9.8496698   1.9754649  37.9406309  10.6529593   3.1298876  38.5001016
  20.7027792  12.0533324  64.5812798  19.7627138  12.0202208  64.4040728
  21.0195326  12.7890540  64.0572453 112.8031445  47.3065758  76.1604357
 113.5966492  46.7842770  76.0430336 112.0868015  46.6974831  75.9812832
  38.7481093   8.3800555  36.7454886  38.5665297   9.1621543  37.2666168
  37.9120134   8.1699801  36.3295126   5.4522572 104.2819786  30.6717205
   5.6636200 103.5928726  31.3015485   5.6832180 103.9082527  29.8213005
 113.1499767 110.1234245  42.5639486 112.3576546 109.7277927  42.9271650
 113.6590385 109.3821907  42.2358274  26.3744902  14.4248915  58.9507961
  26.7188334  14.9548388  59.6696997  25.4251169  14.5336390  59.0064621
 114.8699570  46.4232779  57.0418072 114.2547417  45.7394743  57.3066568
 114.7488499  47.1181393  57.6889038  42.6056074  30.8758593  47.6315832
  41.6908430  31.0054446  47.8818750  42.9511999  31.7615081  47.5201273
  96.1689949 106.3134098   6.0435826  95.9807014 106.5872574   6.9412374
  96.7990017 106.9589996   5.7233781   4.7671185  87.2069263  42.2906399
   3.8935719  87.1778011  42.6808786   4.6700344  87.7777576  41.5284300
 108.5668468  93.7509918  38.0505228 109.3586445  93.2826138  38.3149529
 107.8542614  93.2792759  38.4817219  53.8711523  16.8969966  20.8462358
  53.6464571  16.1133433  20.3446174  53.0715155  17.4230910  20.8395767
   0.6740723  95.8238029  17.8310287   1.4149533  95.5666065  17.2822285
  -0.0956287  95.5081081  17.3576176  22.6978741  94.0824795  25.9173417
  22.8972302  93.2024956  26.2368917  22.5018559  93.9612389  24.9883056
  95.9262753  82.9955673  74.8447084  96.5002155  83.7221813  74.6021271
  96.0956955  82.3252296  74.1827536  99.4994736  75.6698561  56.4560127
  98.6404705  75.3076077  56.6730690  99.3085575  76.4109755  55.8810997
  16.2707113  26.4876128  66.2924719  16.6422724  25.6459285  66.0283804
  15.3752398  26.4706565  65.9547186  64.8323774  79.9958658  58.6649656
  65.5321646  79.7421455  58.0631685  64.1522694  79.3352365  58.5336018
   8.9513359 101.5314960  40.3458977   8.9996968 101.7507744  39.4154119
   9.0384159 100.5786228  40.3722620   8.0958996  70.6350136  13.2296979
   7.3931466  71.2722158  13.1018388   8.2148133  70.2336407  12.3688889
   2.0473824  69.3229389  57.2674084   1.8942795  68.4787846  57.6919031
   3.0005036  69.4029474  57.2301912   5.4183636  48.8010836  48.9117098
   5.4861699  49.5710230  49.4763660   6.3052807  48.4417820  48.8891172
 105.3770638  91.0445023  36.3558388 106.2388039  90.7771111  36.0362649
 105.4637814  91.0420990  37.3090982 111.5588474  33.0207181  28.3751965
 111.3027096  33.3981633  29.2167211 112.3418522  32.5064206  28.5717607
  82.6616955  85.8645058  56.5805340  83.2413483  85.4020023  55.9752846
  81.8042946  85.8417034  56.1555910  12.7618943 107.5122929  44.7885466
  13.2571850 108.1223774  45.3350973  12.4206791 108.0522156  44.0756083
  16.4311753  39.7726011  40.8012056  15.8740673  38.9945173  40.8224821
  16.9555436  39.6700859  40.0070000   2.3169289  62.1332645   8.4223014
   1.5259800  62.3042727   8.9335662   2.5147496  61.2115431   8.5882181
   9.1146431 101.8245411  46.4607620   8.9784489 101.3696766  45.6296253
   8.4287701 102.4918365  46.4837933 108.5118771  97.1716022  32.4998856
 109.2338562  96.9049931  33.0690050 108.3616638  98.0913258  32.7184677
 113.2965755  81.1371708  64.5428514 112.3869324  80.9253120  64.7523737
 113.4248352  80.7940102  63.6585331  23.8195108  20.0452567  66.7691326
  24.5041823  20.4320384  67.3148966  23.4431433  20.7870627  66.2955093
  96.1462021 105.0936127  25.6195951  95.5180550 105.6719780  25.1869774
  96.9400024 105.6219292  25.7032585  90.5382729  82.5573540  55.2598333
  90.6660461  82.9000854  54.3752766  90.4250050  81.6147900  55.1374435
  70.0528145  70.0899601  51.1638308  70.5090761  69.9396896  51.9917631
  70.2316093  69.3050718  50.6459332   3.8328610  34.2741919  34.6391249
   3.5606346  33.3589983  34.5716906   3.5820637  34.5339799  35.5256033
 101.9321251  92.7437496  49.3553734 101.6228962  92.8719902  48.4586239
 102.8724098  92.5892353  49.2646933 101.2773895  69.7505474  87.9474354
 100.3434277  69.9361229  88.0449581 101.3601589  69.3970966  87.0617485
  96.3588142  99.0385723  62.0666790  95.9053421  98.2985115  62.4702930
  97.2884274  98.8392830  62.1776962  97.7023506  59.2478704  34.2192483
  98.1895924  59.5648336  33.4587479  98.2623005  59.4573593  34.9667740
  96.6944695  84.8636627  38.9712501  97.1035671  84.8174095  39.8353839
  96.3460255  85.7536221  38.9185429 116.0163225   1.4847518  42.3766899
 116.7246784   1.5425444  41.7355013 116.0401739   0.5767680  42.6787519
 109.1778088  52.7971745  61.4722157 108.5740948  52.5210667  60.7826281
 108.6467838  52.7995825  62.2686052  61.2434673  84.6803665  52.9442215
  61.2416267  83.7239265  52.9823256  61.4049292  84.9557114  53.8466358
 110.8854103  69.0956831  41.9684410 110.5554581  68.6338758  42.7392197
 110.1014423  69.4452477  41.5448427   4.7173748 101.5461826  51.3122749
   4.3036042 102.4020386  51.2002993   5.2265416 101.6299438  52.1184778
  17.3180937  21.4983607  48.8525963  18.2593130  21.4563990  49.0216494
  16.9546198  20.7564212  49.3359566 109.3735504  92.8814983  73.4625816
 109.9223423  92.4086285  74.0882397 109.9712372  93.4955215  73.0359745
  95.1032829  48.6385393  54.9503231  95.0283623  48.0293226  55.6848097
  95.3386116  48.0866861  54.2044592 109.4702339  45.4500198  39.1444063
 108.8832378  44.7008991  39.0419888 108.9390850  46.1116695  39.5875001
  87.4117361  33.8221784  93.3642918  87.9953371  33.4253354  94.0109397
  87.9846083  34.0484185  92.6315793  10.9885464  39.1996408  28.1761360
  10.2507935  38.8335061  28.6638880  10.9653530  40.1359129  28.3738446
 105.8820820  59.3311596  51.7244864 105.2252960  58.6657095  51.5194559
 106.5582848  58.8586807  52.2100210  81.3943100  58.4565878  63.1588840
  80.6342602  57.9163933  63.3751202  82.1475506  57.9199648  63.4056473
  96.6145802  59.0315485  64.6279669  96.5312386  58.1243372  64.3342733
  97.1997833  58.9857292  65.3840542  74.7582293  67.6000023  55.5766869
  74.5106411  66.7904806  55.1299095  74.8620224  67.3454332  56.4935589
   5.3807698  28.8243103  76.4658546   6.3017998  28.5887074  76.5773153
   5.0508080  28.2011890  75.8184910  24.3816719  63.3946705  29.4558477
  25.3030453  63.2168531  29.6447396  24.2954312  64.3427753  29.5553160
  91.5506268  49.0917063  34.4159794  91.0264206  49.7823238  34.8215532
  92.1869946  49.5600605  33.8756895  80.5176544  93.6525631  67.4016476
  80.1150513  94.3813515  67.8738785  81.3422108  94.0082359  67.0702314
   6.6284428  74.0868902  23.9019418   6.7745362  73.3309603  23.3332038
   5.7551918  73.9461470  24.2678022  16.4394532  48.7614202  66.6087294
  16.1963902  49.5033407  67.1625423  16.1463890  49.0106583  65.7322454
  95.9093761  74.3012285  47.2461987  95.5731583  73.5623884  47.7534437
  95.9563541  75.0216484  47.8747082  72.2906160  80.1626778  16.0322464
  72.5979996  79.2566395  16.0613215  71.3759851  80.0966072  15.7578194
  83.6086941  84.2928791  54.5232153  82.7357292  84.2197418  54.1374636
  83.7878036  83.4218407  54.8773813  92.3624706 108.5500145  57.5770617
  92.2218895 108.4871674  56.6323280  91.9876671 109.3968582  57.8191710
 103.5902977  62.6487446  63.8273954 104.1298103  62.5610304  63.0416012
 103.7137127  61.8232822  64.2960262  95.3303432  84.4794369  62.0297098
  95.4165649  83.5804462  62.3469067  94.9653912  84.3888760  61.1494589
  98.2235813  78.3518696  58.7945795  98.4888363  78.7273550  57.9550028
  97.9886246  77.4470711  58.5887575  88.5817623 109.4006157  55.3570652
  87.9122543 109.2986584  54.6806002  88.4248447 108.6745071  55.9607124
  40.7949328   3.4143592  48.7455320  40.7950853   2.8012324  48.0104733
  41.4193319   4.0937186  48.4908867  96.0005856  55.0253868  44.9460840
  95.3345776  54.3711948  45.1574898  96.4550972  55.1806831  45.7740593
 111.0823059  90.5277061  24.1434956 110.3688049  90.7859802  23.5600138
 110.6552792  90.0212479  24.8344207  79.6684361  83.5611629  73.5974169
  80.3389549  83.8248920  72.9672813  78.8396263  83.7732506  73.1680822
  93.6646080  83.4212780  42.2854042  93.2077312  84.0553856  41.7327642
  93.9706326  82.7493382  41.6762543  73.0269241  77.7912188  36.2561226
  73.7976980  77.5719023  36.7796135  72.8609896  78.7139702  36.4490771
  57.1488380 102.2470760  57.4731874  56.7113638 101.4961433  57.8743601
  57.9012489 102.4168587  58.0400085 107.6519394  40.1551008  43.3957434
 107.4865246  40.3314114  44.3219090 107.2797012  40.9089804  42.9382086
 111.9557476  93.4476662  26.6812348 111.1601353  93.7018585  26.2136579
 112.5862026  93.2467556  25.9895778 114.0525818  63.6557865  53.4220076
 113.4115696  62.9637957  53.5847187 114.6163177  63.6467695  54.1955423
 108.1069183  70.1934242  31.0923362 107.7075958  69.4166851  31.4840651
 107.3865223  70.6293583  30.6371140  96.7414570  83.1843853  77.6593781
  96.8271828  84.0894890  77.9588366  96.4014626  83.2583237  76.7676544
  25.2486204   5.9334040  87.4591541  25.5071901   6.4109469  86.6709137
  24.3655752   5.6169177  87.2686005  48.7477755   9.2820311  39.6633554
  49.6177172   9.0079833  39.9537492  48.6935782  10.2058459  39.9080420
 104.5234680  79.0430498  22.9077673 103.8054848  78.5267210  23.2740116
 104.7101784  79.7018576  23.5766029 114.4854832  85.8494949  34.6101737
 115.2591419  85.3003120  34.4833660 114.5444775  86.1398792  35.5203533
   0.2274285  59.8488951  53.3972025   0.4250489  60.6204605  52.8662968
   1.0747681  59.4221926  53.5243273 108.3172703  85.4778385  37.5966907
 109.0653992  84.9000740  37.7474165 107.7940750  85.0247002  36.9355083
 116.0128880  74.1277170  41.9280481 115.1225090  74.1264200  42.2794056
 115.9717274  73.5458612  41.1691093 111.4277077  72.4289846  50.9429312
 110.8636189  71.9184303  50.3620958 111.6996193  71.8083858  51.6190672
 108.9561939  91.6549969  48.2018948 109.2959976  91.1172867  48.9171791
 108.1084824  91.2640858  47.9902220  96.7699718  24.8809671  36.6960669
  97.6581764  25.1954627  36.5274763  96.3143730  24.9913383  35.8615160
 109.4478798  89.3702793   2.7794400 110.3694820  89.1121197   2.7636492
 109.3383598  89.9150372   2.0000350  78.3356953  82.9020882  42.5028324
  78.0443668  82.4694824  41.7002058  78.4606361  83.8168240  42.2500849
 114.6885681  64.3926239  35.5324650 114.6807957  64.5167017  34.5833731
 114.5099735  65.2627087  35.8892345  76.5272379  65.0316620  13.7882042
  76.1189795  65.7434130  13.2952905  75.8376503  64.3733692  13.8739276
  76.7051601  27.7949762  41.7367697  75.8011341  27.5114083  41.6005421
  77.1850729  27.4308228  40.9929276  33.4996186  48.5943127  32.8484893
  34.2424546  48.1671381  33.2750511  33.6726818  49.5305443  32.9472399
 111.4179134 108.3346176  61.0611486 111.4126778 107.5676537  60.4884720
 112.3437691 108.4843826  61.2524462  88.2460308  57.4812698  65.3409195
  87.9567242  58.3561945  65.5998421  88.9754391  57.6378965  64.7412109
 106.8383694 107.4085236  60.6734085 107.4590397 108.1144619  60.8541059
 107.3087311 106.6094208  60.9109259  11.3246498  73.2338333  93.2357121
  10.5330525  73.7663603  93.3132458  12.0430909  73.8647652  93.2804489
  27.1665548   3.6328555  36.6127634  26.4228129   3.5045005  37.2014999
  27.8543638   3.0709792  36.9697475 113.9889526  79.2009640  24.9204421
 113.9456463  78.2932043  25.2209854 113.2305241  79.2991066  24.3447709
  18.9211045  90.4075146  63.3890629  19.3882141  90.5526352  64.2118549
  19.5810185  90.5503845  62.7105856   3.9846859  54.6071053  46.7748928
   3.7950001  53.8410521  46.2332153   3.5478554  54.4260645  47.6071405
  83.7927914  75.7431173  48.8219881  82.8651619  75.6507921  48.6047077
  84.0724564  74.8588657  49.0588903  18.9786492  58.2475185  51.2688684
  18.0397950  58.0611944  51.2604713  19.0366612  59.1921377  51.1254787
  88.6140347  88.1666183  54.0466166  88.3669567  87.2727966  54.2838335
  89.4680691  88.0749226  53.6241961  76.0251284  90.1334190  40.8364010
  76.8006992  90.3822803  40.3336191  76.3736343  89.6998024  41.6153431
  84.1707325  73.2093096  37.2380710  83.6870384  73.5475588  36.4845037
  84.2004490  72.2628212  37.0983815  79.5634699  69.9105978  25.7509565
  78.9985418  70.3998566  26.3490486  80.0245476  70.5846930  25.2517200
  89.5848656  33.7514925  39.3960357  90.3912354  33.3443856  39.7126698
  88.9496231  33.0359459  39.3697548  66.9345176  46.6076570   3.4223765
  67.7647102  46.1370092   3.4965724  66.2718666  45.9185129   3.3754367
   6.5902672  62.2679901  27.9062462   6.9190941  63.0120420  28.4107137
   6.7771874  61.5057373  28.4542084  94.3884277  85.0661469  23.2217479
  93.7717247  85.1299953  22.4924803  93.8578892  85.2376461  23.9997864
 104.6296024  87.2355366  61.1332130 103.8833046  86.9495392  60.6064415
 105.0756073  86.4244175  61.3769388 102.9547024  76.7252922  58.8863945
 103.6119175  77.0100451  59.5213795 102.5536060  75.9537506  59.2864799
   1.3359223  80.3880692  46.8033457   1.9957791  79.9796915  46.2429380
   0.5759392  80.5040359  46.2330770  10.8291397  73.1592655  32.1859980
  11.3373528  72.3490381  32.2245407  10.8650360  73.4209681  31.2659669
 111.3938618 102.9615688  44.2632914 110.6099796 103.2404613  43.7900114
 111.6971970 103.7514973  44.7107792   8.5839329 102.6744938  56.9373703
   8.7084446 102.0720577  57.6707172   8.1150780 102.1591377  56.2810040
  23.8589644   6.7165900  62.2728491  24.3793367   5.9823085  61.9468594
  24.4632315   7.2113372  62.8262997  14.6710835  67.3199177  37.0050693
  14.8798142  66.3924932  36.8930221  13.7521229  67.3279476  37.2727847
  93.6374855  72.4961090  24.9866414  94.2005634  71.7233086  25.0308156
  94.1679478  73.1535482  24.5365119  14.5191155  92.3580456  59.1651249
  13.8013993  92.5515079  59.7681904  14.3436680  92.9062366  58.4003115
 105.7143593  71.1930180  29.7097421 104.9424744  70.7747555  30.0911498
 105.8207512  70.7685137  28.8584423 106.5819836  67.9655790  19.1340160
 107.2969341  67.4452400  18.7675071 106.1277771  68.3203936  18.3697915
 107.8324795  90.9028912   5.2909446 107.5762653  91.8238640   5.2420539
 107.1459579  90.4908085   5.8154434 109.6396065  84.9827194  50.8375454
 110.5081367  84.6861649  50.5656290 109.5574284  84.6845245  51.7433929
 111.6152573  99.1175461  21.4920473 111.5044689  99.9152756  20.9747648
 112.4877453  98.8002205  21.2590122  33.1611418   5.1509906  27.7048373
  33.8568091   4.5299960  27.4888921  33.6217856   5.9175540  28.0460548
   9.8180352  87.3202991  65.5523634   9.0847741  87.9352951  65.5708313
  10.2550564  87.4936008  64.7185707 104.0475082 103.6886978  46.0598421
 104.8642826 103.4789181  45.6069613 104.3066025 103.8219643  46.9716215
 110.2891541  65.9488630  52.1898365 109.5984936  65.3317690  51.9481707
 110.6961727  66.1906433  51.3579035  19.0091394  13.8416815  46.3177109
  18.8157152  14.7440482  46.0636473  19.9084734  13.6975051  46.0233450
   4.9335156  84.3165588  19.1058874   4.9674569  85.2584839  19.2728043
   5.7710133  84.1171360  18.6874831  69.6970129  93.3054733  46.3006735
  70.1043415  92.4491310  46.4310455  70.4154873  93.9300823  46.4001369
 116.5115833  92.6063919  65.1278496 115.5983829  92.3778343  64.9544811
 116.7669773  92.0379353  65.8543921  12.6436590  13.2408381  36.2332296
  12.8061365  13.0709506  35.3053427  13.2133936  13.9803839  36.4446664
  70.6136942  90.0629807   7.7641153  70.0432110  89.3119049   7.6008177
  71.4419651  89.8303318   7.3445076 108.3271885  73.3805084  51.9128084
 107.7881145  73.9693451  51.3846922 108.5356522  72.6545906  51.3247442
  38.1007456  45.4471732  48.2036877  38.0287527  45.0910426  49.0892458
  37.4073767  45.0074912  47.7116060  80.6182289 103.6306477  33.0796862
  81.0310078 102.8809357  32.6509809  81.2991428 103.9839554  33.6521935
 106.2093163  95.6279469  23.7326074 106.3247490  96.5620899  23.9066696
 105.7490158  95.2957916  24.5033336 111.0454655 100.8139992  37.6496911
 111.0911369  99.9696636  38.0982947 111.7348385 101.3389301  38.0564427
  93.7790489  97.8029060  27.0833874  93.0807495  97.1786880  26.8860221
  94.5863628  97.2980499  26.9853640 112.5314045  97.9951859  59.0805340
 112.4944878  98.1824970  58.1425667 112.5715446  98.8568497  59.4954538
 112.2516823  59.1164732  54.0476084 112.4702168  58.2584524  53.6839056
 112.4787903  59.7355986  53.3538198  23.7162756  20.7943488  15.3918493
  23.2982325  21.6522265  15.4661119  23.8189291  20.6586695  14.4498909
 109.7641277 101.7593288  12.8802180 109.9706650 101.1881065  12.1404338
 109.7987556 102.6441002  12.5166106 104.3978214  74.3448257  24.9517775
 104.1745567  73.7007284  24.2798257 104.5848179  75.1461411  24.4627333
  93.2709122  98.5239315  53.4212303  93.1906891  99.1258621  52.6813126
  93.4099579  97.6667118  53.0186415  18.4272455   7.7019072  35.7466006
  19.0372538   8.4271193  35.6117177  17.8523802   7.7270461  34.9816608
  14.9930357  13.3939791  30.1586580  14.7045397  13.5561801  29.2604947
  15.8367323  12.9520751  30.0631118  25.2622471 105.4481602  47.8263998
  25.2548085 104.8448563  48.5695028  25.9086762 106.1129189  48.0640411
  16.0863756   0.3211928  22.3839831  16.3006376  -0.4265928  22.9417777
  16.3691401   1.0844851  22.8876328 107.4655914  53.8924313  52.9130888
 107.4094296  52.9930592  52.5902843 108.3982468  54.0294933  53.0791903
 109.5929718  84.2697048  53.5745382 109.3832111  84.3758297  54.5024204
 109.1788578  83.4425545  53.3284378 106.1154270 103.1705189  35.0203538
 105.8086777 102.5460529  34.3629575 107.0248032 102.9198170  35.1829076
  79.0894747  98.2298088  73.5176277  78.4562778  98.8893414  73.2342291
  79.0530586  97.5556660  72.8390789  71.2861776 102.5706387  42.1745539
  72.1108437 102.0871639  42.2236109  71.3950491 103.2932568  42.7927732
 114.3467617 108.3536243  26.8219090 115.1903439 108.4992695  26.3936830
 114.0188122 107.5417805  26.4351225  11.3373719  76.9290590   8.9932060
  12.0900975  76.7186642   8.4406090  11.6291390  76.7274618   9.8822838
  97.1143627  86.7215919  33.4027600  97.7626038  86.6267014  32.7049017
  96.9265461  85.8245087  33.6787963  90.6044102  99.4511700  43.9725924
  90.6917381  99.2824841  43.0344296  90.0019550  98.7749577  44.2824697
   6.6450272  87.7930069  44.4821262   5.8159314  87.6376534  44.0297031
   6.8341790  88.7180233  44.3246078   8.9365445  97.6993465  71.7943811
   8.5117779  98.5533714  71.7141438   8.2360516  97.0673180  71.6329193
 103.9023781  95.7751465  52.1300459 103.6096478  95.5457973  51.2480354
 103.0973244  95.9893703  52.6014614   9.0782795  85.9341240  29.6746039
   9.9547634  86.0618496  30.0374937   8.6460076  86.7804527  29.7890377
 114.8678970  81.1893463  73.2538080 114.5894146  80.6537342  73.9966393
 115.7711601  80.9189320  73.0888224 104.8412704  65.6772995  64.3252802
 104.8233032  64.7312069  64.1809797 104.2117882  65.8238840  65.0313234
 103.1382370  76.9158649  48.4248734 102.1904755  77.0481205  48.4469271
 103.3535385  76.5802193  49.2950583 105.6966305 104.6671391  48.2403708
 105.2411175 105.1613998  48.9218807 106.3639832 104.1684341  48.7117052
  95.0470161  98.6054516  48.2297373  95.1144886  98.9346504  47.3334646
  95.0292587  97.6531792  48.1344223 111.6223335  53.6849928  78.5552835
 111.3869762  54.5845747  78.7824202 110.9520817  53.4130764  77.9283476
  96.1674213  86.0932636  14.2167842  96.3884544  85.2245712  13.8810134
  96.9896317  86.4280224  14.5747495  18.6492228  14.1782332  39.5967770
  18.2190394  13.4504271  40.0456333  19.4212126  14.3661452  40.1305819
  47.5175833  16.6686202  84.7730255  46.6899847  17.0597888  84.4932270
  47.8048777  17.2141028  85.5052376 109.8378086  93.0116653  45.0816154
 109.9747086  93.8724136  45.4773474 108.9187431  92.8104496  45.2578783
  16.1056099  90.5017090  60.1348543  15.4808865  91.1088085  59.7381306
  16.3566075  90.9204197  60.9582090  60.9204935   6.3645220  44.8620701
  60.2836584   6.8547583  44.3421268  61.6455244   6.9759417  44.9914503
 104.3944740  96.9791126  26.5919399 104.5706081  97.4279690  27.4188256
 104.3372631  97.6823807  25.9451199  55.3248667   9.1479350  65.1999950
  55.5341410   9.1455699  64.2659521  55.0792193  10.0537539  65.3881073
   3.1231079 107.1771908  61.4303398   3.8915501 107.5631332  61.8507862
   2.4154721 107.7961731  61.6101885 107.7055264  67.1786022  40.9094810
 107.6739216  68.1331682  40.8459520 108.3411503  67.0056915  41.6039610
  14.3239460  88.4906197   8.0611098  14.2768250  88.7423420   8.9834136
  15.0781498  87.9033089   8.0113673  18.4191952  83.5110950  47.5786161
  18.1515370  83.6362839  46.6681671  19.3737660  83.4506226  47.5414896
 110.3300953  86.3155270  16.2916946 109.7482395  86.3718033  17.0496547
 110.1058769  85.4814720  15.8790231  75.5037022  86.8046570  28.4073091
  74.8915148  87.5362778  28.4860110  74.9755335  86.0290337  28.5961771
  42.5012468  11.1667300  23.2282519  42.7701925  10.9706546  22.3307824
  42.9347395  11.9953299  23.4325790   0.7763157  86.1932755  65.4713964
   0.7839833  85.3491116  65.0202131   0.5763970  85.9763527  66.3820028
 105.0709057  65.2519226  38.6230040 106.0130787  65.3835821  38.7288356
 104.8777103  65.5945539  37.7503562   3.5336457  71.5852928  53.8886595
   3.3685933  72.1893024  54.6126509   3.0247937  71.9403315  53.1597900
 115.2793503 100.3943729  64.9345064 114.3877411 100.2077389  65.2285004
 115.7088757 100.7764339  65.6998587  12.2455368  82.6266289  63.7497377
  12.5982628  81.8592453  64.2002153  11.7590199  83.0985355  64.4256401
 112.2730064  87.1971130  31.3980150 113.2258129  87.1328926  31.4633703
 112.0680428  88.0691719  31.7352724  95.8277798 107.6604462  47.2258711
  95.1576328 107.0306969  47.4914885  95.9668255 107.4840641  46.2953949
 103.1608200  91.2177277  31.1202359 102.2189140  91.3809395  31.0712910
 103.5307503  92.0424271  31.4352942 108.8682461 105.0672531  53.2404327
 109.1721439 104.4443035  52.5802708 108.8125038 105.9016418  52.7746868
 112.2898865 107.4446487  57.7974749 111.8707466 108.2993889  57.8973579
 111.5695572 106.8464184  57.5987864  96.5800285 105.1987171  14.3207598
  97.2386265 105.0296688  14.9944830  96.0938549 105.9564590  14.6458578
 106.7456341 103.5717487  54.8116636 106.2095833 103.1259346  54.1558170
 107.1887779 104.2674923  54.3260860  14.9891411  97.9170763  68.3697891
  15.0998675  97.7192616  67.4398232  15.7687031  97.5505125  68.7871027
  47.9333878  18.3595884  61.6941071  47.7932930  19.0372884  62.3554182
  47.2365904  18.5023332  61.0535383  52.6078653  21.7495537  34.7310162
  52.4695444  20.9102464  34.2920828  53.1613255  21.5383005  35.4828691
   0.4511426  59.3070025  92.0735952  -0.4615762  59.4256768  91.8107506
   0.4011510  58.9803938  92.9719600   7.9739367 106.7221617  29.2847228
   7.1766650 107.2513788  29.2619610   8.1373345 106.5751814  30.2163482
 100.1865160  46.0638160  73.0119878 100.3077042  45.1200337  73.1160027
 100.9651720  46.3543869  72.5371271 116.3100935 108.4864696  29.3552923
 115.8827544 108.7044250  28.5269737 116.1548162 109.2489038  29.9127984
  51.8491602   1.8108614  68.5678387  52.2951365   0.9639561  68.5583639
  52.3182678   2.3212111  69.2279243  88.0794907   1.3220772  10.9209704
  87.1365833   1.1574620  10.9131229  88.1562710   2.2759774  10.9006822
  59.6960163   3.4765124  12.7589798  59.8902798   4.2508262  13.2871187
  58.8662481   3.6822790  12.3284256  86.9134235  42.8710175  49.7944880
  87.4427891  43.6547089  49.9422598  87.4032879  42.1673393  50.2200460
  32.3933255 103.1691282  44.7909641  31.9734894 104.0167844  44.9374247
  32.8692375 102.9941046  45.6028175  61.6091204  10.4407644  42.0910645
  61.0185671  10.5552840  42.8356218  61.6843128  11.3148940  41.7083454
  50.2532387   9.3790269  32.1296525  49.8125267   8.5829610  32.4267769
  50.2806044   9.2960906  31.1764455  46.8980204  92.3371362  19.5352483
  46.8481718  92.1682345  20.4761100  47.3417078  93.1825327  19.4668460
  95.1960945  20.0456166  13.5410547  95.5246162  19.4123769  12.9028487
  94.6760368  19.5227957  14.1513312  51.5784693  15.5388772  80.8287144
  50.9706831  16.1971700  80.4918575  51.3554716  15.4593265  81.7561722
  71.2435246   0.3500241  38.1856799  70.6808043   0.4769208  37.4218273
  70.6625986  -0.0150154  38.8531375  16.9931351 106.9578015  38.4264469
  16.9844996 107.0954641  39.3736553  17.9195868 106.8582713  38.2073212
  51.5414906  46.1387920  16.4919686  50.8856583  46.4028454  15.8466876
  51.0318804  45.7790327  17.2179878 115.8999920   1.4210594  32.6995492
 116.4094543   1.7945808  31.9804049 116.4515686   1.5428001  33.4723234
  57.7917528  14.5703042   2.0159835  58.5620165  15.0720668   1.7492253
  57.0563841  15.0223315   1.6022924  57.4473190  14.0817893  41.0090923
  57.6165009  14.1647840  40.0706244  57.0633411  13.2104754  41.1071062
  46.8970476  93.2780480  46.2722588  47.8098284  93.1238364  46.0288048
  46.8550001  93.0497991  47.2008991  58.9822245  41.1474848  14.5113921
  58.4031487  41.5080976  15.1828527  58.7798977  41.6528463  13.7240541
  72.8943348  33.6044431  36.1816597  73.1906652  32.8604221  36.7059231
  71.9410324  33.5200691  36.1634493  37.5497996 104.2042684  53.0812168
  36.8660723 104.4225954  53.7145281  37.3899971 103.2860183  52.8632450
   4.6655213  91.2613618  61.2563229   5.1180779  91.4435994  60.4327822
   4.2111002  92.0774173  61.4655733  20.2166295  16.2190711  45.6003523
  20.3662753  16.0845673  44.6645403  20.7921720  16.9477880  45.8326340
  77.8233862   2.2461091  11.7372620  77.7072668   2.6325434  10.8692670
  78.6336851   2.6352492  12.0662344  54.0008926  16.5416133  51.4049578
  54.8866749  16.9043124  51.4135265  54.0998220  15.6773508  51.0055923
  78.7214613  15.8101547   3.0516115  79.4440699  15.9375215   3.6663067
  78.5056591  14.8804879   3.1249607  10.2295672  99.9510365  18.6975694
   9.7107779 100.5310839  19.2549121  10.0896155 100.2827960  17.8106761
  57.6116133   4.3829572  39.4106412  58.1365728   4.4253066  38.6113548
  57.1865273   5.2389508  39.4636369  85.7850552  14.0117371   9.2578101
  85.7257843  13.2906675   8.6310899  85.1544285  13.7869203   9.9419177
  70.0987339  29.4997478  15.2561355  70.7885981  29.9916601  15.7014871
  70.2998924  28.5827017  15.4426658  71.5434790  40.6780863  52.4064398
  71.9374657  40.0635147  51.7873192  72.0362997  41.4896059  52.2848082
  69.2030954  11.1076808  52.0056057  68.3587313  11.5491271  52.0972919
  69.0352535  10.3954732  51.3885021   8.1672703  92.4707042  27.2119689
   7.5235020  92.9507207  27.7329087   7.9280602  92.6574897  26.3041568
  41.4749432  46.8626213  35.0868654  40.8671093  46.3065434  35.5742550
  42.2714853  46.8694210  35.6176257  48.3647823  22.2316504  56.8163967
  48.7873840  23.0071878  56.4473724  49.0394354  21.8283415  57.3626709
  32.8877055 102.8474652  15.4286909  33.2936274 103.6975234  15.2588117
  32.6040016 102.8956812  16.3416088  28.8182198 107.1182367  55.7866621
  28.9192950 107.8740992  55.2081394  29.6440922 107.0732545  56.2684727
   1.8196904  89.6517085   2.8123161   1.1373221  90.1479375   3.2643825
   2.3380982  90.3161096   2.3583812  46.7231356  93.2707738  66.0172081
  47.4617468  93.8758206  66.0850620  46.4675413  93.3072376  65.0954819
  25.8919941 104.3265187  45.3775644  25.5920206 104.7305232  46.1918306
  25.5431544 104.8907875  44.6875334  74.2910624  18.7474382  47.2858143
  73.8060904  18.3872068  46.5433407  74.3670893  19.6816552  47.0916700
   6.6919075 103.0740576  46.0168076   6.2377154 103.9145874  46.0755682
   6.2495838 102.5174802  46.6577530  65.0975418  11.1991692  17.8810513
  65.2393913  11.4633930  16.9720435  65.9491491  11.3196039  18.3011603
  74.3470621  15.3970981  54.1134262  74.6523857  16.3018346  54.0466356
  75.0234890  14.9531782  54.6249056  43.9161205  23.8688922  34.4586396
  43.3967829  23.8389945  33.6551332  43.3885384  24.3879509  35.0656509
  80.3348923   4.2489669  61.0414410  80.7952881   3.4097728  61.0367441
  80.9859562   4.8810437  60.7367516  36.3175284 100.6617873  24.3918085
  35.5403124 101.2170612  24.3298197  36.7404734 100.9318953  25.2069092
 115.9758974  90.2412378  18.0494833 115.6482054  90.9418928  17.4856269
 116.7393495  90.6210529  18.4843516  77.1816540  13.2540107  53.0709171
  76.7714357  13.9711165  53.5543537  76.4495611  12.7055430  52.7890348
  62.8906441  18.4034133  24.2605209  63.4369850  19.0318596  24.7325349
  63.3886766  18.2003450  23.4687161  68.4124804  43.8807487  49.5019960
  68.3955193  43.0190754  49.9184847  68.4510517  43.6927843  48.5642242
 115.1367008  44.3132109  94.6060390 115.9089625  44.7137696  95.0052840
 114.5987570  44.0380389  95.3484219  42.0920610  20.6166458  37.4685264
  41.5729094  21.4171839  37.5450015  42.9811907  20.9237838  37.2914529
   6.6291211  70.8690197  79.5707696   5.9006856  70.6505687  80.1520520
   7.0766709  70.0357122  79.4240564  23.7844025  96.6282868  52.3037338
  23.4968888  97.4607157  52.6787424  23.1916224  95.9782206  52.6809025
  51.2388706  31.4380217  61.1202478  51.9410181  31.3628864  60.4740477
  50.4353476  31.4523530  60.6002712  65.5710220  20.8362532  59.7964764
  66.0155916  19.9977207  59.9207830  65.8370972  21.3625002  60.5504656
  55.5404854  11.4996910   5.3573275  54.9733114  11.1112130   6.0233819
  56.3899899  11.5898764   5.7891136  44.0596567 107.9088939  23.1879473
  44.5216070 107.5393780  23.9404678  43.1816756 108.1016677  23.5169172
  73.3211517  10.4090345  68.3358192  74.1958332  10.7543457  68.5144854
  72.7638149  10.8125877  69.0012121  34.3785559  94.3573641   9.4779783
  34.7243153  94.2876016   8.5881382  33.8303458  93.5798346   9.5835644
  63.4587193   1.1898786  28.8209128  64.1570520   0.5889203  28.5612774
  63.3576393   1.7774427  28.0720568  52.0006514  10.3163528  44.3993235
  52.1605492  10.6544709  43.5182238  51.2697506   9.7074533  44.2932177
  67.6509714   9.9922854   0.5590517  68.1423569   9.6811026  -0.2011692
  66.8862581   9.4181252   0.6013564  64.5116472  13.1239057  14.9182856
  65.3243732  13.6252141  14.8519731  63.8415718  13.7053812  14.5589566
  71.6960144  13.6242163  31.1970377  71.0368538  12.9660368  31.4173436
  72.4392700  13.1182683  30.8686733  58.4122086  26.9578671   6.3483948
  57.9757071  26.7714286   7.1796232  57.9104948  27.6805353   5.9712112
  86.5944576   0.7026306  -0.1898226  86.7156696   0.9984757   0.7124060
  85.6728649   0.4482999  -0.2367214  37.0228481  23.5081840  74.5632172
  36.5626645  22.6759243  74.6718693  37.9030538  23.3409381  74.9001169
  77.7028227  43.6931038   8.8389444  77.5842047  43.2445049   8.0017334
  78.4232426  44.3038797   8.6834460  43.0939484   2.3523696  72.9996204
  43.4112501   3.0702284  73.5475540  42.9022026   2.7617586  72.1559000
  35.9263182  17.5374138  51.1015606  35.5181980  17.9187644  51.8788910
  36.0743523  18.2822931  50.5189180  70.1275349  12.7702665  47.5468063
  71.0000420  12.9773843  47.8815556  70.0218058  11.8342090  47.7166605
  48.4685850  12.5545847  49.4275045  48.9918518  11.9628954  49.9681807
  47.8229856  11.9867158  49.0068388  31.1939335  21.5163231  47.8503990
  31.9603920  21.4355445  48.4180689  31.3721037  20.9221220  47.1214199
  94.5022106  24.1490436  27.1581292  94.6609879  24.3596053  26.2379742
  93.9994144  23.3348823  27.1342134  47.1150732   9.5032328  20.3263307
  47.9170084  10.0210166  20.3972578  46.4467812  10.0365567  20.7566595
   9.7345864 106.8139144  59.6577454   9.7804581 105.8730640  59.8278284
  10.6015240 107.0387947  59.3199873   4.3762194  95.0264990   8.6149937
   5.0642382  95.6910061   8.6508703   4.8318802  94.2233085   8.3630186
 115.6079972  60.4153097  88.9340317 115.9173023  59.5387084  89.1623604
 115.4515755  60.3758944  87.9905230  98.7861263  80.8566684  89.6969878
  98.9526665  80.6141919  90.6078672  99.6226275  81.2009758  89.3840122
  50.6873560  24.9577880  32.4261212  50.6453562  24.3504977  33.1648135
  50.4636955  25.8088851  32.8027439  27.9569899  98.3439492  34.6892524
  27.7118145  99.2057037  35.0261497  27.1271311  97.8741288  34.6065736
 109.6095324  71.5138482  19.3343461 108.9466811  71.8068718  19.9596441
 109.8489524  70.6364059  19.6326816  42.5041723  34.1486311  38.0451035
  42.2206879  33.4988213  38.6882329  43.4273100  34.2996907  38.2481599
  64.6612358  28.1010056   1.0969602  64.6748114  28.4994030   0.2267148
  64.1021252  27.3302913   0.9988516  43.5072327  37.9141903  26.5161324
  43.2722950  37.8752708  27.4432349  43.9111233  37.0653701  26.3355613
 115.7378817 108.0008821  36.1327457 115.9171415 108.8034500  35.6428647
 114.7858311 107.9878766  36.2310529  69.2338896  36.6920614  24.0255165
  68.7191772  37.4171305  23.6711454  69.0435314  35.9563136  23.4435654
  47.7736855  25.9411383  46.2076330  47.7558279  25.7988477  47.1540260
  47.2423315  26.7259073  46.0733509  51.2055254  34.9036264  24.4287395
  51.4603662  35.3499722  25.2362442  50.5552912  34.2584896  24.7066307
  71.3616991   7.4193609   8.9861017  71.5040064   7.6289934   9.9091589
  71.9745874   7.9838932   8.5150337  55.3322315   1.7149132  72.3271322
  54.9675369   2.2349083  73.0432558  56.2103605   1.4785044  72.6258564
  73.5193014  14.8347211   6.6560400  73.2320547  14.1352999   7.2430086
  73.7819815  15.5454636   7.2409123  34.7228371  97.3299765  28.4423280
  34.4430577  96.7907762  29.1820693  35.5062138  96.8920576  28.1094933
   2.0324789  73.5764598  23.4670568   1.5960537  74.1547298  22.8414631
   1.3614308  72.9397773  23.7131429  54.9048601  90.8676218  71.1224699
  55.0768935  90.9880494  70.1885891  55.7039725  90.4658067  71.4633560
  67.1059608  33.8478088  42.8444052  67.0674133  32.8989077  42.7246761
  67.0489740  34.2036223  41.9576263  69.5447731  16.2303472  25.6495166
  70.3383732  16.0058284  25.1636958  68.8554668  15.7111585  25.2353573
  65.8595454  67.6101310  94.3858794  66.0737979  66.9109220  95.0034844
  65.4761803  67.1571523  93.6348313  95.4118443  16.0225546  72.0301342
  95.5869389  15.4575694  72.7827072  95.8687878  15.6006992  71.3024807
  38.8658034  99.4235610  22.2071719  39.4707190 100.0393342  22.6208544
  39.2346369  98.5610318  22.3975348  52.8843737   4.0303317  13.6834371
  52.0205307   4.4353080  13.6059642  53.1019449   4.1060519  14.6125007
   1.8478070  15.9765100  19.0443707   2.2343026  15.9904087  18.1687796
   1.3248406  15.1750088  19.0626407  78.8854265  27.7786803  45.6612206
  78.7575293  28.1002760  46.5536594  79.6776581  27.2437453  45.7106304
  72.4249268  13.7977231  74.4597149  72.0208693  14.4188762  73.8537979
  72.3028421  14.1917777  75.3234577  11.5121422   8.3588147  21.2605929
  11.5223942   8.0225325  20.3644681  11.6442452   7.5850093  21.8083215
  78.4587002  14.4561172  37.0133424  77.7983761  13.7688422  36.9246912
  78.2577896  15.0734568  36.3099504  57.1154356  27.2571301  18.1784415
  56.9176006  27.5151515  19.0787292  56.2586689  27.1111679  17.7773499
  29.4922816 100.2622216  59.2780209  29.6975266  99.5178174  59.8436785
  28.6447369 100.0425624  58.8911724  87.5161266  24.8745847  23.2895207
  86.5866566  24.6458769  23.2867885  87.9269886  24.2007875  23.8312030
  53.3174597 106.0424250  60.0723791  53.5930907 106.7571052  59.4983673
  53.6229693 106.3019406  60.9415960  95.5213451   4.3071377  33.9404154
  95.3188801   5.1111710  33.4621191  96.0316944   4.5997041  34.6955204
  38.5444307   2.1967427  26.3636923  38.0767798   1.8714730  27.1329355
  38.0867767   3.0039543  26.1287570  72.4546623  27.5544739  57.8634691
  71.8010139  27.4350262  58.5524607  72.2534466  28.4118629  57.4884701
  85.5332851   6.6205317  11.0450304  84.8465919   6.4238274  10.4078579
  86.3394547   6.3122106  10.6311965  31.2609087  99.7615110  69.6498060
  31.8578564  99.4989371  70.3504753  30.5048691  99.1830599  69.7499514
  83.0355549  13.8770664  59.6167278  83.6479950  13.1638908  59.4363594
  83.5574818  14.6728039  59.5136690 115.2059650  22.8785682  27.8971720
 115.0379276  22.1201158  28.4564114 116.1520004  23.0129075  27.9536724
  57.2077990  31.0111380   6.7274976  56.2917519  31.1436939   6.9714731
  57.2194719  30.1569223   6.2957442  61.4534140   8.1549799  69.9544096
  62.3285580   8.3125901  70.3086901  61.5201950   7.3042375  69.5208073
  62.3889242 108.0315682  40.9528351  62.9032122 108.2800647  40.1847267
  62.7870928 108.5174292  41.6750813  88.5201275  62.5666839  81.6607982
  87.9854738  62.0701457  81.0412603  87.9400217  62.7233816  82.4058860
  67.2890329   2.5902137  26.6676068  68.0585718   2.1328625  27.0065331
  66.8985415   3.0046368  27.4370241  50.7810198  85.4050373  54.6089602
  49.9491202  85.8411359  54.4245768  51.1937033  85.9498858  55.2790833
  78.4848738  27.0820069  34.6852899  79.3367386  26.6458440  34.7031164
  78.3431959  27.2932196  33.7624955  50.9558630  27.2254014  47.5727272
  50.7866144  26.3135457  47.8095913  50.9489632  27.2294712  46.6155577
  87.0389271   5.9241188  60.0398540  87.0012093   5.0024360  60.2954102
  87.7125454   6.3020551  60.6052256 101.0055996 106.2256884  19.1488874
 101.9239593 106.0165390  18.9782941 100.5204893 105.7295760  18.4895146
  98.1055832  24.1852021  17.4299920  98.1656837  23.6753345  16.6221201
  97.7088356  25.0138283  17.1612978  89.3837166  18.3579981  52.2422409
  90.1187992  18.9060712  51.9674683  88.6152744  18.9197242  52.1412849
  94.3486881   5.8043295  21.2954855  93.4104633   5.9002483  21.1318874
  94.5314503   4.8834649  21.1088324  47.0455217  43.6242580  29.9332285
  46.1485004  43.9489460  29.8547649  47.5817442  44.2989397  29.5166945
  41.1590182  95.2885067  60.0857306  40.6975256  94.5305597  59.7268820
  41.4012514  95.8068203  59.3183327  41.5551996   4.6410224   9.3190199
  41.3832426   5.1060498  10.1378071  40.8615398   4.9329540   8.7275404
  72.2391974  85.6880020  17.6726305  71.6645991  86.3574194  17.3012161
  72.8136050  85.4371809  16.9491839  57.1536146  92.2199010   6.8959671
  56.8976771  92.8764879   6.2481844  57.9245173  91.7974865   6.5171456
  44.5635557  26.5291762  15.5254114  45.2016592  26.6130662  14.8168802
  43.9733219  27.2731376  15.4055011  72.5158930   4.3352735  65.2190447
  72.6299000   4.0726629  66.1324263  73.1317568   3.7865484  64.7334051
  64.0033293  10.0944531  43.7652731  63.4618187   9.7574431  43.0515385
  63.6856985  10.9863269  43.9063501  73.0154705   4.7835684  30.8969355
  72.8842878   5.4829246  30.2566838  73.7641907   5.0733626  31.4181542
  84.3778801  30.2175140  10.8733392  83.6189079  29.7853422  10.4816592
  84.0651035  30.5268168  11.7234755  64.0200329  48.4270906  18.1280589
  64.1065025  49.3801498  18.1489372  63.1305742  48.2742262  17.8091097
  62.2457695  20.5577707  41.7271090  61.7425346  21.3662124  41.8241167
  63.1404400  20.8027601  41.9632769  23.6534821 103.4403794  80.5035019
  23.3179938 103.9470213  79.7639084  24.2875325 104.0213453  80.9238434
  16.1657082  99.0811121  45.5271435  15.9164988  99.3363559  46.4153862
  15.6960474  98.2614612  45.3728008  56.2521458  37.9338503  30.5244851
  55.9618473  37.7806783  29.6253204  55.4417229  38.0282855  31.0250163
  48.3115768  27.2415638  48.5165977  49.2544889  27.0907569  48.4501839
  48.0461597  26.7578125  49.2987585  27.0659434  90.2937495  28.0281162
  27.9629504  90.5054664  27.7696919  27.0221697  89.3387174  27.9809046
  69.8453903  48.5684395  26.6745591  69.2937183  48.5599136  25.8923721
  70.3661919  47.7679968  26.6090703  49.7776222  10.3985822  50.5444670
  49.2423582   9.6892136  50.9001684  50.2606678  10.7356238  51.2989855
 101.7073917  22.9357862  15.8685148 101.3561535  22.4630475  16.6230905
 102.0015240  22.2483349  15.2709115  99.1415977  22.6014566  47.1193409
  99.6342373  22.7596188  46.3140297  99.4824123  23.2463551  47.7391672
  47.7869081  42.6321268  62.8619528  48.0922890  42.4852276  61.9667435
  47.1042776  43.2976007  62.7759838  51.1939703  89.7759222  17.1942544
  51.6563879  89.1240310  16.6675329  50.2760874  89.6825146  16.9392860
  87.1519756  16.6574085  53.9067364  87.7993870  17.2175586  53.4785795
  87.1851730  15.8355463  53.4171724  28.7795578  85.5185484   6.4607692
  28.9534556  85.9657764   5.6325305  27.8275715  85.5509233   6.5551740
  92.8301525   8.1628823  12.8125429  93.5507011   7.6506066  12.4456370
  92.2925568   7.5215000  13.2771432  62.3904705   6.4297950  22.0298934
  61.8131733   5.8240545  22.4946904  61.8749905   7.2314382  21.9411254
  48.5671091  16.6646028  28.7325478  47.8912973  16.6861904  29.4100761
  49.0132236  17.5077248  28.8122892  65.0612688  22.3196220  54.5477533
  64.3990803  22.9990077  54.6749163  65.8552313  22.7999759  54.3129969
  53.4247971   7.6025814  27.7202272  53.1001949   7.1332365  26.9517350
  54.2818832   7.9349953  27.4535108  44.6529661  98.7278497  29.0022492
  43.7516962  98.9267289  28.7485147  44.5920931  97.8941476  29.4685817
  26.6037165  90.8895492  31.5126181  26.5377365  90.2839493  32.2509456
  26.9718968  91.6883575  31.8902135  47.0131016  33.4400797  47.4741411
  47.0825052  33.0488825  48.3449888  46.9049835  34.3765497  47.6401711
  78.1983328  42.6801300  23.8764548  78.4942532  43.0264854  24.7183013
  77.7052307  41.8913269  24.1019845  78.6897230  23.3575082  16.0494781
  78.8685036  24.0785456  16.6531122  78.0101585  22.8432083  16.4852738
  32.0514714  94.1994082  19.9591076  32.8175293  93.9587700  19.4380641
  31.6754185  94.9501287  19.4995070  30.9211098  95.8084225   4.2674893
  31.5781294  96.5004789   4.3424109  30.1457917  96.1664056   4.6998823
  61.1388193 106.6303297  10.9266365  62.0299136 106.4405265  11.2201571
  60.5857836 106.0490041  11.4486015  88.7124252  24.6306515  27.8302217
  88.3914661  25.1968789  28.5320759  89.6293640  24.8822427  27.7199149
  10.8293377 109.4291015   9.7473425  10.7205426 109.9210918   8.9334989
  11.3604914 108.6720543   9.5003831  63.2361412  11.0850406  11.0500431
  62.6059294  11.7744637  10.8408582  63.6132193  11.3515961  11.8884909
  68.9430237   7.0026612  36.7686868  69.0514660   7.0221269  35.8178496
  68.6064291   7.8711724  36.9891930  74.9415398  25.1777840  43.1384373
  75.8848953  25.0759149  43.2646704  74.6706104  25.7790804  43.8321733
  53.9174258 108.6716826  33.8280797  53.5465704 107.9290921  33.3513594
  53.8953482 108.4020083  34.7462416  95.2963638  13.1824517  12.4486125
  95.9787750  13.6436236  11.9608986  94.4769764  13.4786427  12.0522547
  67.7249098  28.8599229  30.6322384  68.2285786  29.2525053  29.9191976
  67.7408361  27.9207683  30.4479384 104.5521927  18.0178797  15.2475345
 104.5724869  18.9677453  15.1310194 104.4542408  17.6698923  14.3612266
  65.7488871  33.6694908  32.7183342  66.3300037  34.1022944  32.0928621
  65.5220842  32.8391600  32.2995973  49.8482561   5.2908480  12.9689264
  49.0679550   5.0439310  13.4653032  50.1565313   6.0929364  13.3906531
  79.6198273  20.5005264  21.2718177  79.5437431  21.4517260  21.1965585
  78.8489199  20.1618242  20.8166075  76.5794611  13.7114298  14.1207802
  76.6240406  14.5859516  13.7341821  77.2480106  13.7180150  14.8057854
  75.0270605  28.0255795  36.9615436  75.0261641  28.1370735  36.0108590
  75.8015633  27.4919581  37.1393824  86.0404682  24.2034340  38.4789896
  86.8530655  23.8239908  38.8135719  86.2948036  25.0681233  38.1567144
  88.5548019  40.1674652  46.5445757  87.6191425  39.9864650  46.4550447
  88.6044121  41.1149263  46.6714096  91.5454388  30.6225777  66.2169743
  91.7703724  30.7714462  67.1353817  90.9599495  31.3460922  65.9934616
  18.6464821 104.1475730  38.2356977  19.0208184 104.9414145  37.8537011
  18.7963377 103.4705745  37.5758123  66.1778688  42.3889112  52.2697973
  66.0137463  41.4623499  52.4452257  65.9670925  42.8295374  53.0929947
  73.9072990  37.2003531  40.2554941  74.7954226  36.8891311  40.0805521
  73.5690308  37.4543452  39.3968344  51.5126944  18.2649624  20.4463816
  51.3511038  18.9814007  21.0602522  51.3257504  18.6401391  19.5858419
  69.4569540  21.8527699  12.0009851  69.4021320  22.2793031  11.1458266
  68.6195087  21.3991213  12.0964921  55.0128794  24.5815301  39.8605180
  54.3535662  24.8306966  40.5081701  54.5476770  24.6040821  39.0242720
   7.0689747  75.4460353  76.6208118   6.7608903  75.1364869  77.4725705
   8.0122254  75.2837247  76.6338426 110.4318106  45.0609458  79.9360221
 110.2117169  44.9931551  80.8651048 109.6020376  44.9141419  79.4819790
  59.9281883  34.4678926  41.6703272  60.3563452  35.2241898  41.2691689
  59.0654850  34.4339228  41.2570238  68.3836222   0.6699194  32.4747658
  69.2867470   0.6678235  32.7919340  68.4269619   1.1207700  31.6315055
  45.7221209  91.9948708   6.3875735  44.9927603  92.0563936   5.7707512
  46.0926043  92.8772032   6.4091814  64.8749876   4.2853677  32.0659471
  65.2569914   5.1200247  31.7945552  65.6273699   3.7069795  32.1909213
  29.5160042  93.5799348  15.1269782  30.3665100  93.1503188  15.2180588
  29.3588721  93.6023807  14.1830301  77.5778580   5.1079226   8.0156004
  76.8601847   5.3030872   7.4130350  78.2527304   4.7121599   7.4640983
  43.5618067  11.2232578  48.1224346  43.3318853  12.1212637  47.8837872
  42.8599930  10.6893277  47.7501297  44.0493571 101.0801410  59.9331093
  44.9725519 101.1832231  59.7022247  44.0624510 100.6267493  60.7760191
  75.7616377   1.8244478  67.2062540  76.1484289   1.1450779  67.7585983
  76.4542961   2.0520160  66.5860367  82.1366692  22.4667501  41.1875057
  81.4421749  23.0224371  40.8337831  81.8616867  22.2821760  42.0855856
  64.2463064  15.4713774  27.6519942  63.3945227  15.3226435  28.0625749
  64.5553637  16.2934875  28.0325842  59.2169142  41.1483908  57.9029751
  58.5434198  40.9038973  58.5376787  59.8101807  40.3975058  57.8820372
  71.1030197  27.6187444  28.5472298  71.1711931  27.9124188  27.6387477
  70.2899647  28.0110931  28.8654041  41.8253218 107.0002397  13.4146917
  41.2772166 107.4554478  14.0539086  41.7401205 106.0744052  13.6422944
 101.4396858  37.4637628  18.2088864 101.8874550  36.6177630  18.2042360
 102.0829391  38.0732226  18.5708570  93.9602101  76.4584941  89.9284047
  93.0269110  76.2816328  90.0463360  94.3003475  75.6735319  89.4990176
  68.4404360 104.4885867  45.1535082  68.3161627 105.0821810  45.8940697
  67.5638377 104.3783718  44.7851753  88.6590862   3.2775661  29.1623139
  89.3169880   2.7248004  29.5840454  88.1189156   2.6668340  28.6608624
  70.3451716  73.1621622  24.5572281  70.0692927  74.0766501  24.4952846
  70.6303774  72.9375076  23.6715531  81.2756252  10.0963771  56.2367249
  81.1593151  10.2346921  55.2967405  81.1765575  10.9674180  56.6210508
  56.9530487  40.1686907   5.5686927  56.5790844  40.7283020   4.8880926
  57.6370430  39.6711087   5.1205873  48.9869582  89.8774003  26.0458159
  49.1272723  89.5628070  25.1527476  48.1801211  89.4463181  26.3276124
  61.3082886  19.6200669  31.3706470  62.1380568  19.2981708  31.0183692
  61.5624094  20.2188230  32.0728898  51.0559416  42.7445555  56.2742615
  50.4074383  43.2769728  56.7349243  51.8947506  43.0085230  56.6523457
 113.0221331  36.3492710  88.3088010 112.7761948  37.1117741  88.8325697
 112.3017037  35.7312769  88.4324789  43.2003260  46.4658308  45.4614782
  42.6444674  46.4669704  46.2407398  44.0921545  46.5291643  45.8033371
  75.9376608  90.8050513  69.1658926  75.9564482  90.0200855  69.7133493
  76.5874468  91.3872718  69.5596361  30.3910147 109.6774304  63.5861540
  30.6115233 108.7569940  63.7289953  31.0887705 110.1621059  64.0271282
  38.8594376 101.7538362  49.7659540  37.9099642 101.7302954  49.8850155
  39.2114292 101.7932808  50.6552124  82.7135277   7.7190256  14.2774582
  81.8330765   7.8090477  13.9128602  83.2732582   8.2098883  13.6758018
  39.5719028  24.6322536  29.4324374  40.0088406  24.9694991  28.6503983
  39.2102695  23.7889481  29.1598749  90.1416492  10.4018199  43.0744886
  90.2606297  11.0746288  43.7448645  89.5129776   9.7902489  43.4578753
  64.0159845   7.8351897  24.3128037  63.6226940   7.4668992  23.5216546
  64.9134684   7.5023872  24.3113565  83.0737209   6.3867933  29.9957943
  83.0832577   7.3316830  29.8430729  82.9195690   6.2977278  30.9362912
   7.7556584  82.3267764  92.1789577   6.9831917  82.8884334  92.2428015
   7.4392579  81.4560646  92.4197557  57.9178892  81.3587927   1.5095349
  58.6850535  81.6935586   1.0451855  57.4371229  82.1429967   1.7743376
  72.5745583  43.3171415  52.6540327  72.9083729  44.1555214  52.9732800
  71.7972326  43.5470343  52.1449709  13.0045258  89.9303805  28.8567376
  13.1802546  89.4984054  28.0208254  13.2756077  89.2929696  29.5173860
  66.2186527  38.3610249   9.8813403  67.0556974  38.5476971  10.3064704
  66.2264824  37.4139810   9.7424906  51.9821501  21.0102654  54.9379158
  51.3316774  20.6918550  54.3120289  52.3887634  20.2164721  55.2854586
  58.5104036   4.7765684   7.0255721  59.3310547   5.2552712   6.9089216
  58.2246208   5.0032246   7.9105508  11.7873942 109.7646729  51.0666323
  11.2786948 108.9553576  51.0170078  12.4113213 109.6122567  51.7763615
  54.0844059  27.6296401  86.2388611  53.9224005  26.7059326  86.0471630
  54.2729568  28.0217171  85.3862476 108.6687660   1.4160813  42.3932600
 108.3132362   2.1682361  42.8666449 108.8524914   1.7505960  41.5154362
  66.7693090  35.6339955  27.1542692  67.1003914  35.8585882  26.2846851
  65.8173752  35.6286740  27.0541024  51.5701199  62.6272202   1.6638449
  52.4721479  62.8296614   1.9120321  51.3645649  63.2573175   0.9732271
  72.8793383   3.7554333   9.3369454  72.3959160   3.5549662   8.5354805
  72.9172707   2.9231879   9.8082846  43.2588816   3.5511103  70.4261017
  42.8780508   2.8696990  69.8721361  43.9795589   3.9072359  69.9064636
  63.1044531  37.6363325  54.3182898  62.2248793  37.2610664  54.3601418
  63.5926533  37.1793628  55.0031757  88.8153994  54.2933329  83.8742667
  88.9029753  53.4751112  84.3632203  88.5468924  54.9367276  84.5301479
  86.5766621  48.1421185  37.2603583  85.7835674  47.8193855  37.6882386
  87.2904778  47.8498268  37.8271651  73.0876623 104.8528188  13.2147419
  73.1537806 104.5508742  14.1206610  73.7968623 104.3995803  12.7588439
  59.8722267   6.1137444  40.8980274  60.1327133   5.7282388  40.0615120
  58.9752817   5.8082145  41.0335922  23.2499562  41.9532156  34.0297079
  23.8847790  42.2434378  33.3747196  23.6400853  41.1656523  34.4088793
  47.0886122 105.8464014  37.7334046  46.9571959 106.0640752  38.6562157
  48.0051981 105.5758690  37.6793122  78.0596066  20.1964760  50.1957846
  78.7371206  19.8433018  49.6191788  78.1962967  21.1436129  50.1738691
  89.2925453  43.3048058   5.4569232  88.6223698  43.3475065   4.7748128
  90.0994778  43.5722446   5.0169569  65.7080030  36.1037898   0.8974484
  65.2543402  36.2772584   1.7222703  65.0105476  36.0716271   0.2426531
 112.2541010  81.8007869  90.7393181 111.5862381  81.4128751  90.1738888
 112.2499478  81.2538881  91.5248859  68.8617325  23.0854750  42.5849390
  69.7280884  22.6831341  42.6463890  68.7731791  23.3236599  41.6620827
  74.6613932  17.7655613  32.0006824  75.0000381  17.0490634  32.5375080
  75.4216194  18.0766404  31.5092373  42.3150336 108.9288171  77.4753952
  41.5923678 109.0815962  78.0841923  43.0933367 109.2222943  77.9490471
  51.2598133   4.3677491  19.1398466  50.7707167   4.0728629  18.3716941
  51.6855955   5.1768833  18.8565803  58.7085199  15.5796266  52.0436954
  57.8935671  15.9338152  51.6878366  59.3964243  16.1065304  51.6370058
  31.4554297  99.1410207  34.1912985  30.7349669  98.5618877  34.4398308
  32.1863543  98.5500073  34.0105057  53.7126970  23.0874038  32.6705480
  53.3892441  22.5619316  33.4023190  54.6476030  23.1932855  32.8465223
 111.7936325  13.1612897  31.7523718 111.6656590  13.0040109  30.8168912
 112.6711559  12.8248417  31.9339705  58.2746016 101.1297499  65.9701633
  57.7946078 101.9504356  66.0811281  57.8705012 100.7172739  65.2067518
  66.2461710  23.8659072  24.9814463  66.2973070  23.2431006  24.2563772
  65.4130173  23.6677980  25.4090452  41.1942850 105.6932583  61.1926174
  41.6520296 105.4026159  60.4038048  40.6231486 104.9601539  61.4219427
  66.0465002  44.9879169  22.6620698  66.6297340  45.5838251  23.1321383
  66.4572811  44.8775673  21.8045664  67.8469229  10.2277029   9.8217124
  68.5354233  10.7803094   9.4518155  68.2295513   9.3505704   9.8433167
  60.9775496   1.5361425  45.9035587  61.5550089   0.9172099  45.4566860
  60.0947952   1.2642732  45.6524229  14.0100514  90.4634630  21.0358644
  13.2468211  91.0409855  21.0494089  14.5921313  90.8200061  21.7069006
  90.1120281  24.1872668  33.9640355  89.6745396  23.5919690  33.3553910
  90.2493191  24.9883890  33.4584761  92.0716476  11.4048886  25.4272366
  92.6935673  12.0903540  25.1831412  91.2120533  11.7884016  25.2533126
  70.4832983  11.3168430  31.9826913  70.2854347  10.9178913  31.1353898
  70.2949667  10.6289780  32.6211309  63.0130768  21.5355706   5.0435817
  63.6314869  21.3063741   4.3498462  62.5154209  22.2715235   4.6872899
  71.5166855  21.4308882   2.6248071  71.4274406  20.8977437   3.4147587
  71.5690613  20.7949567   1.9113083  22.9389248  10.1274049  17.0120084
  22.5703202  10.9896040  16.8197060  22.8286991  10.0252223  17.9573333
  23.5949408  97.1919166  43.7830782  23.2714688  97.7521192  44.4886065
  23.4431397  97.6992463  42.9857016  71.8105841  23.5857248  45.0995922
  72.4485779  22.9384375  45.3999519  71.7415619  23.4344625  44.1569424
  38.7148118  14.4114912  43.0154848  39.2625308  15.1859498  43.1437445
  37.9047871  14.6105754  43.4850168  71.0768461   5.9648138  43.7133646
  71.9211531   5.6452155  43.3951998  70.9725046   6.8205857  43.2974339
  41.3214540  29.6954775  17.4000132  40.3763342  29.5487332  17.4380672
  41.6260242  29.5274282  18.2917690  39.2182480  93.8406383  19.7257769
  38.8789784  94.6716201  19.3932152  40.1670109  93.9094865  19.6192849
  49.1565371   6.0938519  40.0977516  49.5656586   6.7886209  39.5818567
  49.6149492   5.2966619  39.8320842  23.7659775 100.4921155  37.6840925
  24.4211184 101.1829274  37.7830863  23.8095032 100.0013595  38.5047603
  46.7049395  93.3965205  13.7137663  46.6386877  92.9098462  14.5353448
  47.2211825  94.1715013  13.9354157   8.6860977  85.1712107  16.1758494
   7.8772627  85.6828570  16.1603546   9.3840777  85.8258247  16.1527443
 115.3083230  87.4006986  14.6776557 114.8602606  88.2145404  14.9081588
 115.4770208  87.4778389  13.7386024  67.1293150  93.6639785  17.1333158
  67.3511683  93.5919964  18.0616641  67.9171263  93.3709406  16.6753709
  12.1792494 104.8429611  65.7871485  12.6194845 105.6889110  65.8695602
  11.5167986 104.9826159  65.1104736  62.3722410  10.9168017  27.2033453
  61.4646196  10.9308708  26.8996024  62.5201559  11.7939830  27.5567675
  68.5991716  31.1086035  38.1169868  69.2349768  30.4975700  37.7446651
  69.1228771  31.8611479  38.3920240  76.4299536  44.9089956  41.7281103
  75.8554077  45.6728458  41.6765118  76.0296202  44.2680502  41.1406088
  39.4171784  34.2057127  79.9131554  39.7166894  33.8495869  79.0766758
  39.3992303  33.4512801  80.5020028  90.3182602   3.9213276  69.2581701
  91.0962296   3.3636948  69.2643213  90.5094433   4.5919484  68.6024618
  96.0051537  20.9064913  80.1432419  96.3722324  20.2718353  79.5278597
  96.2785625  21.7576170  79.8011017  73.2518053   6.9954801  29.3633127
  74.2077255   7.0343828  29.3326402  72.9660654   7.5527954  28.6394453
  81.5337849  15.9469271  18.6163163  81.4375210  16.4227629  19.4412673
  82.4759865  15.9483385  18.4475422  75.4626989  26.5720534  47.2311211
  74.7429752  26.0290647  47.5526667  75.8138657  26.9933581  48.0156088
  98.4013844  15.0690937  36.2368989  98.7552261  14.6787286  37.0360494
  99.1239929  15.5878973  35.8834839  69.0199934 100.0462454  25.9234071
  69.5667063  99.2627548  25.9824109  69.4046675 100.6547921  26.5542197
  66.5177536  22.9050422  43.5486698  66.5255976  23.6065960  44.1998148
  67.4025488  22.9073143  43.1834745  47.2374617  99.7886192   7.2948706
  47.6461779  99.1806089   6.6788316  46.5622031  99.2693710   7.7314985
  62.1394968  40.2562666  24.5771384  61.9332695  40.3099298  25.5103183
  62.7349281  40.9892607  24.4208956   7.5973450 108.9290016  32.5337768
   8.1529700 109.2734235  31.8345714   7.1146666 108.2109133  32.1243787
 105.0598526  11.9761658  74.0048695 105.0615025  12.9290593  74.0955544
 104.3099594  11.7906666  73.4396362  44.5799624  93.0238866   2.5283849
  44.0128599  93.6633157   2.9593897  44.9721228  93.5045206   1.7993917
  74.9798346  14.0484834  17.9116023  75.0977802  13.3169639  17.3056328
  75.7055187  13.9663315  18.5303617  82.2504425  40.3189230  59.4916010
  81.8297005  40.2498913  58.6346054  81.6817093  39.8205805  60.0784779
  57.7294051  86.0961794  56.5546942  57.8888022  85.8417773  57.4635935
  58.3757483  85.6017517  56.0507059 102.4429512  30.0002861   3.7729499
 101.8767166  29.3104291   3.4269619 103.3292103  29.7193885   3.5452184
  45.8359528  31.0504556  10.7465136  46.3209009  30.7029533   9.9979806
  46.4655828  31.0361624  11.4673424  60.3716933 105.3524920  25.2529073
  59.6229540 105.3187462  25.8482885  59.9957167 105.1981785  24.3862700
  47.2591448  19.3943930  51.5539265  46.3614225  19.7256124  51.5789032
  47.2274303  18.5785806  52.0536041  43.2179915  99.1050422  46.1505938
  42.3297964  99.2174768  45.8119249  43.7604796  98.9979886  45.3692579
   3.1346963  70.4093689  92.3634833   2.8995392  70.4168922  91.4356485
   3.1579087  69.4814224  92.5971678  33.2906328 104.4626873  51.1471128
  34.2176567 104.5245396  50.9168339  33.0260550 105.3661522  51.3202667
  75.4138708  47.6378393  40.4261827  74.9108219  47.7139711  41.2369728
  75.0479555  48.3115911  39.8531246  80.9252071  42.4926662  19.2746401
  80.2148342  42.4793625  19.9160600  81.1433697  43.4196568  19.1780531
  73.0744635  78.8287257  24.3586540  73.7773691  78.5674166  23.7637782
  73.2155978  78.2991552  25.1434278  73.4459496  48.0505800  29.6150637
  73.9359236  48.8250160  29.8914790  73.8651609  47.7809906  28.7978625
  92.6083469  32.3726368  26.4740729  92.8360558  33.0492210  25.8364105
  91.9201565  31.8626904  26.0467792   4.9032460  61.7040062  44.8848152
   5.3933297  61.0048628  45.3175497   5.0819836  61.5802336  43.9526320
  87.8819466   2.0671123  21.7462802  87.4756718   2.9045072  21.5228057
  87.4222660   1.7809564  22.5356078  63.1578398  46.8454933  15.6267512
  62.2503567  46.5728521  15.4911900  63.6311388  46.0297203  15.7902396
  19.3610178  94.9501609  46.3158464  20.2020775  95.3871893  46.4494753
  19.2920433  94.3350589  47.0460033 111.7281246  27.9990911   7.9542726
 112.4606037  27.8443003   7.3578274 110.9684849  28.0974078   7.3802423
  14.1755173  76.8546409  88.4334457  14.0724919  75.9156007  88.2791012
  15.1223347  76.9872183  88.4802019  71.8519306  19.7930634  18.5918999
  72.3068190  20.6202173  18.4333801  72.1985245  19.1978967  17.9271579
  84.4245243   1.3600422  24.9496460  84.7670269   2.2193068  25.1957989
  83.6375046   1.5529029  24.4401002  71.3953876  11.4666653  41.6017103
  71.7971420  12.0741463  40.9805918  70.5307770  11.8387866  41.7755222
  95.8247673  83.3485050  94.1071637  95.8788407  83.9602990  94.8413406
  94.8920357  83.1473083  94.0312516  82.0164108  25.4577112   2.2674289
  82.0812035  26.3788128   2.5196326  81.8080997  25.0004005   3.0821106
  64.9844980   1.6392933  25.6276417  64.8407173   0.7341021  25.9036636
  65.8320856   1.8732797  26.0058999   4.4474373  23.7839723  15.6523597
   4.1891060  24.5857477  15.1977718   5.2331982  23.4899330  15.1915407
  76.4652395  33.8826108   7.9583120  77.0960283  34.0659642   7.2620946
  76.9981718  33.8026690   8.7494022  56.4175224   6.5481102  74.9356318
  56.2252283   6.8226403  75.8322287  57.3529911   6.7199421  74.8279476
  65.5306339   7.7348107  34.5589018  66.1761284   7.0281035  34.5472527
  65.0807619   7.6344836  35.3978181 108.0019152  71.3988990  93.8572640
 108.1534111  71.8492240  93.0263077 108.4393465  70.5536777  93.7548579
  97.0231438  41.9140673  21.5934205  96.9936752  42.1768141  22.5133801
  97.3963928  41.0327578  21.6078782 105.2206516  18.4544599  25.5904889
 106.1421585  18.2024753  25.5308270 105.2252960  19.2582166  26.1102819
 107.8056049  15.4700601  75.7422495 108.3357620  15.1717651  75.0032043
 108.4228897  15.9337199  76.3081264  32.9225766  89.5070743  50.0047541
  33.3183562  89.8674273  50.7983160  33.5327183  89.7410368  49.3053102
  83.9689064  11.2794209  24.8537993  83.4500217  11.8586636  24.2957067
  83.3211613  10.8087993  25.3783727  66.6594887  24.2370939  12.3790836
  66.8261719  23.9302111  11.4878654  67.4070740  24.7991681  12.5826037
  95.2208805  16.5890789  48.8942623  95.5561829  16.5727627  49.7906685
  95.9807014  16.3811350  48.3505106  90.3778076  17.8043127  22.3811460
  90.8651924  18.3427870  21.7576647  90.8475590  16.9704425  22.3959017
  11.3360176  58.5601234  28.3299708  11.5671788  57.6945925  28.6670852
  10.9494267  58.3873940  27.4715137  36.1417222  21.3856339  39.9176335
  35.8675241  21.8507123  39.1272235  35.4280448  21.5284801  40.5393171
  69.4559336   2.3970218  30.6090331  70.2840900   2.3441225  30.1319695
  69.2927647   3.3355919  30.7022810  52.6241350  18.2342649  11.1918437
  53.1077003  17.4378228  11.4111125  52.7714443  18.8167119  11.9370198
  78.2158232  47.3572683   9.2848790  78.5151625  46.4630270   9.1206867
  78.6560297  47.8835487   8.6174375  97.4992085  33.1923270  48.4498501
  96.7951584  32.7401137  48.9146566  97.6722240  33.9721060  48.9773369
  72.1807623  43.9587593   9.2344463  72.0475435  43.4478855  10.0328767
  73.1222153  43.9051104   9.0700620  89.5180798  36.7341423   8.2255846
  89.9259090  36.4570379   9.0460259  89.3705368  35.9198928   7.7444804
  80.3752422   2.1790023  51.7857218  80.1801491   2.3546714  50.8652258
  81.3313484   2.1740706  51.8311977  93.8735294  20.9690404  50.1498604
  93.8291073  20.7607484  49.2166567  94.1444683  21.8866682  50.1778221
  73.8707339  99.0836059  28.7919378  73.1190573  99.6549415  28.6344767
  74.1997896  99.3517088  29.6498847  61.6364466  78.5604762  46.8966246
  62.5157915  78.7605476  47.2174883  61.0888754  78.5621285  47.6817322
  38.5196543  48.0626106  48.1018496  38.3497524  47.1285105  48.2235765
  38.2036352  48.4705830  48.9080286  75.9058094  78.3977175  72.1909332
  76.6852808  78.8526821  72.5097847  75.1831770  78.7864304  72.6838207
 105.7373619  19.6809757  43.8428688 104.8137188  19.8689878  43.6762285
 105.7748127  18.7291694  43.9371824  91.7881966  21.1897302  52.6649046
  92.3244095  21.9183922  52.3522425  91.3224125  20.8839035  51.8866062
  73.9743853   6.6072965  10.2009130  74.8400736   6.2549800  10.4075229
  73.4530449   5.8395278   9.9664617  53.1724834  22.8239846   6.5295208
  53.3996105  21.9448328   6.2266344  53.9592600  23.3441997   6.3664538
  84.7435951  32.4608374  47.7814245  84.7242546  33.0595827  47.0348597
  84.0784454  32.8019404  48.3793020 109.7951984  10.8095109  34.5326328
 109.4257927  11.5391994  34.0353107 109.5454502  10.0303364  34.0358949
  77.1211290   1.7844242  76.0272503  76.3007736   2.2544143  76.1767769
  77.5903940   1.8511462  76.8588543  88.7630558  31.0469890  39.0872335
  89.7040462  31.0279989  39.2616463  88.4564686  30.1738214  39.3317986
   8.0050335  10.1706707  47.5022316   8.5479794  10.8438766  47.0920801
   7.1626530  10.2353764  47.0522833  73.9388657  20.3138065  26.7312407
  74.2301369  20.4499722  27.6328230  74.6976948  19.9328518  26.2893343
  79.7037888  25.8915114  17.3476124  79.7638083  26.2819386  18.2195044
  80.5242729  26.1351991  16.9190633   2.1593628   1.3017803  33.7024236
   2.7098427   1.0993731  32.9459596   2.4361763   2.1773264  33.9726591
  77.2001743  48.3713007  16.4076447  77.3748541  47.7391291  17.1048391
  77.6381683  49.1723013  16.6953731 110.7261944   9.8206919  21.3374233
 109.9927998   9.2055845  21.3375497 110.5766487  10.3715646  20.5690455
  25.1036904  86.9567055  87.7889079  25.9594510  87.2987170  87.5301939
  24.5851395  87.7358026  87.9897779  21.1902402  57.2753674  93.3367745
  21.3354085  57.3371840  92.3926684  20.5233929  56.5953881  93.4325482
  97.2367477   7.7738219  30.1030517  97.8913403   7.1520293  29.7850537
  97.0674992   7.5028920  31.0053730  60.4134260  99.8050105  16.9667280
  61.0579382  99.0973698  16.9574440  60.0391852  99.7996961  16.0857356
  81.3844096   5.7061048  74.5053893  80.4791533   5.9939857  74.3875772
  81.3297831   5.0027223  75.1523059  88.9150238  22.4932289   6.8191719
  88.6737061  21.9962859   7.6008660  89.7978020  22.1907020   6.6060889
 109.9522686   6.3002890  24.5873833 109.1261959   6.0166955  24.1957211
 109.7556305   6.3942438  25.5194449  81.6410637  17.1996105  12.1359158
  81.0970592  16.7351842  11.4998412  81.0462284  17.8266573  12.5472605
  76.5433359  38.7149382  38.6829758  75.6585455  38.5988522  38.3367038
  76.7837000  37.8519583  39.0201998  66.8542957  15.9458888  21.3433337
  66.1706543  15.5302835  21.8688226  66.3914680  16.2968707  20.5825210
  28.7403927  21.3168192  49.4913530  29.2295323  21.2460136  48.6716223
  29.3941937  21.1665630  50.1741409  14.8193143  72.4572009  74.3982488
  14.2750237  72.9216868  75.0340467  15.2416298  71.7640311  74.9055916
  33.2957398  91.5510153  11.9915664  33.4988247  90.8744144  12.6374745
  33.9499985  91.4294171  11.3035333  70.2145910  49.3784046  58.5259771
  71.0746336  49.6646881  58.8335419  69.7123623  50.1877737  58.4315777
  40.2476250  93.6738562  49.5057821  40.7003676  92.9798769  49.9849987
  40.8680950  93.9406120  48.8274860  61.8746519  39.9420118  35.1058960
  61.9466686  40.1529312  34.1750050  62.6748419  40.2957487  35.4942274
 111.8393230   8.5692644  15.5609143 111.5454292   7.6605839  15.6254172
 112.4262142   8.6847973  16.3082063  78.1663179   0.5545538  18.1707621
  77.7079868   0.8217625  17.3740435  78.2843828  -0.3903640  18.0736876
  86.0892200  22.0888472  16.4307892  85.9721756  22.2139931  15.4890501
  85.4033375  21.4682245  16.6770065  10.3653393  24.2517185  37.7510118
  11.0267601  24.5973992  37.1516252  10.7426415  23.4354877  38.0791092
  92.5212097  36.3143897  28.5695386  92.1648598  35.7786393  27.8608632
  93.0288219  36.9931149  28.1246901  65.2388430  18.5618973  27.1342087
  65.6011009  17.8161800  26.6557646  65.0157785  19.1973698  26.4540267
  75.4466807 107.3741379  48.9599562  76.2616049 107.6419684  49.3846893
  75.2049242 106.5583514  49.3984509  46.1423206  29.0951109  17.4521697
  46.9440174  29.0184259  16.9348359  45.8415318  29.9903870  17.2964954
  58.9550101  83.9126634  55.3627682  58.9516054  82.9663395  55.5066061
  59.8824393  84.1436147  55.3102636  48.6754990   0.2046611  31.0917187
  49.1362429  -0.2874788  30.4122019  49.3204880   0.8370546  31.4084268
  92.9447746  22.0132208  26.9564962  92.7250576  21.4838767  27.7231431
  93.2379818  21.3782072  26.3030267  67.4327074  75.9247755  42.4497843
  66.8733584  75.6970166  41.7071676  67.8848349  75.1097702  42.6679087
  87.2828865  40.0274706  39.4251609  87.5035667  39.3729591  40.0878429
  88.1282043  40.3757620  39.1416931 108.4095001  34.6044612  32.0293808
 107.9356861  33.8538194  32.3875213 108.8550091  34.9888754  32.7843499
 108.4674644  31.8488574  27.3150492 107.8805447  32.4201107  27.8104472
 109.1274261  31.5737128  27.9514289  61.0121237 107.4210472  33.3735728
  61.7217814 107.7486422  33.9261103  60.5674635 106.7696469  33.9159632
  14.1679631  19.8406863  61.6840124  14.4521389  20.4508495  62.3645830
  14.5061932  20.2148342  60.8704758  62.7290249  25.4442167  28.3147192
  62.5902510  25.9244609  29.1310143  63.0703115  24.5940208  28.5920715
  76.1370707  40.9078407  20.1303005  75.3983736  40.8309174  19.5264435
  76.2142038  41.8474436  20.2959132  69.5337105  10.8790183  35.2140522
  69.2613077  10.3294015  35.9488630  69.8575783  10.2603579  34.5593762
  99.0129089   7.2773218  45.8496141  99.1302395   6.3312101  45.7639647
  99.0119553   7.6010722  44.9488306  66.0569429  15.0040996  50.0954914
  65.7099152  14.9300086  50.9844875  66.7258072  14.3214774  50.0418139
  67.8497219  51.5092802  27.2471571  67.7199650  51.6109228  26.3042545
  68.6842728  51.9441080  27.4223232  38.1237102   2.0577818  35.8137846
  38.6919999   2.2413154  36.5618443  37.3968124   2.6733139  35.9085059
 109.1519833   8.6163247  33.0401874 109.5090866   8.1447923  32.2876120
 108.2784271   8.8889724  32.7594852  31.6811895  24.7098827   7.6085168
  32.1979713  25.4816461   7.3771077  31.6135979  24.2135143   6.7928684
 101.7741966  21.4784908  51.7666817 101.3583469  20.9763980  52.4675369
 102.0642948  20.8174419  51.1381245  90.9339046  19.7171295  15.0967884
  90.9850788  20.3377390  14.3698394  90.5221558  18.9397347  14.7194982
  84.7689819  18.3831584  26.6183949  85.0379562  19.0201628  27.2802973
  83.8485909  18.5858381  26.4509749  72.5307417  12.7857172  15.9139001
  73.3663797  12.6076257  16.3454449  72.1365738  11.9223440  15.7896078
 107.7866268  12.2198558  60.5523062 108.0013847  12.5828528  61.4115763
 108.4315968  11.5255249  60.4176140  93.8689137  47.6563978  26.5492630
  93.2127380  48.3526754  26.5199351  93.4194374  46.9210911  26.9658303
  39.9562012 105.9213453  40.8963442  39.8024212 105.8963852  39.9519086
  39.1003166 105.7371303  41.2833261  77.4649954  25.1626468  11.9028068
  76.9671106  24.8023367  11.1689687  77.7551603  24.3948793  12.3953235
  11.9752369  30.1159716  28.1255460  11.9864807  29.2789888  28.5898376
  11.5381966  29.9237943  27.2959089  97.5354385  40.4879236   3.6863837
  97.6922607  40.3998327   2.7462354  96.6024399  40.6902552   3.7556517
  10.0226269  24.5390797  28.4677482  10.0636635  25.4833174  28.6192822
  10.4246865  24.4168258  27.6077271 105.8425617  35.4729080  25.9650159
 105.3441143  35.0560451  26.6678691 106.3824177  36.1266041  26.4093947
  74.3327414 105.9662049  67.6134634  74.6996580 105.6209111  68.4273291
  75.0963866 106.2205049  67.0953798  97.5414181   3.8060614  30.3763294
  97.7120113   3.0729842  29.7849512  97.4626732   3.4029827  31.2409449
  20.8601151  30.6200695  73.1750202  20.3198586  30.2669930  72.4681330
  20.5617390  30.1577902  73.9582872  49.9490213  20.6623554  45.9326792
  50.3180790  20.5372787  46.8069696  49.0301323  20.4096341  46.0221815
  91.4591503  10.9267640  18.6457133  91.3685131  10.9130919  19.5985150
  92.0576382  11.6534126  18.4724510  75.1325321  30.8276105  10.6722677
  74.5896626  30.0768638  10.4316247  75.7710123  30.8987474   9.9626821
  26.1118399  93.7481391  78.4446812  25.5565058  93.8409733  77.6705885
  26.9704663  93.5083710  78.0961132  98.7926579  66.1539364  12.9189897
  98.1738567  66.0685635  13.6442649  98.5470200  66.9734955  12.4897814
  79.1820860  34.0860558  12.9066622  78.7933779  34.8779321  13.2782412
  80.1184464  34.2787886  12.8584671  34.8367143  10.1774561  10.7548094
  34.1336894  10.8208203  10.6649888  34.5124006   9.5579803  11.4084923
  70.2973318  12.0110667  44.5451164  69.5535612  12.1488476  45.1316833
  70.2889729  11.0711074  44.3644571  96.9788551  21.6266108  54.5700455
  96.8735027  22.5712585  54.6830606  97.5426483  21.5387416  53.8015127
  34.7884331  30.5473781  22.0506430  34.4302330  30.1000643  21.2839389
  34.0391121  30.6562805  22.6362085  74.2690086  12.8462744  30.3087425
  75.0437450  13.3945215  30.4329896  74.2328787  12.6931357  29.3645620
 101.9610405  23.4741521  35.4086709 101.6786957  23.2031107  36.2821984
 102.7065945  22.9072165  35.2112842  91.8292332  14.0075099  61.0663128
  91.3390446  13.5710621  60.3695631  92.2926521  13.2990825  61.5130854
  83.1602669  48.1663465  22.5015903  82.7095032  47.4393892  22.0719695
  84.0537357  47.8494549  22.6339936  77.0728111  26.5402675  16.7491698
  76.7988777  25.7770991  16.2404788  78.0104542  26.4097762  16.8907022
  85.3830624  32.2923565  27.3062372  84.5820618  32.2804117  26.7823362
  85.0775623  32.2433186  28.2120514  83.0059528  13.7619710  28.9310431
  83.4399414  14.5991337  29.0955067  83.6683178  13.1035471  29.1407704
  86.9239426  12.7836382  74.0501118  87.7316856  12.5804937  74.5218182
  86.6885185  13.6630166  74.3459225 104.4571495  37.5198412  21.7122507
 104.5864391  38.2688379  22.2940755 104.7664261  36.7679334  22.2174358
   3.0162201  23.1133032  25.5674124   2.0810280  22.9106998  25.5918503
   3.3806191  22.6541162  26.3241100  93.6852551  42.4882889  13.4662104
  92.8372669  42.0963812  13.2575071  94.2310524  42.2987127  12.7030599
  92.7575302  23.3030272  14.1228473  91.9301414  23.6898398  14.4092667
  92.9794025  22.6755261  14.8107779  79.4695044  32.7662086  45.0593090
  80.2973366  32.8687358  45.5287838  79.6043253  33.2287812  44.2322159
   2.4144612  44.7967577  25.4762483   3.0505619  44.8697948  24.7647262
   2.1396027  43.8800383  25.4586315 102.1396160  54.4257307   0.9672359
 102.2511005  55.3723574   0.8794622 102.4501038  54.2289257   1.8510321
  86.6147518  70.0066376  29.4017243  86.9138908  70.8930159  29.1990399
  86.4315414  69.6145868  28.5479307 115.4568577  11.3992369  44.1735554
 116.0599136  11.8744755  44.7451353 115.3239918  10.5585849  44.6116018
  97.4763870  48.8235044  31.0134315  97.5581169  49.5070934  30.3484011
  96.8235874  49.1622114  31.6260982  95.9487247  59.1572380  12.4140191
  96.4119816  59.3505430  11.5990007  95.0934410  59.5737267  12.3079491
  66.3821745  38.4295511  18.9171016  66.2867928  37.8446388  18.1654274
  65.7807589  38.0767894  19.5729160   3.2033024  12.6497257  26.8392205
   2.5207863  13.3137965  26.7422056   2.7344666  11.8635154  27.1190453
  94.9435997  38.3600521   6.1319834  94.4417191  37.5568557   6.2706411
  94.8463535  38.8474727   6.9500279  95.0702286  12.8886139  59.4865561
  95.0207043  13.3961999  58.6765337  94.2399693  12.4136412  59.5227098
  99.8596573  11.8351400  70.8375549  99.2214298  11.5843177  70.1697302
 100.0614548  11.0186923  71.2946367  78.6099434  16.7830861  48.6004162
  77.6527596  16.7882264  48.5978699  78.8511372  17.4259841  49.2673063
 105.2996159  48.0017424  23.9562416 105.2795219  48.5946417  23.2050419
 104.4133759  47.6429605  24.0019608  88.6474228  63.9765072  31.5114427
  88.8365364  63.7111712  30.6114078  88.3947468  63.1652784  31.9522309
 109.1623116  13.1194425  32.7876902 108.5886002  13.5684395  32.1668124
 110.0476933  13.3280075  32.4896431  84.3372917  15.8403409  30.2698278
  85.2116871  15.9087431  30.6532288  83.8593769  16.5881824  30.6283808
  82.6286602  25.9168959  42.1947622  83.3170319  25.7129097  41.5616989
  82.9663754  26.6684389  42.6819611  89.6900463  17.1517527  13.5879946
  90.4454041  16.8966699  13.0582666  89.2908859  16.3224435  13.8509488
  78.3333302  27.0364594  39.4492245  79.1379261  27.2442245  39.9242902
  78.0191517  27.8820086  39.1289568  95.1173019  48.5568523   3.9663109
  95.5782318  47.7413177   4.1629913  95.7315445  49.0551090   3.4271687
  96.0897064  62.5947285  45.8939362  95.2616882  62.2123528  46.1844587
  96.0134220  63.5239935  46.1104441  99.2769337  30.8647513  30.2413702
  99.7810459  30.1502013  30.6306291  98.4309864  30.4717517  30.0265384
  92.3448550  99.7305333  67.1851969  91.6236006  99.1092026  67.0853615
  92.6480280  99.6031439  68.0841351  68.3340979  48.5536623  15.7245195
  68.3471918  49.3502760  16.2550485  68.0304766  48.8437176  14.8643386
  54.7579943  97.8900444  51.8988466  55.6690584  97.6111006  51.9904232
  54.2910754  97.0987605  51.6303635  79.4537687  32.9957271  25.2362704
  79.0113401  32.2928810  25.7121849  78.7882328  33.6772490  25.1423311
 111.6968536  22.6403594  19.6177661 112.3377514  22.6214504  20.3284812
 111.7692566  23.5225177  19.2533696  92.9263365  56.6009138  84.0778249
  92.5063908  56.6595539  83.2196647  92.2184622  56.7598057  84.7022408
  77.5739431  40.1741838  25.0014400  77.2545958  39.9333048  25.8710527
  78.5139179  40.3100920  25.1206350   0.7632122   7.8447235  10.8677769
   0.9207116   8.6259270  10.3375447   0.8255062   7.1179843  10.2479362
  87.7631283  30.5954361  17.3609114  88.0339622  30.6400561  16.4439094
  87.0123482  31.1864543  17.4179459 100.7139587  25.8009887  41.4996958
 101.6421413  25.6818295  41.7009401 100.6257439  25.5067468  40.5931234
 104.2530441  43.6395216  43.7879133 103.6736965  44.0585804  44.4242907
 103.7999153  42.8314352  43.5472727  64.3454552   5.8270580  38.9608407
  65.1926947   5.7233214  38.5276484  64.5545530   5.8449394  39.8947501
 113.7628078  22.0657325  36.3691950 113.7180328  21.1473370  36.6352344
 112.9343700  22.4418902  36.6665506  93.0487537  34.7639632  24.2248631
  93.1956291  34.7140026  23.2803178  92.7029610  35.6450963  24.3672109
 108.1843090  52.0441723   8.3544987 107.8110409  52.3599291   7.5315756
 108.9010429  51.4687777   8.0872107  75.2499771   5.9129226  17.6392102
  74.5882845   6.1952204  18.2706368  75.4998827   5.0359052  17.9301059
  86.8459797  20.6078935  46.7659473  86.9414234  21.4384246  46.2997532
  86.2906265  20.8172250  47.5169468  72.5415754  16.1910069   9.2221487
  72.6261806  15.4719865   9.8483139  73.0334759  16.9112170   9.6165603
 114.9512636  63.4575999  84.0687948 114.4435417  63.8458616  84.7813290
 114.4589674  62.6743472  83.8230496  84.9221230  24.2335272  51.2874460
  85.2035046  25.1474762  51.3292646  84.4534016  24.1650510  50.4556751
  43.1999670 105.6219124  16.7910719  44.0654265 105.7193177  16.3939106
  42.9687296 106.5043997  17.0808566 104.6594524   1.1480664  40.9045267
 104.9260521   0.5164290  41.5724993 104.1966629   1.8302196  41.3910627
  87.2111320  51.0006332  37.4680901  87.2313213  50.0812006  37.2026324
  87.2010708  51.4876604  36.6441131  17.0724938  52.3301644  75.8469683
  17.1224854  52.2427559  76.7988568  16.3241933  52.9082986  75.6985086
  87.9125023  22.6846695   4.3561167  88.2896519  23.5309052   4.1155469
  88.2850361  22.4923420   5.2166152  84.4292355   2.8028846  27.8069949
  84.1523361   3.4592512  27.1676636  84.8474789   3.3086994  28.5037398
  62.1726894  29.0347815  31.2950039  62.9876232  28.7670445  31.7197728
  62.4191999  29.1966581  30.3843665  72.4775648  40.2641296  48.1736088
  72.8116083  41.1259460  48.4224463  71.6861343  40.1527786  48.7003660
  56.9048023   7.5541645  12.8951097  56.1329079   7.3282826  12.3760819
  56.5788269   8.1655836  13.5555172  82.6310062  14.7642088  36.1568737
  82.4286556  15.4799199  36.7594051  82.5246429  15.1469660  35.2860045
  90.5065727  18.4969676  29.6082759  90.1013756  17.6864028  29.3000007
  90.5296707  19.0619838  28.8359714  28.5334942  70.7252986  92.4934244
  28.4986184  71.6387088  92.2093498  27.9800866  70.2584512  91.8673008
  94.7773933  24.9469280  19.2814445  94.4087219  24.5080137  18.5148501
  94.0515804  25.4609966  19.6352339   3.1470738  16.8720055  55.3480339
   3.4129582  16.0303319  54.9777317   2.7829991  17.3556077  54.6065426
  48.0040073  27.7898717  31.2449312  47.3860407  28.5091472  31.1145782
  48.4557295  28.0070257  32.0604205 112.3076248  62.8235340  22.1886563
 112.2079372  62.8569508  23.1400657 112.3988056  63.7391996  21.9250774
  70.8408070  32.0254755  49.2626190  70.6799746  32.1719599  50.1947689
  70.0394630  31.6103435  48.9436436  87.7291298   4.8881447  39.8278284
  88.5750103   5.1230794  40.2092934  87.9471207   4.5122144  38.9749599
  66.5110826  21.8943977  23.1681728  66.7391682  21.9632649  22.2410989
  67.3267317  21.6352606  23.5968900  65.3694391   1.1462723  30.8462334
  64.5136642   1.2096103  30.4221153  65.2028131   0.6527540  31.6492963
  99.8079395  58.1375742  49.6474504  99.8604393  58.6740065  50.4384756
  99.0280247  57.5976229  49.7755527  85.1667010 106.7764711   6.0917878
  84.6324908 107.4591690   5.6858569  84.6423899 105.9801134   6.0072309
  37.5994812 105.8968305  29.2330289  38.5278260 105.7441472  29.4093585
  37.5023257 106.8484324  29.2683411  73.1143379  24.0395975  41.7069817
  73.7316847  23.6294007  41.1012936  73.6193800  24.7340512  42.1299458
  47.4814402  92.6069533  30.2257895  47.0513045  91.8445396  30.6130099
  47.9444109  92.2593188  29.4635272  43.0483137 101.1681508  51.2917185
  42.9224001 100.2323287  51.1348295  42.1726404 101.5452259  51.2066031
  75.0330544  28.2143760  26.2448335  75.4796410  28.9841771  25.8924127
  75.0077057  28.3639383  27.1899366  60.6203222   8.6160558  11.5281641
  60.1070738   7.9259509  11.9483590  60.9439611   9.1495377  12.2540319
  98.1592274  71.5531540  61.6062975  97.5699234  71.4616156  62.3550129
  98.0689049  70.7288265  61.1282158  89.3946171  72.4444771  24.6542835
  89.8935986  73.2057047  24.9505639  88.4897137  72.6426315  24.8953676
   1.7450867  31.4272428  48.8263893   1.8481408  30.5467439  48.4653711
   0.9457646  31.7610598  48.4191084  81.5934372  23.2362008  15.7867324
  81.7987728  22.9546738  16.6782570  80.6447792  23.1308746  15.7148051
 107.6557541  39.4161487  73.7832832 107.1291447  40.0676966  74.2463207
 107.5787830  39.6579719  72.8603411  90.3022194  53.3868456  13.8698316
  89.4303799  53.4231806  13.4763682  90.6143570  52.5022793  13.6791921
  23.9053402  33.7178826  74.1865015  23.0036888  33.8405561  74.4834900
  24.4417343  33.9808059  74.9344254 103.1698895  36.9732618  42.5326729
 102.8224087  37.2838902  43.3687353 102.8917980  36.0587144  42.4826670
  68.2659578  49.9514246  42.5906610  68.3153963  50.9034824  42.5047731
  67.7527046  49.6689844  41.8336725 105.4416752  66.6470098  50.0958776
 105.6511974  65.7818842  50.4478598 104.4886112  66.6450691  50.0070953
  88.3850384  57.4340439  59.0904331  89.1175652  57.8574324  59.5380783
  88.7443066  56.6049671  58.7745380  17.9583702  45.5114698  49.7421694
  18.5793648  45.6517076  49.0273714  17.1883068  45.1314020  49.3193388
  87.3479366  81.4390755  26.6129541  86.9494343  80.8661842  25.9578013
  87.3348331  82.3077869  26.2112260  70.1917219  67.5216675  49.7599554
  70.0980473  66.8082523  49.1286898  69.7638273  67.1978521  50.5525923
  98.2801914   9.9521798  31.5613246  97.7266312   9.2923796  31.1436391
  99.1392708   9.5355964  31.6297221  57.8611231  32.3728943  34.4540668
  57.0227718  31.9386578  34.6116519  58.4466171  31.6690826  34.1746378
   6.3926564  41.3716030  22.6068234   6.7181073  41.4584446  21.7108488
   7.1506939  41.0727119  23.1090832  69.1422749  53.7970400  28.2248521
  68.5705709  53.7266350  28.9893317  69.8434353  54.3860435  28.5035586
  94.9681664  32.3333001  66.8453169  95.8557224  32.6284146  67.0487642
  95.0147057  31.3787961  66.8999815  74.3641567  45.3033543  32.5198436
  74.4585562  44.4722986  32.9853201  74.0897465  45.0538063  31.6374278
  20.1946221  21.8399167   8.6858928  19.3450508  21.5877843   8.3241063
  20.2536831  21.3626528   9.5135170  90.0128460  44.9030352  35.0043130
  90.6874084  44.2447567  34.8374081  90.4737377  45.6084919  35.4583359
  74.6500063  52.0342731  60.4200983  74.9669600  52.2213030  61.3037252
  75.3499079  52.3423624  59.8443794   9.5924721  88.3373451  43.5300732
   8.8324700  88.9142323  43.6063766   9.2192612  87.4642086  43.4093380
  98.8939381   1.4670019  53.7059736  99.2648983   1.1413170  52.8858805
  99.1826725   0.8370627  54.3663073 102.4058437  27.8850603  19.3031323
 103.2878017  28.0083060  18.9521492 101.8826580  28.5664272  18.8809276
  99.3279839  46.0377169  76.6924191 100.1411629  45.6331682  76.3902235
  98.6782551  45.3366756  76.6412020  79.9276495  36.9439530  41.3843155
  80.4691887  36.9099998  40.5957651  79.7458553  37.8752756  41.5101004
  81.9069767  65.4838991  46.5944529  82.5066376  65.8942127  47.2175694
  81.1584282  65.2124119  47.1256733  37.0598685 106.1206137  34.5929432
  37.1004330 106.4848112  35.4772186  37.9725682 106.0842546  34.3067837
  62.3942232  28.5584998  12.4975336  61.9385147  29.3149495  12.1282840
  63.1170511  28.9356756  12.9990196  94.2585468  59.8185921  39.1997600
  94.2226601  60.1040316  38.2868147  94.7741890  59.0124321  39.1785574
  98.6459160  67.7160215  38.9277077  98.9562511  67.8742933  39.8192668
  99.3979645  67.3319578  38.4769750   6.3535462  24.4703722  33.6193371
   6.0328541  25.1271081  33.0012083   5.5782566  24.2115808  34.1175127
  77.0909166  38.4501767  34.4192910  76.9123459  38.4547400  33.4789062
  77.6466799  37.6825452  34.5538259  69.4983912  70.9352112  31.5490317
  69.4376850  69.9807596  31.5885830  68.7247086  71.2040997  31.0537076
  75.8330059  30.6185627  43.2954121  75.8462143  29.8690748  43.8906670
  76.2379169  30.2930784  42.4914598  90.4553986  20.0391269  18.0798805
  90.3048706  19.7232080  17.1889460  89.8081493  20.7339811  18.2001793
   1.3164006  37.2450423  67.9362059   0.4819069  37.7099991  67.9968548
   1.4649926  36.9036365  68.8180161  85.3926754  50.6441355  52.0999670
  84.5950508  51.1706829  52.0473099  85.0840187  49.7384691  52.0729113
  94.4139194  67.0201492  35.7293129  95.1979351  66.4806223  35.8315420
  93.6978531  66.4619732  36.0325170 105.1978493  23.1927562  13.1050193
 105.5271530  23.5340047  13.9364898 104.7789383  23.9448333  12.6865375
  80.9325886  57.7582550  49.8437500  81.7182636  57.7550411  50.3904915
  80.8747673  56.8659115  49.5022631  80.6974030  30.5138874  49.8564196
  80.3172016  31.3746381  50.0318813  81.4820671  30.4825592  50.4037380
  12.7503548  23.1811142  24.7244787  12.7573452  24.1110754  24.9510908
  13.6665783  22.9719830  24.5427465  78.9092112  69.7012615  55.9884071
  78.2786512  69.2086935  55.4630470  79.1577101  69.0998554  56.6904020
  83.2561016  28.4615636  64.5423460  83.9108086  28.7149501  65.1930237
  83.2801628  27.5046730  64.5384216  87.9927254  12.9002810   2.8275248
  87.9443741  13.8541651   2.8907779  88.6669159  12.6521647   3.4600872
  78.7666321  49.9168587   8.1462973  77.8172731  49.9521160   8.2633853
  78.9997625  50.7849264   7.8171432  92.1701431  32.5411034  68.4661531
  92.6097870  31.8112206  68.9022875  91.3882923  32.7002263  68.9949417
  81.0547447  54.9364614  49.7792721  81.9923019  55.0058222  49.9593067
  80.7952785  54.1054630  50.1772118  89.1801834  33.1218815  17.4465001
  88.8503838  32.2288823  17.5465727  89.0651989  33.5178852  18.3103240
  66.7506742  31.1063218  26.9022822  65.8346033  30.8912802  27.0777845
  66.7337322  31.5544844  26.0566497  61.0876989   4.5540890  42.9172421
  60.6823492   4.7305784  43.7662268  60.8309746   5.2964979  42.3702908
   1.0983429  24.4602227  90.1526356   0.8450375  25.0904870  90.8270454
   1.7799721  23.9294124  90.5647755   4.2036305  14.9007726   5.1940697
   4.0945969  13.9573562   5.0744575   3.8662205  15.0712883   6.0734499
  91.3293552  26.2242651  42.9021978  90.8294296  25.4183745  42.7724171
  91.9123363  26.0289550  43.6358309   9.0556679  54.6591711  29.4934464
   9.0551529  53.7098789  29.3706536   9.3811665  54.7852182  30.3847361
 110.5806923  34.9303913  16.4899862 111.2583351  35.2879524  15.9162354
 110.9075069  35.0904727  17.3753119 114.2182922  55.6631613   6.0844129
 113.9367867  56.2928772   6.7480737 115.0611782  55.3401804   6.4029503
 101.6862965  51.8439245  14.2767608 102.6224613  51.7367029  14.4450939
 101.5927505  51.6895580  13.3367324  80.7382107  31.7043328  13.9585972
  79.7910023  31.8404698  13.9363599  81.0550308  32.3309255  14.6091664
  76.8227863  32.9217911  44.5472479  76.5465355  32.1235847  44.0969324
  77.6056528  32.6636028  45.0337553  82.1463394  62.6667976  38.0706906
  82.5743866  61.9473696  37.6065540  81.2112045  62.4755239  37.9986906
  81.9329643  54.3453217  53.0813599  81.3030243  53.7325859  53.4607840
  81.4157486  55.1242018  52.8762484  88.0472183  23.3124256  48.6401987
  87.3143387  22.8803015  49.0788174  88.1410313  24.1480589  49.0975285
  98.1165314  60.8788204  67.7167416  97.6493645  61.3261938  67.0111609
  98.8584328  61.4508581  67.9131556  90.2514172  36.0278773  40.5085278
  90.7189465  35.7720399  41.3036394  89.9710464  35.1998663  40.1186228
 116.4315224   7.4704599  20.5862212 115.5945969   7.6077652  21.0299826
 116.9933128   8.1739151  20.9114575  89.5141697  59.2765665  29.4020367
  89.6587181  59.1156769  28.4695911  88.8243580  58.6599588  29.6473670
  81.1771965  24.2075300  33.1730700  80.4885387  23.6184192  32.8649616
  81.9899559  23.8099933  32.8606415  74.7974253  68.9560604  44.8156023
  75.2426004  69.5156193  45.4519558  75.4114056  68.8895702  44.0842724
  90.8583450  36.7984033  32.0938921  91.6752720  36.3880301  32.3775196
  90.8318615  36.6509438  31.1484909  91.7842770  31.3536286  36.1773920
  91.2825012  30.5596232  36.3617849  92.6319885  31.2038517  36.5959501
   8.1022892  51.2647343  32.1925688   7.6805363  51.5202856  33.0129647
   7.9794560  50.3166246  32.1452999 111.0049820  59.9330997  16.8172860
 111.0794067  59.5274496  15.9534919 111.4006901  59.2985582  17.4147809
   1.1468754  79.0358925  39.4473505   0.9302006  78.3114672  38.8604188
   0.7883702  79.8105431  39.0141964  98.1200218  46.8574572  33.7518644
  98.9625835  47.1518183  33.4059429  97.6516056  46.5214109  32.9877377
  82.4828148   9.4910234  36.4478159  82.9069996  10.3032935  36.1712050
  81.6413879   9.7709227  36.8082190  85.2864647  39.1420579  19.5187044
  86.2426090  39.1854310  19.5305562  85.0741291  38.3873057  20.0677872
 101.0040188  57.7332449  32.2645998 100.1504612  57.3403835  32.0820332
 100.8407593  58.6763620  32.2542048  68.5806417  38.5582876  16.5861380
  68.1984472  39.4053149  16.3565600  69.3642664  38.7778020  17.0901036
 103.5797691  28.4327722  43.0127859 102.9918385  27.7680349  43.3715343
 104.4101810  28.2879543  43.4662962  90.7126331  44.2278004  30.6817102
  90.3756332  44.9784756  31.1707354  90.6155109  44.4774389  29.7627544
  62.2557020  74.6891785  50.4604435  62.9671288  74.3403578  49.9233866
  61.9693041  75.4761171  49.9968290  69.7012186  29.8517346  42.3070192
  70.2996302  29.4132686  42.9119015  69.1043091  30.3410029  42.8731871
  66.5636444  47.7957964  20.4070115  65.9612036  47.4679947  19.7392941
  67.3854589  47.3363733  20.2344322  91.3994217  34.7843170  60.9564018
  91.5163422  33.9621234  61.4323807  91.7645264  35.4515266  61.5375757
  98.1193066  79.6019411  31.2629080  97.3278332  79.8372984  30.7787466
  97.7991676  79.2995501  32.1127868  93.2676411  21.6194844  67.8848314
  92.5454617  21.4011097  67.2957659  94.0395355  21.2335324  67.4707699
  79.8389101  32.5119138  29.2570043  79.8492622  31.5609360  29.3654799
  80.6700611  32.8046751  29.6307898  76.7142344  45.9350872   1.6892390
  76.9343042  46.8442249   1.4860708  77.0102072  45.4404879   0.9250382
  17.5845108  56.4864111  58.2587862  18.2078610  56.6758633  57.5575256
  16.8072949  56.9974422  58.0329037  98.7282944  30.1435471  22.0401073
  98.7349606  29.6606207  21.2136865  98.7920570  31.0627699  21.7808795
  90.3514957  21.4129376  12.7755296  89.5560169  21.8652630  12.4947143
  90.6038475  21.8536115  13.5869229 104.0913486  49.3922949  60.3028774
 103.3431911  49.6797991  59.7795868 104.0984726  48.4398794  60.2075338
  92.9926014   1.5731306  32.4684691  93.3991432   1.0497074  33.1591058
  92.2545910   1.0423717  32.1686959  73.2906580  25.8223867  22.4598289
  73.9042568  26.4944577  22.1630955  72.9649830  26.1489391  23.2985950
   8.7407647  42.1095324  61.4594555   8.4940014  41.4232397  62.0794106
   9.6816597  41.9892788  61.3310480  89.4940662  79.3500137  41.0684443
  89.1128445  78.9697933  40.2770281  90.2832222  79.7974396  40.7630444
  34.9131653  81.0933680  91.3812542  34.7126362  81.0174722  92.3141312
  34.7891305  80.2089161  91.0368800  91.4073467  41.2169123  34.6485400
  92.1767902  41.6852188  34.3246818  91.0382557  40.7966185  33.8717794
  86.0436344  33.0393624  18.1836736  86.1279583  33.8563323  17.6920581
  86.5786743  33.1741929  18.9658415  79.0632725  66.8751001  38.2258248
  78.2233858  66.5413809  38.5411906  79.6976471  66.5849352  38.8812685
 107.0772457  26.3686275  54.5729685 106.6884995  27.2155285  54.7917652
 107.0764160  25.8842468  55.3985643  91.8060862   1.2902017  66.2463671
  90.9576594   1.1905761  65.8145433  92.4320685   0.8974500  65.6379872
 105.5248165  35.9454799  36.7003345 105.5567741  35.0367928  36.9994950
 106.3392162  36.3322735  37.0218658  87.5560856  29.0778708  12.2866225
  88.3598137  29.0305114  11.7689216  86.8719387  28.7623405  11.6961908
 107.5431061  53.8498211  19.2228842 107.7315521  52.9548693  19.5053363
 106.6523170  53.8086367  18.8750064  67.9433823  48.3015728   6.2679440
  68.7007189  48.2131815   5.6892717  67.5446701  49.1342449   6.0151231
  84.3104458  19.5318747  12.7316010  84.2772388  18.6974871  13.1994987
  83.3929920  19.7824097  12.6232767  84.0975189  31.9000077  29.5772767
  84.2103481  30.9494925  29.5820522  83.3973217  32.0612693  30.2096891
  92.9772282  48.2230139  19.0396631  93.4452915  47.4810028  18.6568236
  92.1441269  48.2492781  18.5690367  86.0692787  14.3284023  35.3800750
  86.2484264  15.2675486  35.3337908  85.8896351  14.1641772  36.3058138
  95.0968456  58.8067055  34.3407154  96.0080624  58.9469433  34.5981121
  95.0385189  59.1715813  33.4577131 104.6954155   2.4794388  27.1130562
 104.7807503   1.6180000  27.5215554 105.1230526   3.0782464  27.7252531
 104.8534679  39.4613767  27.4383974 105.5331230  39.7261190  26.8185449
 104.3300915  38.8185143  26.9598198 113.1414032  54.9131489  29.4543695
 113.2225895  54.5962763  30.3539443 113.4085178  55.8312464  29.4988036
 113.4107399  51.9626474   7.7368128 114.1497898  52.1608973   7.1617126
 112.7268219  52.5760221   7.4680120 111.5498447  10.3505409  41.4488935
 111.3807392   9.4301504  41.2476063 110.6800938  10.7377768  41.5479374
  92.6767635  33.6600518  56.6868496  91.8529987  33.4070420  57.1035290
  92.5142670  34.5413661  56.3505268  79.3157339  42.6042366  38.3764100
  78.5283327  42.1667624  38.7002158  79.1257906  42.7894306  37.4567056
  38.9507281   8.9612670  91.4445767  38.9925991   9.8533816  91.1001828
  38.0625235   8.6676784  91.2417751  80.6729507  39.7443533  57.5232649
  79.7832298  39.7192621  57.8753948  80.5732346  40.1157665  56.6467142
  70.4187250  28.6045003  46.0305548  71.1390543  28.9715362  46.5430403
  70.6473064  27.6812196  45.9231567  23.2193921  75.2497811  93.9428785
  22.5892804  74.7679133  94.4785972  22.7108834  75.5553693  93.1916976
  63.9785194  11.7754698  37.4740744  63.0499315  11.9809306  37.5824571
  64.0517950  11.4672875  36.5708113   2.6356182  48.3259916  78.1706285
   2.2870789  48.7844324  78.9352083   3.4966431  48.7189579  78.0276632
 104.4439507  39.6886659  17.0750916 103.9812279  39.5730186  17.9049981
 103.8002968  40.0983047  16.4970481  81.8243408  50.6903887  14.3923211
  82.7664757  50.6072569  14.2450309  81.6392612  51.6173887  14.2418075
  96.2175941  65.6343889  26.3467765  96.0362434  66.1071777  25.5344844
  95.5368900  65.9284019  26.9521141  90.7308865  14.9893188  23.0188823
  91.4331913  14.5109141  23.4594917  89.9550343  14.8225355  23.5541105
  91.7048931  50.9167480  13.4223151  92.3358727  50.8078337  12.7108133
  91.9768906  50.2799845  14.0832150  62.7582407  44.5871544  37.2168779
  63.3426332  45.0203037  37.8390503  62.9624367  43.6561251  37.3047709
  72.2023249   8.5052007  11.3413262  72.9083157   7.8629422  11.4142013
  71.7082405   8.4114611  12.1557748 103.2723141  12.5269556  35.4181290
 102.6071167  13.2057929  35.5318308 103.2100677  12.2829103  34.4946575
  87.7324009  47.1224022  10.5563903  88.5806656  47.5657606  10.5670118
  87.3510456  47.3552179   9.7098690  19.5639775 105.9492058  81.0975212
  20.3962586 105.5689139  81.3784259  18.9135525 105.2758164  81.2968606
  99.7393608  28.9820051  58.3895111  98.8824654  29.3003416  58.6734390
 100.3253841  29.1903210  59.1171217 100.6745911  22.9531860  44.6702623
 100.4223061  23.7494230  44.2027283 100.3801632  22.2396159  44.1042566
  95.5376148  46.1155510  19.2637992  95.4889011  46.7626715  18.5601711
  96.3765717  46.2887812  19.6908605  19.0884076  29.1835570  18.6001801
  18.2086239  28.8200617  18.4997559  19.4070397  29.2906761  17.7039492
  85.0531101  34.2730784  45.7148695  85.0557423  33.7561250  44.9092722
  85.4716015  35.0986934  45.4710197  16.7917309  34.5576072  41.8604469
  17.1982060  34.2266345  41.0595322  16.9888173  35.4942989  41.8596363
 103.5495853  43.2769203   7.0138812 103.1814766  43.1429195   7.8872514
 102.8267097  43.0834246   6.4170182  91.2828541  28.1573105  31.4250469
  92.2131443  27.9387236  31.4799404  91.2596798  29.1138911  31.4505816
  81.8189907  30.3205872  41.5890169  81.3235092  30.8548689  40.9683180
  82.7178001  30.3435135  41.2606144  96.0352135  72.2772408  73.4566784
  96.0601711  73.1707287  73.1142092  96.8995857  72.1458578  73.8463306
 108.5281849  66.4169121  34.5590544 108.2096291  66.9863558  33.8587046
 108.4154034  66.9329691  35.3573012   2.4919484  92.8077788  87.5247460
   1.8388198  93.2729430  87.0019829   2.9554246  92.2568173  86.8939858
  93.4532261  32.0809531  53.9213324  93.0383778  32.1841431  54.7777700
  94.3585014  32.3600173  54.0585232  35.2106081  21.0450168  84.2029065
  35.5462729  21.1491246  83.3125549  35.9942328  21.0049529  84.7511416
 116.3828003  92.3056406  92.5151133 117.0292866  91.6031975  92.4453792
 115.5570853  91.8546051  92.6911516 115.1691151  56.4903355  76.9439697
 115.2261829  55.6189346  76.5520144 115.1341915  56.3271856  77.8865147
  95.5206108  12.2220504  31.0492921  95.4588223  11.2927032  30.8285499
  95.7205677  12.6528442  30.2182317   5.8846722  14.4642353  30.2633023
   5.4738770  13.8376904  29.6675539   6.7423211  14.0850973  30.4554772
 104.2690563  53.4318352   7.4194074 104.7895145  53.4541845   8.2224363
 103.3857059  53.6712837   7.6997614  71.4717770  72.1459198  41.2553978
  72.1747541  72.2599602  40.6158257  70.6766891  72.3954535  40.7844400
 102.4621677  12.2473788  23.0649543 102.1435261  12.1612990  22.1664619
 103.2186699  11.6624963  23.1078625  94.5629215  56.2248659  34.3042564
  94.9453068  57.1018267  34.3352032  94.1326618  56.1210966  35.1529813
  74.3915939  22.3670363  34.2308974  74.7666359  22.8896618  34.9397254
  73.6868000  21.8703485  34.6465802   4.3538628  44.1975212   7.4837106
   5.1106606  43.8388109   7.0202219   4.7158585  44.8962450   8.0286670
  36.9779942  85.9258479  77.2004252  36.4054082  85.2523703  77.5675851
  36.5684006  86.7528982  77.4542969  76.5925789  16.2960446  33.1672573
  76.3051176  15.8635235  33.9713240  77.4135637  16.7259181  33.4068775
  68.5535669  31.5308714  44.4611120  68.1479454  32.1392417  45.0788450
  69.3672895  31.9619083  44.1997910  76.7115545  40.9370899  46.6407013
  76.7810297  41.6525650  47.2727633  76.0531425  41.2350607  46.0130596
  96.3952637  18.6036873  62.7380037  97.2286224  18.8400924  63.1452513
  96.2967873  17.6689601  62.9191637 110.7925320  29.2003560  42.2235584
 111.2128735  28.6733961  41.5439606 111.4928055  29.3879533  42.8485823
  58.6973940 108.6900787  28.8375092  58.8740813 109.2213151  28.0611086
  57.7496516 108.5563759  28.8256240  71.3015699  39.9495673  30.8612752
  72.0850468  40.1244831  31.3826180  70.7724667  40.7422113  30.9507275
   8.5226403  33.2540488  35.0727201   9.3720494  32.8421903  35.2312040
   7.9766617  32.5500250  34.7227383 102.9934311  51.8100262  26.1061907
 103.7177467  52.1660709  26.6208100 102.4641418  52.5739717  25.8771253
  63.9240919 102.6018351  44.8738098  63.6168848 102.3334514  44.0078831
  63.1240927 102.7958750  45.3622532 116.2989998  55.7764053  13.8318777
 115.5988121  56.2989998  14.2228699 116.0162544  54.8697186  13.9510620
 107.0334911  64.3485117  62.2814512 106.4655304  64.9137545  61.7578554
 107.0355320  63.5127401  61.8148518 103.9754963  13.8004601  20.3064609
 103.4753513  13.6112416  19.5125580 103.5091877  14.5296443  20.7152128
  11.3473008  80.3125114  92.0935172  11.6407273  79.5587367  91.5816992
  10.8385728  79.9323410  92.8096917  99.5339775  68.4682512  30.2186012
  99.3176174  67.6376820  29.7948432 100.2520275  68.8242531  29.6952391
  84.8599434  46.7670107  57.7049398  84.9414825  45.8166981  57.7854633
  84.3631554  47.0312452  58.4792852  98.2341862  47.6992893  51.3177299
  98.8324451  48.3869362  51.6100740  97.6233101  47.5876808  52.0461512
  65.5076027  88.3821678  47.6066589  66.3460541  88.2224751  48.0399418
  65.5350590  87.8340721  46.8223953   2.7157269  28.7226796  28.7670135
   1.7931519  28.5998297  28.5434079   2.7534161  29.5960450  29.1569424
  58.5416889  30.4784799  23.1713486  59.0462160  30.4492378  22.3584366
  58.9066887  31.2206459  23.6532140   4.7143612  12.1417630   4.4881755
   5.6099377  12.4569583   4.6099427   4.7705517  11.5421951   3.7441373
  45.5355059  12.3342032  93.8311302  46.0658346  11.6165443  93.4847918
  45.0322996  12.6450057  93.0785268  -0.0094440  88.5225553  88.1938225
   0.8766148  88.5212583  87.8317016  -0.5658700  88.2441587  87.4664211
  60.7984543  22.4538064  22.1331167  59.8998880  22.7801752  22.0852971
  61.3324308  23.2390976  22.2532034  96.6722298  46.7695427  37.6830482
  96.1860466  46.1088419  38.1763363  96.2280083  46.8111610  36.8361950
 114.1686440  24.7111511  51.5339375 113.8621330  23.9004445  51.9401932
 113.5011578  25.3591871  51.7592144 110.3109074  39.1809249  47.7151585
 110.4386806  40.0865507  47.9975557 109.4342136  38.9546299  48.0256987
  97.9680347  36.8631935  53.1476593  97.2214508  37.4550915  53.0554676
  98.4963226  37.0203233  52.3650646   2.7081929  52.1804047  34.9090791
   2.1206818  51.4848948  34.6135736   2.4257241  52.9551411  34.4230533
 102.9818690  97.6018662  95.0967725 103.8940727  97.4064249  94.8824858
 102.5555956  96.7455859  95.1329943  65.7354355   6.9364256  31.6888928
  65.4027128   7.2547764  32.5280476  66.5320444   7.4453610  31.5384650
  38.3105074 103.4287679  26.0065913  37.9740130 102.7183943  26.5528250
  39.1472040 103.6636847  26.4078164  70.2181816  54.1637325  42.3485088
  70.0707626  55.1064920  42.2729778  69.3518019  53.7753439  42.2269964
  63.3143711  14.7093523  36.2062860  64.0437222  14.3171775  36.6863632
  63.3372688  15.6347489  36.4498997 101.6815853  53.0966282  38.3628702
 102.6338768  53.0620766  38.2724166 101.5370464  53.4240246  39.2506480
  75.9485245  33.5842371  20.2712345  75.9284258  34.5218325  20.4629207
  76.7776632  33.4514284  19.8117530  69.8565722  60.9877634  21.1526585
  70.6020117  61.4416122  21.5458250  69.2059374  61.6751289  21.0097003
  11.9770489  33.7917709   2.6360953  11.8749295  33.4487343   1.7483297
  12.7591095  34.3419123   2.5918001  97.3637867  44.3577194  49.2105246
  97.4856091  44.3358898  50.1596928  96.4147091  44.3265057  49.0900803
  10.4697857  45.8834934  37.3059583  11.2720642  45.5774641  36.8829560
  10.6944332  45.9376240  38.2348490  84.6784019  52.1643353  33.1376433
  84.1443825  52.9392672  32.9629230  85.0762939  51.9523048  32.2932744
 107.6862621  41.8076658  35.5614281 108.1407166  41.1918259  34.9865866
 106.9155121  41.3279629  35.8648300  94.3377590  35.7171822  50.2600527
  94.3909454  35.8344841  51.2085485  93.4035778  35.7842302  50.0624371
   6.3455067  40.8149672  28.6303186   7.1438561  40.6906033  28.1170917
   5.9172211  41.5704298  28.2277322  70.8477879  75.7622004  22.9903984
  71.4180040  75.5841732  23.7383223  71.3770676  76.3100052  22.4107385
   2.9290734  71.7760897  39.0710282   2.7709351  72.3020887  38.2870936
   2.9412899  70.8726931  38.7548590   6.8324254  99.6796555  81.5931576
   6.6799233 100.3170199  80.8954865   7.1481965  98.8984341  81.1390513
  82.5725460  35.4521585  44.4272709  82.9842091  34.6135139  44.6356916
  81.6904449  35.2203393  44.1367722 107.2319889  41.2997007  26.2608528
 106.7399883  42.1173382  26.3359070 108.1345654  41.5435743  26.4660740
  36.7511630  47.9557276  36.7990136  37.4162030  47.8824234  37.4835420
  37.1666193  48.4834051  36.1169720  75.1333237  31.4394093  17.7816880
  75.4482794  30.6456232  17.3493218  75.7884121  32.1040821  17.5688481
  92.1760845  70.4001379  44.2901087  92.0142174  70.2570152  43.3576107
  92.9168320  71.0058784  44.3144131  91.8711567  29.9113703  57.1602964
  91.2950230  29.3674278  57.6973438  92.7531242  29.6007466  57.3649502
  98.6126041  84.5688534  55.0384617  98.5088158  83.6444950  54.8126078
  99.4467354  84.6089172  55.5062819 112.4473190  42.1349001  21.4669800
 113.1282425  41.4693499  21.5650558 111.6441345  41.6997576  21.7529368
 114.5395947  44.7844791  15.3477657 113.9406586  44.0942383  15.6324983
 113.9931011  45.5684710  15.2935684  88.9795399  92.0773220  62.7277040
  89.6036625  92.7840424  62.5626564  88.5826111  91.9041061  61.8740845
 112.2129726  43.7055540  43.5993910 112.3007393  43.6847782  42.6464462
 111.3024426  43.9591551  43.7505817 113.4527493  68.6995840  23.0122447
 113.2723331  68.9949751  22.1198153 112.8242111  69.1766214  23.5541010
   9.1629372 104.9209785  35.0215912   8.9125119 104.0025330  35.1215005
   8.8156948 105.1721764  34.1656995  70.3996277  60.1259327  46.7831182
  70.5393171  60.6324387  45.9830093  69.5397568  60.4060030  47.0968294
  28.8197670  47.3041582  39.5960402  29.1753540  47.8446674  38.8906050
  28.3161126  47.9143906  40.1347256  74.8346506  28.4034677  87.3280865
  73.9063441  28.6050935  87.4456846  74.8409544  27.5806375  86.8390673
  92.6431561  96.0107040   5.4522920  93.4237099  96.4425755   5.7993454
  92.1095562  95.8236217   6.2246275 110.4274750  27.9452991  17.2969663
 110.7067204  28.7893820  17.6516128 110.5657101  28.0245185  16.3531196
 105.5044092  10.6665564  33.1276608 104.5920719  10.8237982  33.3708596
 106.0129751  11.1289263  33.7938476   5.7213364  64.1350937  35.3693748
   6.5902577  64.4122648  35.6598759   5.1153813  64.6243143  35.9258890
  12.9837189  87.1866894  12.8475380  12.1633778  86.9034767  12.4437141
  13.2539902  86.4437866  13.3872390   1.0723935  63.1307936  54.4394302
   1.5441571  62.4028826  54.8441696   0.4057751  63.3714485  55.0828075
  69.9507809  76.0495758   1.7976958  70.7927275  75.5966520   1.8447293
  69.9761820  76.6779137   2.5193465  11.9913254 100.0981522  15.5887175
  12.3998032 100.6827354  14.9502420  11.3666973 100.6528378  16.0560429
  13.3470402  52.1926880  44.7408009  13.7887535  52.6225042  44.0084171
  13.5160599  51.2598848  44.6083355  86.0868168  60.1788712  28.6026549
  85.8246803  59.8623228  27.7381825  85.3886700  60.7815027  28.8588905
 103.4562683  64.0657425  34.5816278 103.9433765  63.6247301  33.8855934
 103.2700729  63.3754539  35.2180767  20.2888070  40.1848793  22.6338220
  20.6946526  41.0506105  22.5887036  21.0261593  39.5775914  22.6950407
  65.4183245  64.5670700  32.6022983  64.5529222  64.3076658  32.2860336
  65.9849501  64.4972706  31.8339896  37.9577326   1.5918685   6.0174823
  38.3672976   0.7374526   6.1533016  37.0246290   1.3985301   5.9270412
 115.5273342  41.1811113  39.6735263 114.6684361  40.7738018  39.5611858
 115.3345585  42.0617676  39.9952602  93.9901161  25.1606178  46.5003872
  93.2229900  24.7566795  46.0946894  93.7427425  25.2765942  47.4177647
   9.5062886  75.0926399  36.5765333  10.4032193  75.2579832  36.2859774
   9.2343197  74.3176317  36.0849786 112.5193214  79.1213608  58.9580727
 113.0079746  79.8855591  58.6523628 113.0809689  78.3764839  58.7437344
 103.1598473  52.2086573  33.4410715 103.0043888  51.6798782  34.2236686
 102.6161003  51.8028116  32.7658963  11.7736683  51.1969662  49.1386700
  10.9726868  50.7554436  48.8563299  12.4814377  50.6619501  48.7794304
 109.0443516  88.7115192  22.0785117 108.1837654  88.7352276  22.4969196
 109.3683910  89.6096516  22.1461701 105.1140308  56.2002373  21.1417317
 104.5782566  55.6235409  20.5971193 105.4203129  56.8800592  20.5415106
 114.5781898  15.1810241  45.6208897 115.2335739  14.9072850  44.9791861
 114.1006184  14.3789351  45.8325672 104.7624588  58.1635284  35.3141212
 103.9388657  57.6885176  35.2032518 104.5354939  58.9103746  35.8681464
  82.8901100  73.6232090  34.7144246  83.5626602  73.8161516  34.0612149
  82.2246552  73.1301022  34.2345881   6.4024601  55.5052900  19.7175908
   6.4277993  55.8192778  20.6214714   7.2365914  55.7876778  19.3424737
  77.5699663  90.0953293  19.0423548  77.5643539  89.4993496  19.7913539
  78.4926558  90.3196144  18.9216399 107.7533817  66.3413048  17.0705342
 107.5854397  66.8258524  16.2623024 107.1478748  65.6007624  17.0360458
 108.4293556  50.0542736  58.6985731 107.8677273  49.7249222  59.4002390
 107.9385185  49.8775864  57.8960228  69.9880968  19.7342343  83.3051973
  70.0737845  20.0004144  84.2206424  70.5510031  20.3418250  82.8254074
 104.3959713  71.9445419  39.5057774 105.0708485  71.7162561  40.1450443
 103.8195896  72.5501347  39.9718976 112.3324394  84.4178677  49.3030119
 111.8748856  84.9593925  48.6598778 113.2593346  84.6116352  49.1632080
 112.6248646  43.2142925  52.4697113 112.7374744  42.7776384  51.6253853
 112.0209789  42.6499891  52.9525375 104.3643284  62.3200083  32.4425840
 104.5256615  61.3804865  32.5291872 105.2184010  62.6901150  32.2193837
  10.1359806  55.4063988  46.6898823  10.9081040  54.8543167  46.5663290
   9.8514901  55.2234030  47.5853252  77.5010395  47.4002934  52.5267458
  78.1278086  48.0537415  52.2162724  77.1174335  47.7905369  53.3121061
  80.8714867  66.4612293  27.9194450  80.2759933  66.4042664  28.6666918
  81.2205696  65.5751562  27.8232765 115.0437641  43.4047174  32.9836869
 114.5552921  44.2061710  33.1715775 114.9155521  42.8586769  33.7593389
 113.5879707  30.3214669  63.1448889 114.1770363  30.9806418  62.7778435
 112.7521324  30.7768822  63.2459593  86.4201450  61.3607693  63.7190056
  85.5621243  60.9485865  63.8196802  86.9370842  60.7212353  63.2290983
  17.9110775  67.0031929  55.0697851  17.2383366  66.6669035  55.6618738
  17.6169930  67.8873444  54.8506165   3.6605130  46.5680552  27.0868921
   3.2115517  46.0655832  26.4070463   3.5082684  47.4825716  26.8487430
   4.6360836  86.7409992  36.2577510   4.4804345  86.9398880  35.3344679
   4.6989975  87.5977230  36.6800022 105.4063320  75.2457190  54.2935038
 106.2570381  75.2139091  53.8558769 104.8752594  74.5965815  53.8321877
  80.3213024  20.6954956  14.5014513  80.6916523  20.5649185  13.6285114
  81.0478973  21.0397530  15.0208485  78.6774492  82.5118637  25.7696843
  79.5673275  82.2326946  25.9851193  78.7388945  82.8353691  24.8709059
  91.9219017  71.6255713  34.0551138  91.5911865  70.7326365  34.1526866
  92.8206730  71.5155268  33.7447309  94.7271156  44.9183941  23.2964253
  95.6139469  44.8684311  22.9396915  94.7200680  45.7272005  23.8082981
  97.7945900  52.0062208  11.3022995  98.1145287  52.9012537  11.4153755
  98.5632229  51.5111303  11.0188901  12.2082768  60.6498575  29.9446678
  11.8831025  59.7771168  29.7237182  12.3609887  61.0699415  29.0982389
  23.0358372  79.5265484  12.0612812  22.4505196  79.8045111  12.7658236
  22.4491845  79.2685270  11.3503003 110.7187557  67.9861689  38.4926963
 110.6770325  67.1082640  38.8718772 111.6388893  68.1010151  38.2552266
  82.0640278  91.9280338  49.6173763  82.2190952  90.9967232  49.4597626
  82.7685070  92.1912861  50.2095270 108.7614536  40.6402731  64.7955418
 108.1292629  39.9233103  64.7452402 108.3728790  41.3395452  64.2699385
   7.3859463  82.4993896  55.1083326   6.5699444  82.0105267  55.0016165
   7.7554093  82.1725941  55.9286594  17.4104367  69.0341949  26.4964294
  16.9838295  69.8647261  26.7072725  16.8831787  68.6675167  25.7866526
 109.8935699  73.0222178   7.9016161 110.3496361  73.8450193   7.7248889
 109.3911362  72.8509903   7.1050775  71.3141346  30.6278729   8.6824203
  71.9438362  31.2776566   8.3701849  71.5114641  30.5315042   9.6140891
   9.1409658   2.9361773   0.6758443   9.8956560   2.3490477   0.7200409
   9.4994902   3.8021422   0.8702590 109.0420055  90.7832432  57.1894503
 109.3369865  90.8776188  56.2837410 108.0877399  90.8370209  57.1373844
   1.8957768  99.6313858  65.4861116   1.0050354  99.8951340  65.2553463
   2.3643170  99.6143436  64.6515942  66.6624117  60.1728201  22.7266288
  66.1980247  60.2484226  23.5602117  67.5556946  60.4546833  22.9236794
  85.3366362  41.1331315  91.4808765  84.4208895  41.4077516  91.4336449
  85.5932795  40.9972329  90.5687931  71.2414252   2.5716157  90.2874517
  71.4087759   3.2842202  90.9042316  70.5519854   2.9075522  89.7146874
  81.1788940  13.9190876  16.6927063  80.2713394  14.0010190  16.3996768
  81.2790966  14.6021724  17.3557186  94.9685669  82.3902607  54.3443012
  94.3337822  82.2956181  53.6341524  95.1697826  81.4920712  54.6069813
  18.1806336  49.1362381   9.0480322  18.5104618  49.8440838   8.4944975
  17.7123032  48.5589838   8.4449750  69.1222668  46.7195511  19.9275970
  69.2970896  45.7885742  19.7899485  69.5178270  47.1519852  19.1707861
   3.5492096  69.9079657  61.2758684   2.6591168  69.5658064  61.3588190
   4.0402279  69.4690895  61.9705057  42.4190495  74.8543543  86.1184531
  41.6546128  74.9897665  85.5585062  42.1142171  75.0774092  86.9979745
  64.4585371  37.6841140  49.6730042  64.4900894  37.4158907  50.5913115
  65.3702641  37.8659344  49.4451237 112.8043365  71.4367294  35.7023478
 113.2546711  72.2619867  35.5223966 112.1389961  71.6636562  36.3520002
 100.4091644  73.9170694   2.1418838 100.9554768  73.4592342   2.7807558
  99.5368862  73.5407877   2.2592781  95.8265959  18.1133266  91.4220339
  95.0141989  17.9384418  91.8970769  96.4112459  18.4918876  92.0786220
 106.0067749  52.5371647  26.9073343 105.7954311  52.9206705  26.0561681
 106.9582462  52.4334431  26.8936968  32.5831757  90.0497818  45.4083633
  32.5133763  89.5541286  46.2242603  33.5235558  90.1818275  45.2880430
 115.7075274 103.6299080  85.5271953 115.4535639 104.5517535  85.4831677
 116.2973034 103.5081572  84.7831720  86.4160442  69.7074509  26.7098665
  87.2346401  69.2857027  26.4485836  85.7577610  69.3379641  26.1213326
 101.7033768 104.4692421  74.6442652 101.1984634 105.0851631  74.1132975
 102.0956421 103.8706303  74.0086365  83.3035660  47.1581554  54.0318537
  83.3402920  46.2680340  53.6817598  83.5079861  47.0584536  54.9616432
 107.4604702  70.0289774  52.1824408 107.1296406  70.9271812  52.1863079
 107.3812771  69.7406530  53.0917454  29.9809132  26.0905361  30.1914811
  30.7201920  26.0565066  29.5844054  29.6744976  26.9961858  30.1452184
  37.4676488  81.7766947  94.6412314  37.0047066  82.5599665  94.3438998
  38.3935425  82.0162815  94.6018479  25.5088768  40.9887743  13.0627501
  25.9522782  40.1766920  12.8174925  24.7879467  40.7073450  13.6260223
  91.0236454 101.3874245  34.1795349  90.7208252 101.1610508  35.0589013
  90.5989647 102.2235584  33.9878273 115.0212288  48.5336590  31.9271946
 114.5085239  47.7441835  31.7537260 114.6577549  49.1905689  31.3334012
  55.6034254  11.5871669  24.5707297  55.6064390  12.5442744  24.5579052
  55.0075697  11.3590670  25.2842808 114.8076344  75.4158640  66.1305189
 115.0057316  76.2209034  65.6520796 114.3685818  74.8576927  65.4887247
   4.5575486 102.9733181  42.6401806   4.0769349 103.4948063  43.2830524
   4.4864807 103.4717655  41.8260956  10.8669529  49.0252876  40.1188946
  11.7838726  49.2841721  40.0268269  10.5601464  49.5008898  40.8908415
  72.3935890  66.9577456  36.6876268  72.9783297  66.3049126  37.0724893
  72.2914600  67.6202631  37.3709059  10.0034104  59.7970343  31.3223720
  10.5932961  59.0736198  31.5343571  10.5796490  60.4882383  30.9961605
  95.0005341  50.1363087  28.1269431  94.5455265  50.3063440  27.3021460
  95.8301163  49.7370863  27.8649521 104.9288940  65.3764153  13.6308932
 104.8137856  64.6023512  13.0797005 104.1847706  65.9379387  13.4136605
  97.1534824  78.7154865   8.0627292  97.3855686  77.9248333   8.5498011
  97.8282833  78.7876987   7.3877096 110.6814194  96.2759686  33.9719105
 111.6280174  96.2415218  33.8340259 110.5754852  96.2192249  34.9215364
  92.3249626  57.5789165   6.5934622  92.2863674  56.6648006   6.8747741
  93.1965256  57.8740501   6.8571186  90.9895706  18.0184805  39.6391606
  90.2229691  17.5793016  39.2708135  91.5120792  17.3112452  40.0173616
  12.0090460   2.7322055  60.0667858  11.4487146   3.1089736  60.7452488
  11.5445971   2.9069472  59.2482567   5.8432541  71.4018774   7.6351148
   5.1341305  71.0413790   7.1027476   5.4610119  71.5022898   8.5069185
 100.6286526  65.2146387   4.0220022 101.1057663  65.0378990   4.8327726
 100.0923347  64.4337893   3.8846260  88.3793831  65.6851482  46.1938238
  88.0231667  64.8081398  46.0517120  89.0303898  65.7944584  45.5006504
 111.8232155  65.3008699  41.7284298 111.4204693  65.0124741  40.9093714
 111.0836601  65.5293369  42.2915411  99.2186642  35.5951095  35.6439710
  98.7158585  35.9836340  36.3598418  99.6674538  36.3360715  35.2367902
  10.4258595  32.2045207  46.9048691   9.6374283  32.2448063  47.4461460
  10.4504643  31.3029504  46.5842438  96.6219521  74.3277884  33.8094854
  96.5463543  74.3195581  32.8553104  97.1304226  75.1154184  34.0026760
  16.4624462  53.9813566  20.3871298  15.7564888  53.9503145  19.7414649
  17.0590649  54.6534204  20.0575614  75.5447960  16.7743099   7.8753555
  74.9488211  17.3037612   8.4051913  75.5799532  17.2251344   7.0317000
   4.1582642  37.1886563  17.6225090   3.3296452  36.7114401  17.6660478
   4.6520291  36.8810749  18.3826566  85.1079369  82.2074699  35.5764246
  84.3151379  82.7267551  35.4420853  84.8592186  81.3196945  35.3190970
  95.4884720  99.9911785  26.5128064  95.0447655 100.6411171  25.9678912
  95.0436497  99.1674423  26.3132381  80.6404305  56.7104864  44.7356701
  81.2877655  56.3744688  44.1157675  80.8563423  57.6384354  44.8279810
   9.3013726  41.1603832  64.8728991   8.9912567  40.5140114  65.5071402
   9.0024433  40.8279800  64.0265036   2.5567971  41.5835381  25.1097369
   3.0976544  41.0285425  24.5478868   1.6577874  41.3219118  24.9107957
  85.9529591  61.9052982  52.0000172  86.4902020  62.0481157  52.7792549
  86.5524292  62.0447969  51.2669373  85.6375313  42.6046705   0.8969557
  86.1283684  43.3233738   1.2954192  84.8848629  42.4793005   1.4748843
   0.0995312  59.6100378  45.8687019   0.9498082  59.1862106  45.9854507
  -0.4642048  59.2008257  46.5251875  79.4749641  44.0558624  49.6241188
  79.8226976  43.4665203  50.2934361  78.8923311  44.6451664  50.1031733
  80.6682301  39.2988110  36.0119653  81.1240101  38.9488769  36.7775011
  79.7968006  39.5270205  36.3356304 113.5681248  74.1607332  58.8472986
 114.3129635  73.6095285  59.0873528 113.5372734  74.1187191  57.8915215
 105.6429482  44.5779896  55.2143478 104.9275684  43.9434910  55.2577019
 105.7762051  44.8510933  56.1220312  93.9402103  60.6994295  62.1200085
  94.7165203  60.5452013  61.5816784  94.2745590  60.7416868  63.0159187
  92.8240776  82.1809769  22.3134232  92.4681282  83.0160809  22.6169419
  93.7717724  82.3149586  22.3008442  18.0271016  76.9811201  41.3107443
  17.1752510  77.4158478  41.2707281  18.3815632  77.2269821  42.1652222
  60.2700710  75.2649975  28.2737780  61.2083197  75.3695154  28.4318709
  60.1843166  75.2830553  27.3205972  91.6057860   1.2671037  85.7731175
  92.1076666   2.0203729  85.4617625  90.7937132   1.6438670  86.1119693
  13.4982167  46.7311144  56.5568161  13.2463704  46.2243462  55.7848120
  13.4121571  47.6441288  56.2825298  37.0971273   7.2959662  26.7941141
  37.1878885   7.7809096  27.6143742  37.5783991   7.8183985  26.1524987
   3.9758072  70.7703209  17.4587631   4.7961293  70.9241009  16.9900942
   4.0298233  71.3368845  18.2283854   9.5631085  55.4567194  49.9075508
  10.0605355  55.7967234  50.6513214   9.3533001  56.2311745  49.3855953
   7.0761452  60.0995302  24.4592619   6.7743073  60.5163002  23.6521506
   6.9127140  60.7512856  25.1409793 100.4503632  44.5817995  42.7933073
 101.1010361  45.0735426  43.2943439  99.6285725  44.7245121  43.2629061
   7.4919854  57.2877502  27.8881693   6.9175682  56.5222883  27.9065824
   8.3728943  56.9240570  27.7989054   4.5846901  72.7359962  36.2529397
   3.7763939  73.1910038  36.4892626   4.8207436  73.0955982  35.3978395
 100.2855492  73.3630466  62.1232176 100.0303173  74.1527224  62.6001883
  99.4880009  72.8347683  62.0903969 112.7991962  75.4891777  43.0332947
 111.9887352  75.5618334  43.5373831 113.3681393  76.1685038  43.3953047
 110.9753799  87.1925831  20.6483626 111.5930271  86.8360710  21.2868237
 110.2428150  87.5110340  21.1757851  91.6681385  57.0502853   3.6154830
  91.0671616  57.7628231   3.3979011  92.2486210  57.4210882   4.2801470
 113.9679050  32.8817105  35.9670830 114.7716999  33.3009458  35.6598663
 114.1059399  32.7583981  36.9062185  99.7122192  57.0814228  40.4561806
 100.3281116  57.2134781  39.7354341 100.0594997  57.6173544  41.1692095
  14.6149788  85.3550053  39.3882561  15.2353154  85.9979534  39.0446949
  13.9443550  85.8793449  39.8259449  14.3867646  80.0302792  22.0504403
  14.0516625  80.4701614  21.2691355  15.0860463  79.4635010  21.7248464
  68.0642783  28.6704679  87.1840089  68.8870608  29.0196462  86.8414777
  67.7258860  29.3652673  87.7487862 112.8806877  46.3392401  43.6953735
 112.0088005  46.5620184  43.3691597 112.8669643  45.3862572  43.7840366
 101.4316654  83.9829445  67.8482246 101.7862415  84.0114784  68.7368679
 100.5384636  84.3156910  67.9359388  82.6809978  79.2317963  60.7452583
  83.3088207  78.8336611  60.1422930  82.5588703  78.5757494  61.4314938
   7.8475056  55.5263042  40.5241251   7.6019822  56.3602114  40.1234484
   7.5983200  55.6197929  41.4435816   3.1900368  34.6384740   2.2939923
   2.2395573  34.6463180   2.1810503   3.3512364  35.2529621   3.0099887
  91.7477703  43.3427143  25.2198815  90.9850597  42.8433514  24.9280739
  91.4830494  44.2582512  25.1306987  16.5667305  66.2819290  18.4846449
  16.1875973  65.9337425  19.2916489  16.8274365  65.5061054  17.9883003
   1.4083634  84.1524506  35.7632971   2.2666321  83.7808990  35.9671426
   0.8190022  83.7622070  36.4087439 111.6438675  62.9775715  27.3664045
 111.6182899  62.0215511  27.4065208 112.5620270  63.1855488  27.1932817
 101.2534428  61.5873146  48.7164974 100.4269600  61.6492081  49.1953802
 100.9927654  61.4784861  47.8019285 108.5991383  71.6676283  49.8324394
 107.6788807  71.8549347  49.6473169 108.7304974  70.7744837  49.5142078
 111.3295364  59.7772217  29.9553919 110.7446289  60.3008986  30.5029988
 111.0446167  59.9579000  29.0596199  10.8865033  53.0699682  60.8028269
  10.1070080  52.7665186  61.2681627  10.6405506  53.0395079  59.8782682
  88.1249033  10.4112477  86.2898379  88.4743773  10.6314273  87.1533310
  87.5511633   9.6614976  86.4477157 108.9951134  20.5488038  55.3622293
 108.5191059  19.8221600  55.7642746 108.6926365  21.3241100  55.8351421
  10.6387101  37.8090239  40.1333857  10.3962384  37.1264124  39.5077038
  11.2895928  38.3372641  39.6712637  85.2529049  17.1850586  51.5873051
  84.5403385  17.3243511  52.2110701  85.9676838  17.7312982  51.9143152
   0.2468930  54.5247316  56.8946218  -0.1851787  54.1451740  57.6597881
   1.0693417  54.8774052  57.2343636  19.1691933  83.1236362   8.2475358
  20.1034603  82.9247665   8.1856304  18.9495526  82.9591656   9.1645640
  79.7725773  33.3461952  32.9992056  79.4778967  33.9659762  32.3319221
  79.7805214  33.8537669  33.8107085  78.2961655  44.7574139  56.2656593
  78.7665510  45.2540016  56.9352627  78.6463070  45.0824881  55.4362297
  83.1569182   0.7400031  88.5627740  82.8390871   0.7723041  87.6604599
  84.1067683   0.6560464  88.4792721 111.6189957  45.5590677  31.8777180
 110.9806442  46.1734867  31.5154815 111.3522911  44.7063446  31.5342569
  87.7804470  53.7773228  27.8925967  88.5278702  53.5146141  27.3554087
  88.1572056  54.3420362  28.5674167  13.6643849  49.3871832  44.6188211
  14.2636452  48.8894510  45.1750326  12.8099118  49.2882824  45.0387383
  24.9529610  41.9523525  15.6973553  24.1765080  41.4870644  16.0085666
  25.6887684  41.4653254  16.0683322  84.5604992  63.0866861  23.4066176
  84.8420238  62.1998787  23.1817794  84.7204494  63.1573868  24.3477082
 112.7147865  38.3662009   2.4619743 113.6572647  38.2041001   2.4209712
 112.4889755  38.2347012   3.3828169  72.7441359  65.8440542  68.5005617
  72.9816580  64.9472761  68.2647610  71.8990421  65.9878492  68.0746889
  75.3032637  48.1805754  24.8475671  75.4842854  49.0096617  24.4047642
  76.1490822  47.7331829  24.8734117  81.5942287  76.7773294  56.6525555
  81.9694805  76.8017340  55.7723188  80.9235382  76.0958338  56.6081905
 108.1515980  13.1796455  13.1892550 108.6742592  13.9815462  13.1913912
 107.4080276  13.3768785  13.7588513  94.7392082  61.9793701  24.0258384
  95.2866650  61.2606287  23.7097144  95.2611732  62.7658272  23.8668990
  17.5614033  82.2877216  23.4539485  17.8955517  83.0825043  23.0381274
  16.7388306  82.5584602  23.8617563  79.6521425  39.8212814  42.2075176
  79.5600939  40.7134104  42.5419807  80.3019619  39.4160581  42.7817726
  88.5849380  34.5408440  36.7314863  89.3425655  34.7551084  36.1871195
  88.9371490  34.4817734  37.6195717 109.2393875  70.7150459  64.2844772
 109.2188835  70.2947426  65.1442194 108.5821342  70.2442932  63.7719965
  73.4144115  42.7967691  48.9179373  73.1137514  43.2538605  48.1325054
  73.8411140  43.4751797  49.4413042  15.7645199  98.7058110  74.8231846
  16.2268326  98.9065642  74.0094262  15.9728882  99.4376892  75.4038471
  10.0721894 100.0150585  23.9263201  10.2577076 100.0942326  24.8620272
  10.2043114  99.0867996  23.7336612  72.2416353  55.0499916  28.6850524
  72.7122545  55.8312988  28.9754272  72.7673197  54.3191004  29.0101385
  95.3577709  57.4104071  38.2780099  96.2634182  57.6879120  38.4159565
  95.3569794  56.4784002  38.4961700 103.3122063  54.4410467  35.0376844
 104.1965294  54.2039776  35.3169584 103.2093048  54.0193129  34.1845846
 108.8187218  51.9373512  26.2936139 108.8512230  51.2377262  25.6411576
 109.4070435  52.6107931  25.9521770 114.7837830  43.3071232  46.7591906
 114.8133087  43.9429426  47.4740982 113.9570713  42.8417540  46.8865347
   9.8484002  69.5352602  43.4993839   9.3948803  69.9770880  42.7815056
  10.5922852  70.1037264  43.6986637  14.3792019  54.2948866   0.9691235
  14.2379628  54.8606443   0.2100434  14.5001946  53.4211445   0.5974179
 112.6301956  18.7078035  52.2812176 112.8801155  18.1407118  51.5517092
 111.6763496  18.7644029  52.2247124 105.4361629  66.5195608  68.6151981
 105.9847641  65.7689047  68.3876514 105.0112343  66.7636728  67.7929592
 107.5234127  54.9982786  45.9781122 108.2910442  55.5690622  45.9437656
 107.1670437  55.1287603  46.8568659 103.6398888  80.3544331  43.3419657
 104.0696812  80.8324242  42.6327133 104.2052364  80.4937840  44.1017008
  70.2493906  83.7050056  18.0774021  70.8814955  84.3928337  18.2861161
  69.9132586  83.4224987  18.9279556  85.3691483  70.6157827  45.7704306
  86.1881542  71.1107683  45.7490778  84.6845531  71.2837505  45.7333660
  70.7875252  59.8663330  37.3098826  70.5284119  60.7737541  37.4701357
  69.9876165  59.4394636  37.0030260  72.5175463   6.3053889  94.2287136
  72.8544890   7.1332879  94.5711835  71.8296706   6.0535569  94.8448553
  30.7792435  45.8844757  14.6744692  31.3814984  46.3989067  14.1369951
  30.9201870  46.2046814  15.5654407 103.8708305  71.1470509  11.0512888
 103.4428501  70.8350277  10.2539778 104.8002052  71.1846495  10.8252513
  95.2488232  65.5866528  10.2066994  95.3785133  65.1899815  11.0681307
  94.4300652  65.2062321   9.8886520  98.2044792  56.6117096  35.3047323
  97.9891109  56.6611576  36.2360764  97.8332615  57.4106073  34.9303126
   3.5144196  77.1503735  32.3431897   3.0295811  77.7170658  31.7431688
   3.5639058  77.6506329  33.1577611 103.1310463  55.0426340  19.6437693
 103.4330177  55.6801987  18.9968109 102.6374340  54.3999243  19.1343582
  14.6037922  72.7691603  20.8445334  15.4821453  72.6623392  21.2096381
  14.1043816  72.0356846  21.2034726 112.8351593  69.9068356  53.3052301
 113.4602642  69.5425367  52.6785183 111.9797897  69.6225834  52.9831028
   9.6356545 102.1901798  49.1930246   9.5401345 101.8673801  48.2969713
   8.7533913 102.1402550  49.5609140 108.9351368  57.5823927  38.7492681
 109.8913574  57.5902319  38.7067628 108.6594963  58.1771517  38.0517578
  21.4460335  43.8869286   6.0255104  20.7570229  44.2923927   5.4991198
  21.2013970  44.0805864   6.9304305 114.7093391  66.5183592  31.0016823
 115.2842999  66.6804647  30.2537751 114.1607666  67.3008823  31.0561037
  30.5159722  52.3682499   2.7018178  30.7937584  52.4885798   1.7937502
  31.2948189  52.0365620   3.1485945  96.7087746  79.8838282  44.9723768
  96.0696507  79.7156715  44.2799377  97.5531101  79.8943710  44.5215797
  88.0529881  85.7732677  40.2337313  88.3399296  86.3839722  40.9126568
  87.0988083  85.8491993  40.2310276 114.6798611  97.7158070  52.4320555
 115.1418209  97.1531296  53.0535269 114.4512653  98.4951115  52.9386616
  33.3746218   1.8330241  35.0499368  32.6338266   2.3765994  34.7816324
  33.2870649   1.0347987  34.5289850   2.1917782  58.8782072  49.3398094
   2.0851193  57.9558086  49.5722580   1.4068089  59.3042850  49.6840668
  18.1465016  71.2044621  64.5261908  18.1013642  71.1948586  63.5701036
  18.3444558  72.1144438  64.7474957   1.0945759  54.7841311  39.8974323
   1.1996613  53.8456774  39.7409368   1.1702404  54.8785591  40.8469534
 106.4852333  52.5490236  41.5260792 105.6246853  52.6373386  41.1163425
 106.3818550  52.9499006  42.3891211 113.1674480  60.9598255  41.0842752
 113.9132500  60.5927849  41.5589285 113.5292721  61.7103958  40.6131458
 104.8931980  49.1788626  50.3100014 105.1268482  49.3400478  51.2241411
 104.9634743  48.2296467  50.2086115 107.3564720  68.7075901  49.7546482
 107.2299099  69.1762543  50.5796099 106.6459274  68.0666256  49.7318649
  14.1615353 105.7794476  29.6715450  15.0578175 105.4843330  29.5108438
  13.9225254 105.3760052  30.5060148   2.5021801  22.9585195  46.7222834
   3.3095608  22.9710150  46.2082720   1.8503819  22.5754929  46.1351824
   7.9512272  51.8511677  38.5125494   8.7569962  52.1533966  38.9316225
   7.7413521  51.0315037  38.9601398  96.0150051  70.7677650  50.9378338
  95.7985306  69.8361397  50.9757566  96.9589043  70.8008528  51.0933590
 115.3145695  49.2737341  70.1227760 115.8713722  48.5359716  70.3715849
 115.8207798  49.7428560  69.4595242  91.6630459  99.7025585  46.5279865
  91.4329338  99.7671127  45.6011057  92.4865723 100.1844311  46.6044426
  19.4283638  76.7021656  35.5503654  19.8664151  77.3065424  36.1495900
  20.0446377  75.9768248  35.4488325  15.3742466  87.5994110  60.8652973
  15.0043450  88.4423065  60.6027317  16.0572014  87.8239822  61.4972496
  42.9461550   6.7729331  40.1265049  42.6525187   7.5122786  39.5941710
  42.1553110   6.2537528  40.2723265  28.0665837  70.2198172  13.8102329
  28.2523785  71.1401463  13.9965308  28.9138565  69.7825432  13.8948023
 112.4926376  27.8240085  86.9510460 113.3924770  27.5179505  86.8376827
 112.5584602  28.5273576  87.5969601 100.4765511  63.7549782  10.1226294
 101.1876488  63.1149006  10.0930810 100.4616928  64.0546799  11.0315800
  91.6920948  68.7758780  34.3948507  92.3914146  68.4437943  33.8319111
  90.9129429  68.7679291  33.8388872  15.7365952 106.0694885  48.8080502
  15.5932198 106.9949055  49.0062094  16.2878666 105.7538319  49.5240736
   0.2748928  67.3487520  29.3180394   0.7562790  68.1748819  29.3627906
   0.7633648  66.8208170  28.6864471  12.6673565  72.7928877   6.5948981
  12.1708832  73.6068106   6.5096098  12.7171479  72.6404715   7.5385725
  94.8473644  70.6615639  16.1698997  94.9995232  70.1520729  16.9658267
  95.3695774  70.2206039  15.4997611  95.4347324  53.4316826  46.9821739
  94.7496128  52.7686453  46.8971920  96.2240410  53.0045080  46.6493893
  15.8781968  71.5081072  48.1223249  15.1250134  71.7529154  47.5847292
  16.2449704  72.3424482  48.4148645   7.3196087  77.1962976  26.6893196
   7.8064976  77.4165726  25.8951807   7.2829876  78.0156517  27.1828270
  10.9354077  66.2022734  15.3385806  11.2933884  65.4155684  15.7498872
   9.9934254  66.0394812  15.2896583   2.4151192  63.8207245  40.2818251
   2.8932534  63.4624672  39.5339823   1.8831597  63.0905008  40.5980921
  15.7840786  66.5159178  56.5799665  15.0397072  65.9163618  56.5282726
  16.2175904  66.2891483  57.4026871   5.4174195  86.0465717  60.5334139
   5.7793484  86.9038296  60.3090429   6.0158978  85.4199982  60.1266432
   9.1865788  84.1620159  53.9677811   8.8088284  84.3078613  53.1004477
   8.6511479  83.4657288  54.3482161   6.0078787   1.4747000  31.0841346
   6.9387697   1.6495658  30.9459186   5.8888125   1.5460444  32.0312166
  32.5354538  51.8866301  22.1578598  31.6055737  51.9830132  22.3634648
  32.9673634  52.5635862  22.6788306  76.4003134  89.7931480  50.2575922
  76.1887932  89.0569973  49.6835184  76.7748165  90.4525089  49.6734428
  90.4952621  75.6469059  35.9363842  91.2627506  76.0824251  36.3072062
  89.8491955  76.3457918  35.8344841 104.4392109  70.7267857  60.3002596
 104.3835163  71.3025045  61.0629368 103.5669899  70.7641983  59.9077320
 101.3941574  52.7158070  54.7556353 101.8530083  51.9944620  54.3251181
 100.8315659  53.0827713  54.0736771  99.8665619  71.3726807  26.1108708
 100.0051498  70.5859613  25.5835247  99.2335033  71.1057997  26.7773890
  53.2350802   9.7711707  50.6233358  52.4611925  10.0269557  51.1252213
  53.6292242   9.0643645  51.1345148  92.4481487  59.9279118  25.3459525
  92.8753090  59.9398184  24.4894385  92.8413296  60.6607294  25.8198977
  70.1719259   6.3771868  19.1582739  70.8788942   6.1810351  19.7730410
  69.7272085   7.1347571  19.5384860  98.2069874  90.8397484  41.4144802
  98.0089188  91.7601967  41.5870619  97.7425385  90.3619003  42.1016359
  85.8155632  73.5357571  23.5652184  85.7841492  72.6485825  23.2072139
  85.9485626  73.4103155  24.5047975   5.7745419  57.1315908  10.7096589
   5.0234757  57.2048950  11.2985158   5.3879795  57.0139837   9.8419195
   7.6953087  86.6536427  41.7368984   7.8716240  85.7197571  41.8509722
   6.9713173  86.8356228  42.3360205 115.7330132  76.4798737  45.5075598
 115.5714226  75.5364180  45.5055857 116.5132999  76.5880966  46.0513210
 116.5418148  75.5939102  49.5939922 116.1345673  76.4590502  49.6376610
 115.8417702  74.9872112  49.8350000  28.5890255  49.3343115  15.3004944
  28.9557419  50.2184725  15.3041577  28.4779892  49.1249084  14.3731046
  18.4084378  74.3476534  47.0105171  18.1780491  74.6411371  47.8920078
  18.3813057  75.1429605  46.4785528 104.3497086  68.3705378  45.4765224
 103.5998058  67.9878998  45.9320021 105.1126671  68.0331659  45.9458923
   4.4778405  88.3453274  11.1191833   3.9200745  87.9352760  10.4581332
   5.3704033  88.1792355  10.8159232 110.4063225  56.8023634   4.5641544
 111.1124134  56.4780855   4.0051243 110.1476669  57.6332998   4.1655654
  17.1980725  82.1892262  42.7715111  16.4488945  81.6097641  42.9100275
  16.8506871  82.9076576  42.2429323  12.5625477  83.8434982  67.6055574
  12.2123204  83.1450844  68.1585360  13.4732304  83.5926056  67.4508524
  18.0530415 109.3223286  50.3968811  18.2027874 108.9852524  49.5136023
  18.5508213 108.7345219  50.9651470 110.1420021  58.2074404  32.9689622
 110.3552914  57.5909805  32.2684503 110.0568104  59.0521765  32.5269270
 111.3477039  51.1618185  42.9716253 110.6412506  50.5541563  43.1904602
 111.8016624  50.7471466  42.2379971  52.1916554 105.9567589  82.5978058
  52.1705315 105.3607554  83.3465141  52.5347684 106.7764038  82.9537529
  99.9105167  60.5762577  42.3787785  99.4377041  60.8381367  41.5887785
  99.3856907  60.9257555  43.0989456  99.2045307  74.1033173  24.8729086
  99.6753597  73.3937693  25.3100491  99.4808960  74.8946142  25.3351879
  11.0686360  70.2815485  54.5305204  10.2843342  69.8097420  54.2503452
  11.3212548  69.8598099  55.3518343  28.8196074  11.8090577  86.6199326
  29.1626822  10.9378428  86.4211440  27.9454886  11.8169732  86.2299615
 106.5354252  86.0280418  23.9348459 106.5212536  85.5997372  24.7907639
 106.2738323  85.3428364  23.3197880 105.0436878  92.8045368  32.9421115
 104.6339703  92.5588512  33.7715697 104.4793510  93.4933472  32.5909781
  75.9107256  96.0729027  38.0864906  76.3338661  95.4562950  38.6839604
  75.0633144  95.6732750  37.8904915  11.9909249  83.8965702  58.6489248
  11.8693886  84.7511578  59.0626240  12.5389061  83.4086514  59.2636490
  95.3647232  72.2625732  59.9499798  95.5361843  72.4340153  59.0240002
  94.6533680  72.8615618  60.1767445  84.9575329  60.9089708  22.0503306
  84.5170975  61.1321163  21.2303019  85.8842659  60.8538532  21.8171573
 109.1823006  84.2677975  14.1332650 109.9585533  84.6594143  13.7328744
 108.7701416  83.7743282  13.4241486  95.7626247  63.3508921  16.2316656
  95.7200432  63.4950161  17.1769953  94.8488617  63.3591795  15.9467244
  73.4814835  44.2429161  30.1174951  72.7321672  44.0678501  29.5481896
  74.1887474  43.7108564  29.7529149   6.1490689  54.8283720  28.1283665
   6.4439354  54.1804600  27.4884486   6.4897309  54.5111799  28.9647675
 104.5226669  57.7611160  13.2024634 103.9252567  58.4955168  13.0610633
 105.2409267  57.9150581  12.5887609  17.7125607  68.0103254  50.7320261
  17.4647103  68.5595751  49.9883032  17.6641426  68.5950994  51.4882851
 111.5275574  66.1281729  34.5121431 110.6081676  66.3321590  34.3408537
 111.5238476  65.7109308  35.3736138  21.6742573  47.9918051  46.2201071
  22.0767651  48.5152960  46.9130564  21.9569931  48.4117842  45.4077578
   1.0157833  76.4107084  41.5637636   0.6230984  77.0498085  40.9691381
   0.4210053  75.6612206  41.5365553 109.8218632  84.4241524   9.0925509
 110.3820419  84.0853977   9.7908866 109.7121811  85.3516579   9.3021673
   7.8730736  84.4987011  36.9919467   7.9002724  85.3786945  36.6163230
   8.4374581  83.9771366  36.4212680  25.3447113  79.8640251  25.8889341
  25.6018887  79.2036343  25.2455235  24.4408951  79.6415949  26.1122823
  77.7585779  24.1147466  85.9591180  78.6952578  24.0462871  85.7742399
  77.3741041  23.3473678  85.5353951 113.7190628  36.8724871  51.8244839
 112.9655933  37.3229551  51.4429140 114.3822289  37.5557494  51.9224167
  24.7930203  71.8573666   3.1390342  24.1410408  72.5108051   3.3923584
  24.9126873  71.3218546   3.9233416  11.6242085  91.3258934  25.4702926
  10.9559498  90.6442928  25.3989196  11.3168202  92.0241451  24.8922038
   4.2056046  98.2929516  39.0140581   4.4319401  98.0997562  39.9238276
   3.2563267  98.1769371  38.9735937  91.7155838  85.0262451  35.2544045
  91.2441826  85.0285053  34.4213319  92.3505783  84.3151855  35.1683569
  18.5895977  91.1421680  16.4792085  19.2275868  90.4360390  16.5820646
  18.0129490  91.0564232  17.2383904  40.2503847  34.3852854  36.2725568
  39.4897245  34.6035910  36.8110538  41.0019278  34.5468188  36.8429232
  37.0157766  24.9638414  28.2593966  37.2494316  25.5396056  27.5312948
  37.3928499  24.1159081  28.0247521  50.5571795  32.9514289  15.5111563
  50.7922840  32.7565360  16.4183354  50.7333469  33.8872290  15.4138243
  31.2730585  79.0589761  15.7828343  30.6858383  79.0235137  15.0277531
  32.1022688  79.3779516  15.4266083  16.3488613  95.2672672  54.9416018
  16.8968664  96.0506915  54.8950148  16.5323197  94.7979080  54.1277981
  94.6119308   3.5685369  31.2482500  94.9226952   3.8532037  32.1076822
  94.1784477   2.7316505  31.4154363  96.9889641  22.9238176   3.6614847
  96.3829041  22.2955084   3.2688627  97.2058296  22.5467157   4.5141250
  90.9432602   4.8844454  46.2478113  90.7065773   5.8046269  46.1317110
  90.1095581   4.4404021  46.4027119  77.3667669   4.6232042  25.6676364
  77.8743935   4.6909857  26.4763117  77.6741552   3.8140297  25.2590036
  77.2931767  16.1119092  10.9550893  76.8302441  15.5598998  11.5853357
  77.2256565  15.6376791  10.1263690  94.6666718  16.1308360  10.0583136
  93.9442825  15.7943738  10.5885816  94.2399693  16.6231787   9.3570626
 109.1229057  18.5202122  33.4983206 109.5786285  19.2895985  33.1568527
 109.7243118  18.1537235  34.1465735  47.9523706  19.9739695  14.9173856
  47.3676395  20.7113481  14.7424757  48.5308838  19.9410856  14.1554964
  85.5059814   8.4371024  39.1054273  86.3580513   8.3411157  39.5308590
  85.6540966   9.0843064  38.4159184  80.5032622 104.6016758  19.1684270
  79.7871672 104.4308495  19.7801936  81.2081705 104.9481093  19.7155285
  66.4734064  87.4116945   9.4433892  65.6906878  87.4786019   9.9902964
  67.0951830  86.9145607   9.9748814  41.8080221 104.2758005   3.0884573
  42.3153197 103.7046253   3.6652026  42.2712885 105.1130741   3.1126466
   3.3916447  46.6156793  92.6093535   4.2506573  46.2633890  92.8422123
   3.5278294  47.0378692  91.7611545  63.1139851  27.3738623   8.0715948
  62.7220821  27.3800278   7.1983206  63.8841057  26.8121076   7.9845506
 101.4951801   5.8185935   1.4043760 101.5213203   6.7611068   1.5693544
 101.2884045   5.4321325   2.2553304  10.9718787 105.2900674  40.6303024
  11.6481959 105.3496855  39.9555612  10.1875864 105.0088414  40.1591110
  87.5225639   4.4380748  20.7027268  87.3499107   5.3552741  20.4902005
  87.3719215   3.9695305  19.8817480  65.6420946   2.0961682  14.8493159
  65.1747561   2.2777295  14.0339279  66.3437843   2.7467787  14.8731792
  52.3808466  94.6691489   0.2200872  52.8173624  94.3376099   1.0047977
  51.4935385  94.8800933   0.5106359  45.0779139 108.1037050  29.1609335
  45.7767950 108.7543321  29.0939689  44.6506964 108.2961503  29.9956036
  89.7383499  16.1817431  28.6420751  88.8516617  15.8221042  28.6680245
  90.1517105  15.8578002  29.4423389  47.4310480  98.3576822  42.6338196
  47.3109614  98.1391489  41.7096663  47.7868830  99.2462456  42.6255417
  92.7149677  15.5963016  47.9790401  92.0221424  15.8787322  48.5760880
  93.4894657  16.0809577  48.2645226  61.2222624  19.6997428   1.1698044
  61.9132185  19.1279089   1.5041950  60.4330015  19.4171429   1.6317946
   1.9576190  55.6062718  80.6090408   2.8543255  55.6016335  80.2741831
   1.5335534  56.3300828  80.1480680  36.1961018  99.2154681  22.1908641
  36.0991131  99.6712243  23.0269933  37.1400009  99.2043304  22.0322347
  71.4722430 106.6557648  25.1248264  71.8203818 107.1035054  25.8959055
  70.5525004 106.4953225  25.3359222  52.7160822 107.5003936  15.3821790
  53.6363493 107.7572613  15.3241706  52.4960219 107.6053009  16.3078141
  79.6033096   3.3779418   9.6400595  79.7981453   4.2941910   9.8369312
  78.8546705   3.4148350   9.0447325  72.6893091   8.6531132  46.0281181
  72.8960800   9.4539809  46.5098763  73.0203915   8.8129926  45.1443481
  78.2533789   5.3373206   1.7575404  77.7390575   4.9602270   1.0437436
  78.0634928   4.7782147   2.5109169  74.4862556  16.0655367  25.1505375
  75.2236128  16.3847947  25.6707406  74.0711069  16.8586123  24.8115516
  44.4335543 107.0155098  12.6962471  44.5818125 106.9976693  11.7507672
  43.4820544 106.9704243  12.7903748  53.5648524  88.0533814  22.5786972
  52.7445780  87.5606083  22.5549173  53.9328181  87.9484462  21.7013049
  12.8282426  62.6358575  92.4049738  13.6783955  63.0717719  92.3462540
  12.9748223  61.7721189  92.0193523 103.5404455  73.1825144  91.7148495
 104.1496765  73.7642783  91.2602937 103.3748877  72.4749798  91.0917786
  85.8002472  18.0499399   0.9382105  85.5169201  17.2846341   1.4384760
  85.1039124  18.6933768   1.0698943  86.5219784  10.4914641  24.6369839
  86.3580513   9.6269131  24.2602730  85.6500626  10.8594227  24.7805238
 104.8888218  49.1656095  84.9146110 104.2549669  49.2386425  85.6281423
 104.3616259  49.2306257  84.1183263  44.1033255  97.0891284  33.0211353
  43.5278307  96.9762885  33.7776399  44.9690520  96.8319129  33.3383012
  58.1583773  93.4744512  33.5577106  57.2572027  93.6552822  33.8249516
  58.6781107  94.1476619  33.9969110   2.2058938  61.5641034  93.9019676
   2.2946236  61.6294545  94.8528031   1.4076779  61.0524369  93.7705068
  10.9425030  46.3853359  22.6651692  11.4463864  47.1705294  22.8791904
  10.5798016  46.0977411  23.5030031 103.3372879  39.3285942  19.3513107
 103.7765598  38.9638901  20.1195955 102.4240112  39.4254947  19.6210754
 101.4980984  16.9616306  39.6339154 100.6977844  17.4772644  39.5346236
 102.1537685  17.5920737  39.9320197  56.2030602   1.8471597  14.3458521
  56.5486860   2.7094898  14.5764160  56.8924952   1.2357275  14.6048164
  87.6789570   6.4606261  25.9035063  87.8277779   6.8230915  26.7768335
  88.5314941   6.1148435  25.6392217  67.3279463  86.5132331  18.0258322
  67.4512945  86.0517716  18.8553333  66.8567931  87.3117613  18.2637370
  71.5388680  42.5936937  37.0488667  71.1305475  42.8528738  36.2228346
  70.8064270  42.3293447  37.6055288 116.6212250  91.2808370  55.7805252
 116.3632680  92.0680391  56.2601137 116.3422514  91.4467847  54.8800421
  15.3661225  89.8569793  92.5182563  15.1817772  90.6770868  92.0603531
  14.5182488  89.4157762  92.5700694  37.4048220 106.5882426  45.1101971
  37.0475851 107.4125283  44.7797966  36.6823851 105.9652995  45.0310802
  52.6195669  23.0479717  45.7948112  53.3540821  22.6527524  45.3252172
  52.2280121  22.3224616  46.2811804 112.4378967  12.6600254  15.2144849
 113.3859539  12.5748646  15.3153658 112.1548176  13.1299186  15.9988940
   2.1906744  81.5995693   0.3993386   2.1642100  82.5312185   0.1812554
   3.0595576  81.4668965   0.7783815  36.7040896  14.7154379   1.5005711
  35.8878946  14.2632067   1.2871552  36.4462280  15.3926420   2.1259785
  68.9229488  29.3872023   8.1745607  68.4331512  30.1947379   8.0189490
  69.8384428  29.6647978   8.2068348  64.9017416  89.1363906  22.2064924
  65.7877718  89.4868874  22.1151853  64.3296896  89.8881792  22.0521927
  75.9258986  16.2263405   2.3032415  75.5109835  15.7758200   3.0388433
  76.8539906  16.2591743   2.5351754  46.2726866  98.3603203  21.6667104
  46.9184386  98.1001126  22.3236132  45.7430826  99.0278732  22.1027470
  35.0831543  91.8479740  19.6671009  34.8854100  91.4064287  20.4930329
  35.9898411  91.6066503  19.4775903  27.1098553  91.2841319  15.7015038
  26.4731442  91.6375589  15.0802827  27.5144850  90.5505621  15.2384877
  25.1301835  78.6840314  90.8275729  24.8134968  77.9936308  90.2450886
  24.7369740  78.4804816  91.6762095 107.5540733   2.8304443  23.5685492
 106.9381618   2.9725045  22.8497267 107.2173119   2.0585220  24.0234780
  29.2434025   3.8567767  30.1636243  29.7520733   3.0522078  30.0628591
  29.8519945   4.5562771  29.9258280  90.9526825  15.0866210  30.7775497
  91.6982746  15.3995407  31.2898040  90.6165886  14.3409026  31.2747192
  80.9018612  13.4344363  27.2755003  81.0800743  14.0455270  26.5606284
  81.6722107  13.4954083  27.8403640 100.9237289  25.5617285   5.0602752
 101.6870213  25.0947547   4.7203401 100.5379391  24.9591923   5.6961614
  64.2005608  67.1590466  92.2650027  64.1649506  68.0308897  91.8714896
  63.2902596  66.9561416  92.4804300  96.7939281  43.6305428  19.2562568
  96.0435963  44.2019320  19.0926850  96.7113495  43.3846378  20.1776385
  29.8907601  97.8098749  28.1723690  29.1621243  98.4110617  28.0177855
  29.8539149  97.1953952  27.4393702  48.2863127 104.4026136   4.9145406
  48.4570299 103.5395741   5.2916998  48.8442694 104.9975544   5.4155004
  37.8728223  56.1089516  70.5083704  38.1551075  56.5116978  71.3295555
  37.9551578  56.8069458  69.8585558  78.6207533  -0.0250841  34.7444057
  77.8087807  -0.0071707  35.2509737  79.2842293   0.3176884  35.3431869
  69.7774506  18.0083513  43.8522291  69.2917871  18.2131147  43.0532122
  69.1982746  17.4240100  44.3414450  51.4252745 100.8493304  35.5986500
  51.3483702 100.5558228  36.5064907  52.0906435 101.5369528  35.6247854
  76.8752384   4.7909915   4.9849129  76.9279814   5.6880707   5.3146076
  75.9398508   4.5879316   4.9916923 111.9673502  90.6464309  89.6932906
 111.4727986  90.2891607  88.9557189 112.8236973  90.2227372  89.6351617
 104.7637177   2.9068065  34.8746324 104.3072128   2.5373369  35.6304955
 105.5555153   3.2999450  35.2416921  88.2764626  10.1605117  28.1908178
  88.9366055   9.4922018  28.0069399  87.8015709   9.8252386  28.9512777
  85.9746456  25.7228827   8.1528252  86.4523125  26.2198234   8.8169885
  86.4783382  25.8515620   7.3491013 107.6414394  39.5360589  38.8422322
 107.3924351  40.4407406  39.0313983 107.8370476  39.1572785  39.6992588
 113.0074120  22.9743195  22.0296550 112.3523331  23.1263447  22.7108264
 113.8398170  23.2049227  22.4421406  89.5195103  17.7860463  25.9499288
  89.9746799  17.0241547  25.5913568  88.6373711  17.4688625  26.1434746
  86.1057854  17.3743463  17.8484750  86.3973236  16.9420695  17.0457458
  86.9081020  17.7210629  18.2387495  62.7522612  34.7556615  28.7556386
  62.9522038  34.0444231  29.3642402  61.9273615  35.1203871  29.0761805
  93.7848091  27.3678112  32.6940513  93.5887241  28.2426214  33.0294490
  93.4486485  26.7732739  33.3646894 107.6220322  17.1799481   8.6949223
 107.5125885  17.5087333   7.8026474 107.0129395  16.4440250   8.7553996
  27.1487008   7.3142540   0.3512551  26.9725571   6.7988491   1.1383798
  26.5271912   8.0408168   0.3966622   1.5152035  18.5360074  23.6703181
   2.3395119  18.7015247  23.2127690   0.9577332  19.2778051  23.4353900
  19.7458706  18.0647385  27.3296142  18.8340245  18.0810487  27.6203156
  19.7207508  18.4224272  26.4421105  75.8132982  18.1118238   5.3516412
  75.4330492  18.9612365   5.1277184  75.2080631  17.4721014   4.9765712
  65.4296576  94.0503442   5.8430082  65.6020533  93.2308828   6.3066864
  65.1101290  93.7764406   4.9832928  67.6724815  33.4012651  28.0561209
  67.3048687  34.1439676  27.5770783  67.1675920  32.6468515  27.7525163
  89.9915682  88.6697864  10.3701568  90.3713404  88.3757686   9.5421696
  89.9757372  89.6243405  10.3008211  94.6691608  44.8372078  14.2622519
  94.1032124  44.1562891  13.8985527  94.4085503  44.8996925  15.1811683
   9.2787907  50.2961690  92.6130326   9.9770615  49.6770597  92.8259687
   9.0977166  50.7460818  93.4382738   3.7769280  22.2589397  28.1257677
   4.1201077  21.4075136  27.8545952   3.5550652  22.1444702  29.0498376
  83.3783913  28.1873345   3.2028875  84.1591740  28.5271144   2.7656770
  83.6738873  27.9717922   4.0874538  68.3660685 105.3211673  13.0300045
  67.8736388 104.8744883  13.7186491  68.5291373 104.6433907  12.3740649
   0.3663788  48.5786915  40.6653881   1.2572918  48.7758446  40.9545898
   0.0926838  47.8450441  41.2159204  32.1408436  67.2719426  93.7211680
  31.8111680  67.6560802  92.9087765  31.5494988  67.6001317  94.3985364
  18.7084935  65.3575236  91.5438041  18.1273816  64.6320570  91.3152569
  18.9031098  65.7810385  90.7077467  63.7745380  41.9936323  48.0112362
  63.9517021  41.1179686  47.6676512  64.5108366  42.1752548  48.5952806
  91.9923878   9.7603190  10.5824637  92.2093868   9.3245208  11.4066124
  91.2065220   9.3098819  10.2730262   3.9158306  17.8447950  46.3628435
   3.9822159  17.4907160  47.2496700   4.0351067  17.0855606  45.7922602
  74.8800373  33.2125878  40.0040627  74.1049099  33.6082315  39.6054697
  75.1234055  33.8166595  40.7055616  84.5072638  94.2198371  14.3331027
  84.3873678  95.1646089  14.2368495  85.0625693  94.1265046  15.1071548
  88.1491661  19.8664796  16.1606431  87.2080803  19.7276914  16.2671149
  88.2384205  20.8099771  16.0261822  44.7251211 108.1087039  20.6029415
  44.9820887 109.0001355  20.3672528  44.3212591 108.1962176  21.4663482
  13.9496586  60.0709159  91.9501453  14.6440480  60.5591333  92.3925271
  14.1451523  59.1529424  92.1381300  68.3632075 102.4416369  34.5025110
  67.7427660 102.4375194  35.2313876  68.8952910 101.6573029  34.6364665
 102.3742008  18.7092495  53.5143232 101.9857597  18.2247543  52.7858925
 101.6316128  18.9364326  54.0739489  54.3945837  28.3942318  30.2861214
  55.1329851  27.8632236  29.9877453  53.8814020  27.8029346  30.8367968
   0.8268569  50.9555796  93.6374144   1.7497990  51.1785415  93.5161909
   0.6749699  50.2280725  93.0341762  28.4100983  48.8979978  87.3239171
  28.8953850  48.3213133  87.9139739  28.5468361  48.5212190  86.4546805
  53.2637583 103.4906208  31.3095999  53.5102927 104.2680960  31.8105841
  52.3353850 103.3639836  31.5053558  93.9817238  49.3691874  12.4499738
  94.6466160  50.0107527  12.7000678  93.6232662  49.0591478  13.2816064
 112.7809715  19.7375751   3.5330305 112.9465961  20.3189492   2.7908677
 113.6383915  19.6216178   3.9424467 109.7403812   6.2152559  36.2010002
 110.3907490   6.6451770  35.6456447 108.8980198   6.4696002  35.8242297
   2.8647385  13.1675935  22.0679474   3.0181942  14.0834653  22.3000336
   1.9461689  13.1390119  21.8002701  61.9775854 103.4204625  32.2468901
  62.7679526 103.4414595  32.7864265  61.5911471 102.5623076  32.4214530
  98.4508133  32.5405264  38.2762909  98.1277275  33.1648374  37.6266098
  97.9148293  31.7585278  38.1442547  89.0021610  14.8517847  14.6886671
  88.5551929  14.0063953  14.6466458  89.6075726  14.7662771  15.4251456
   7.6322232  16.7691851  20.5461049   6.6853009  16.7963219  20.4088140
   7.9335175  17.6468801  20.3113675  82.6112080   0.9769819   0.8932929
  82.2261047   1.3194907   0.0866860  83.0966473   0.2000576   0.6158524
 110.7004547  35.2620697  19.3185055 110.1518250  35.0844002  20.0824881
 111.5292835  35.5699635  19.6852183  27.3678170  24.4352674  37.0932460
  27.2596417  23.5307217  37.3870611  26.8568383  24.4874716  36.2855315
  81.5333926  96.8655097  15.2438593  81.5524660  97.6903474  15.7291532
  82.2765051  96.3688432  15.5864108 115.8521175  22.9771113  33.9195871
 115.8724213  22.5065064  34.7528648 115.9377193  22.2927356  33.2558608
  92.9219115  42.7159769  91.1480707  93.5870135  42.7420205  91.8359601
  93.4075653  42.8771300  90.3391203  75.4457235  33.0149436  33.5514069
  74.5296288  33.2862067  33.6098385  75.4891777  32.4884629  32.7531815
  72.5218725  17.5104618  49.4034386  72.0664120  16.7572200  49.0273905
  73.0558825  17.8503823  48.6854458  23.2374833  72.0556313  74.2012030
  24.0421651  72.5429208  74.3780404  23.2593129  71.8912227  73.2584816
  66.3409615   0.2740557  10.5872548  65.6438637  -0.1216085  10.0640559
  66.2515402   1.2145588  10.4333389  97.4387074  18.4948039   1.8404087
  98.1529903  18.4069979   1.2092864  96.7060375  18.8352931   1.3270855
  81.3640213  20.4049182  12.0060432  81.6719913  21.2524319  11.6849375
  81.1249352  19.9216354  11.2151539  16.5670750  74.3521745  82.4325949
  16.5855095  73.8469083  81.6198224  16.5577099  75.2656073  82.1466130
  38.0839478  88.9008116  60.5745268  38.9102446  88.4259342  60.6637478
  37.8317629  89.1136121  61.4730501  91.8566990  27.8301644  69.6429157
  92.7499485  27.6446152  69.3532324  91.4935780  26.9725442  69.8639584
   2.7899525  80.5227513  80.1310152   3.3780167  81.2678356  80.0074428
   2.1350691  80.6172056  79.4393247 108.1389332  73.9498520  10.0348222
 108.9355183  73.4882879   9.7728270 108.4520435  74.7002172  10.5399418
  98.4232998   3.3016780   2.7916971  97.6947880   3.3081314   2.1708456
  99.1038418   3.8246080   2.3678510  41.1492703  91.2758989  61.2622767
  41.7919705  90.7573480  60.7782513  40.8218739  90.6818361  61.9376522
  90.0102711  47.1826792   5.1130235  90.9314537  47.2996902   4.8807430
  89.7068787  46.4773130   4.5415005  20.8035050  30.6983924  16.7154598
  20.5432663  31.6070271  16.5641606  21.7511044  30.7389593  16.8444622
  57.2163760  95.6392860  17.2807658  56.5542780  94.9699353  17.1080410
  56.7323481  96.4649188  17.2639310  64.9541556 101.2010890  18.6887813
  64.9610792 100.2587711  18.5207903  64.3532072 101.3085359  19.4260395
 112.4168777  11.3716316   5.6877911 112.1728516  11.6222548   6.5787852
 113.0236435  10.6402409   5.8023942 108.2835829  35.2251524  77.1425420
 107.6707327  35.9534377  77.0413154 107.8280461  34.4741506  76.7621296
  61.9191443 107.3414660  37.3386073  62.7112948 107.2243049  37.8630114
  62.2336088 107.3819260  36.4354420 106.8222809  17.7781332  35.3100634
 107.4055290  18.0465019  34.6001077 106.8875027  16.8232846  35.3256249
 107.9080689  45.1589758  91.6791215 107.1612847  44.5620353  91.6320953
 108.6656534  44.5859749  91.7972979 112.0265066  64.4688154  89.1808891
 112.8446924  63.9763785  89.1152715 111.7715132  64.6317196  88.2727736
   1.0485325  32.4553084  27.6269412   0.9960614  32.4829960  28.5823011
   0.2308712  32.8550339  27.3304796 111.0680008  19.7541976  32.0964313
 110.9617901  20.6598783  31.8054056 110.9300613  19.2311311  31.3067460
 114.1316795   1.7519490   8.4268701 113.6274815   2.2134386   9.0969753
 114.0675354   0.8289330   8.6721414  27.6244614  77.5240774  89.7092563
  28.3551762  77.7017445  90.3014660  27.0206044  76.9915647  90.2269697
  58.9901400  31.2439895  60.4178905  59.7281408  30.9011483  59.9138594
  59.1854525  31.0021710  61.3232136  99.3213749  38.7238050  11.0919499
  99.1577244  37.7812791  11.0588896  98.8314915  39.0252686  11.8570411
 100.8930695  82.6100725  88.8236910 101.6028368  82.3984570  89.4300610
 101.3372624  82.8959555  88.0254435  77.4993992  20.4001904  13.0338299
  78.2185602  19.8034370  12.8266490  76.8166876  19.8357189  13.3964694
 112.7407742  14.3555164  42.6108599 113.2521439  14.6273518  41.8487310
 112.8955936  13.4134185  42.6795292  52.1691023 105.4463788   2.8200209
  51.2760626 105.5704071   3.1414622  52.7218043 105.8615243   3.4821454
  92.7799702  45.4151392  27.9137468  92.9234982  44.4717026  27.8391814
  91.8392563  45.5028868  28.0673599  63.9340292 108.2862521   1.2311465
  63.7434470 109.1943693   0.9961255  63.1349360 107.9764087   1.6573890
  66.4660345 108.0712234  47.8161144  65.9426771 108.3349630  47.0592976
  67.0976816 108.7813938  47.9297256  62.8309441  20.6806254  33.7305999
  63.3700752  20.2757692  34.4100571  63.4347820  20.8300328  33.0030775
  73.2328796  57.0445442  16.0327756  73.0260181  56.5073252  16.7975211
  74.0266657  56.6505718  15.6709468   5.5003987   4.1392714  75.7144308
   5.1049576   3.5751224  76.3789558   6.3415013   3.7261423  75.5192232
  27.3157822 109.9786757  40.2847052  27.9744994 110.1819121  39.6206117
  27.4221646 109.0416461  40.4486895  31.8216870 109.7805065  81.5143364
  32.7720425 109.8289007  81.6178185  31.6414139 108.8486666  81.3902133
  82.3609816 107.1272659  46.3765621  83.0450236 107.1889370  47.0432806
  82.8099810 107.3222166  45.5539894  42.1393368  82.3308176  82.2249561
  41.9907925  82.8077764  83.0414587  41.3020299  82.3790974  81.7636400
 104.2868328  32.2786522  26.3737464 104.9800205  31.6372776  26.2176681
 103.4860039  31.8407631  26.0853696  88.0249786  25.7276464   0.6096863
  88.5707569  24.9543071   0.4671737  87.2205544  25.5459404   0.1237671
  95.7283974  25.4694057  21.6312766  95.0830841  26.1602378  21.7814755
  95.3808117  24.9741173  20.8895898 102.5419426  19.2190540  31.9984460
 102.2444534  18.3476651  32.2600031 103.3924294  19.3200970  32.4258780
   3.5536919  27.2594285  20.9815812   3.0058632  27.7215219  21.6160774
   4.3161831  26.9751716  21.4856100  63.2053839  99.2070329  26.1697626
  63.8092791  98.5733485  25.7824826  63.7512671  99.7304522  26.7565107
  71.9528948 105.6354594  33.7100911  71.6148173 106.3275533  34.2783737
  72.2654616 104.9613869  34.3135452  84.7836304  32.8631330  43.3726549
  85.6281662  32.5531054  43.0457544  84.4474030  33.4238720  42.6735401
  36.9941018  76.0107345  76.6476720  37.3730729  75.2043981  76.9975811
  37.7054379  76.6495461  76.6941649  71.2336718 100.9388357  22.7052283
  71.0022150 101.7843496  23.0896330  72.1435725 101.0432529  22.4270177
  81.3218498   3.7635830  34.7742772  80.8898067   4.5978501  34.5910740
  81.5316582   3.4078097  33.9107752   7.6942788  64.9677277  22.3647380
   6.7719136  65.2135992  22.4355578   7.9824505  64.8554182  23.2705951
  82.6763248  19.4270647   7.9319757  83.5322762  19.5119703   7.5120145
  82.3472977  20.3241491   7.9886389  78.9981890  18.1932032  12.0702970
  79.5222139  18.2541442  11.2716007  78.2572603  17.6373792  11.8288064
  14.9192975  90.0968546  67.4844128  14.6633790  89.3549365  68.0324060
  14.9674485  89.7355241  66.5993386 103.0438995  25.6478524  20.9217262
 102.2782230  25.5405378  21.4860487 102.8116608  26.3697672  20.3376579
 115.6188393  10.4721165  16.7265773 115.8310127  10.7680476  15.8413434
 116.3615036  10.7572794  17.2588909  86.7702853 108.7845427  13.9679646
  86.7205035 108.2577787  13.1702971  85.9865748 109.3334880  13.9417768
 101.6773605  37.0472741  21.7029595 102.5500107  37.3776913  21.4895678
 101.7371368  36.1027980  21.5593600   4.0138600  76.1460561  92.4349206
   3.3978341  75.5988688  91.9477665   3.5310433  76.9541544  92.6084012
  44.3304513  90.8786387  87.8413987  44.2279980  91.2414855  88.7212151
  43.5066578  91.0849828  87.3997915  99.9918902  50.9745965  75.4712909
 100.2217018  50.0899992  75.1868480 100.2008354  51.5296388  74.7199565
 102.6572037  65.4947424  49.4352388 101.7233276  65.3566551  49.5934868
 102.8840828  64.8512745  48.7638855  94.0174770  30.3937602  50.2937412
  93.4622669  31.0206676  49.8301029  94.6563911  30.1102567  49.6397877
  11.8272565  84.4708580  90.2883994  11.2868569  83.7482733  89.9689013
  11.5560696  84.5883865  91.1988288  35.9492455  24.5762920   1.6415495
  35.0647030  24.8789883   1.4361648  35.9180413  24.3600249   2.5734755
  16.6583226  71.9507820  83.6819106  17.6011632  72.1151800  83.6656064
  16.3128255  72.4653906  82.9525023  37.4004529  70.2850682  83.4168130
  36.7733643  70.7799119  83.9441925  37.6650689  69.5573694  83.9795428
  49.8298250 104.4586819  36.1758780  50.3987776 104.7173255  36.9008803
  49.6079241 103.5458332  36.3594532   1.6214619  14.6715117  26.9700551
   1.7018376  15.3480351  26.2976813   1.9148503  15.0979865  27.7752090
  97.1670723  18.5731411  42.9580450  96.9141102  17.6524734  42.8901052
  97.9863930  18.5605335  43.4528017 115.9455299   3.1317511  12.8921485
 115.5606651   2.4479219  13.4403145 116.6325283   3.5166058  13.4363556
  85.0745106  65.5575657  26.2971282  85.0032234  66.2006283  27.0025516
  84.5018959  65.8938313  25.6077290  76.3482748  83.1031036  31.7269444
  76.9200312  82.3954105  31.4294648  75.4953753  82.6863407  31.8497992
   5.0118325  70.6299764  85.4315680   5.8999608  70.7391543  85.7714933
   4.7143910  71.5210873  85.2480411  70.8899260  16.6736448   7.1623963
  71.4800358  16.0655916   6.7171133  71.1413288  16.6194701   8.0844027
  29.6658871  68.8106078  72.9499441  29.6828530  67.9009086  72.6526361
  29.0636132  69.2480666  72.3481804  88.0824661  26.7403126  21.2388659
  87.8519821  27.6611447  21.1156702  87.5955582  26.4737988  22.0186877
  47.2640311 109.3444588  15.7573283  47.9241453 109.8653675  16.2146378
  46.7075049 108.9974876  16.4545560  33.1365941  99.3821329  78.2767838
  33.3565018  98.4593577  78.1488985  33.8187859  99.7121043  78.8615721
  86.4397240  51.3480806   4.4632897  87.0307732  51.3555384   5.2161741
  85.7306957  51.9421148   4.7095191  97.3816967  45.4850769  14.3805003
  98.0028439  44.7737646  14.5368266  96.6409874  45.0645733  13.9437389
 107.5370598   7.9417902   5.3335541 108.3551311   7.4448067   5.3359568
 107.7550316   8.7640047   5.7725137  52.6786600 103.2016265  11.7106354
  52.5207983 102.2945588  11.9724393  51.9377219 103.4201800  11.1454058
 100.1085388  35.2930862  94.5049597  99.9370396  35.3818352  93.5674394
 100.2803290  36.1864538  94.8026434  81.7145729  48.7106562  45.3208113
  82.1450901  49.5198202  45.5967426  81.7736244  48.1357145  46.0838175
  96.5502167  61.1827278  30.2913356  97.3094273  60.6468248  30.0619125
  95.9534264  61.0825634  29.5496845 115.7182026  36.4030719   6.9594723
 116.1497498  36.9540501   6.3064599 114.9678421  36.9207072   7.2514337
  67.9601908  26.8558979  32.5556493  67.6664877  27.2643900  33.3699608
  67.4225521  26.0680270  32.4754238  15.0640736  87.0695591  44.5943737
  15.3968869  87.8565025  44.1628742  14.8594818  87.3533058  45.4853630
  84.5511436  63.5916948  31.3773727  84.7703457  63.4469652  32.2978258
  85.0155354  64.3955326  31.1440969  17.6148377   9.0400064  11.4741528
  17.0272599   9.2890972  10.7607579  18.4264050   8.7820923  11.0370266
 112.0943069  53.5814810  44.4885874 111.6701794  52.7468109  44.2894077
 112.9976368  53.4676313  44.1931677 103.8306332  59.9404001  19.9837363
 104.5725250  59.3355942  19.9767351 103.9861679  60.5188847  19.2371440
  11.3678704  42.0787859   4.7652367  10.8032475  42.8427935   4.6480510
  11.2564144  41.8373823   5.6847668   4.1247425  33.1881380  17.5148845
   3.3006249  33.5927558  17.7856886   4.5212136  33.8261390  16.9215918
  82.4409580  65.0772238  33.0019045  82.9958534  65.4179668  33.7034798
  83.0221272  64.5169020  32.4875951  11.7148457  51.7952108  41.6518831
  10.9418927  52.2430038  41.3079786  11.3862381  51.2839842  42.3914099
 106.5726280  14.1214263  27.3684788 106.3943672  14.6705532  26.6049886
 106.7814732  13.2621801  27.0019984 103.1615829   5.0578630  20.8567572
 102.8860855   4.1420990  20.8980441 102.5276375   5.4725522  20.2716255
 113.4336376  34.5770526  40.9054375 114.3848324  34.5970511  41.0106277
 113.1147099  34.1371870  41.6934967   5.9125767  32.6383281   9.2050111
   6.1926804  32.6857853  10.1190805   6.7119656  32.4337935   8.7198585
  44.5696709  86.9707770  88.9270746  44.3215344  86.1123962  89.2703581
  44.5159791  87.5556511  89.6829003  88.9164543  52.0977783   2.3036467
  88.8544464  52.0614958   3.2581466  89.8567772  52.1064806   2.1248746
   3.6367092  42.3483562   1.8230551   2.7016220  42.2110701   1.9747145
   3.9028321  42.9620409   2.5077477 103.3280277  41.7231750  25.0098205
 102.9255199  40.8863306  25.2420211 102.6548862  42.1812582  24.5065546
 113.7376404  23.5508728  41.1508799 114.6581554  23.4177852  40.9246445
 113.4226322  22.6804590  41.3945484  11.5333615  27.0586205  15.1973295
  11.9741974  27.8892398  15.0185549  10.6024704  27.2807264  15.2161956
 113.4533691  26.4955235  12.1854615 112.5767326  26.2930846  12.5122058
 113.6877537  25.7409644  11.6451526  85.0501347  52.4348640  24.2397976
  85.3135681  53.2509708  24.6650028  85.8559990  52.0976973  23.8484883
   5.9495316  49.6278334  42.8427744   6.3734970  48.8353777  43.1721783
   6.4615975  50.3458071  43.2149792  89.7817039  28.8297939  34.9221754
  90.1103783  28.4343672  35.7295442  89.7620678  29.7689366  35.1061749
 114.6925068  20.1702547  29.0344882 113.9036655  19.7866523  28.6513448
 115.0019264  19.5110846  29.6557689 110.9563065  20.0572443  23.7446308
 110.5057144  19.2138839  23.7887073 110.7999420  20.3659868  22.8521848
  70.9737206  84.6528053   4.3214133  71.8523741  84.7662258   4.6838263
  70.8626080  83.7044048   4.2550030  72.9843950  28.5735226   7.8796017
  72.2094250  29.1024446   8.0690604  72.8243637  27.7442455   8.3300722
  99.2512894  66.7192364   5.8753848  99.9763775  66.6562557   5.2536803
  99.6746635  66.7816734   6.7315924 113.9074671  37.6239747  86.1550313
 113.5841477  37.3988599  87.0273953 113.7290776  38.5603446  86.0677433
   4.3167744  49.1634893   3.7292808   3.8074170  48.5541773   4.2636240
   3.7317524  49.9086142   3.5922405  94.4836712  70.1807737   9.7104627
  93.8721848  69.6929502  10.2621353  94.7032452  69.5750046   9.0026051
  17.9026184   9.5885324  49.0512991  17.8502617   9.2578697  49.9480438
  18.5061703   8.9905739  48.6103916  44.0748570  76.8751449  92.9898575
  43.3798192  77.4217457  93.3564356  44.0753148  77.0829291  92.0554819
  83.4320641  90.9770107   1.7706591  83.8027954  91.6777039   1.2341725
  83.4382439  91.3282776   2.6610538 109.2474270  64.2300510   7.3700714
 108.6856174  63.4659815   7.4996889 110.1267815  63.9203167   7.5869185
  39.7695706  91.7785472  72.0383101  39.0446160  91.8064875  72.6627284
  40.3407643  91.0835785  72.3654037  90.8926105  14.3419206  37.5952148
  91.3898182  15.0149643  37.1304250  91.5424538  13.8968229  38.1391072
  97.6281261  12.8012729  20.4241848  98.2502651  13.2076836  21.0275149
  97.3052502  12.0328128  20.8947730  28.1261418  44.9485267  77.3496884
  27.3342297  44.6336645  76.9138294  28.0552552  45.9024799  77.3153537
  95.8369064  40.7993984  18.5619664  96.7347336  40.7259226  18.8855839
  95.4455090  41.4904356  19.0962970  23.0595181  79.1479987  85.2137512
  23.1981061  79.7727985  84.5019561  22.3447392  78.5901350  84.9069863
  87.5456524  29.6294856  20.3335333  88.3536243  29.2550159  19.9825585
  86.9739532  29.7224593  19.5714629  25.7994435  74.5233089  93.8107806
  24.8624203  74.5403845  94.0055440  26.0200570  73.5925049  93.7766291
   2.1243248  88.7145901  13.1042147   2.9582653  88.4855652  12.6939595
   2.3664532  89.2704105  13.8449335 113.5251617  54.8128700  17.9292035
 113.4325314  54.7502613  18.8798511 114.3346977  54.3401432  17.7357888
   4.1295109  34.4661880  31.9289184   4.5658837  34.7205210  32.7420163
   3.2212315  34.3054509  32.1846914  31.8527482  77.1920318  76.7511111
  32.5550435  77.8417367  76.7210346  31.0473988  77.7078671  76.7116290
  71.3490651 103.3495898  83.8021487  71.5700982 102.4269671  83.6750716
  71.6386292 103.5446925  84.6933943 109.7642994  28.3125234  45.8688116
 110.4804516  27.8648806  45.4182911 109.0560627  27.6689935  45.8912849
  88.1955229  99.7580182  28.6503601  88.4805762  99.0833258  29.2666125
  88.9692675 100.3064745  28.5209107  88.4203720  60.1353359  49.8152685
  87.6763058  59.5471478  49.6863127  88.0904770  60.9977484  49.5629835
  90.7239819  16.2310958  33.7786031  90.0034046  16.2321961  34.4086790
  90.4278183  15.6511462  33.0770493 114.9574661  49.4431114  47.5340462
 115.6504345  48.9837122  48.0083609 114.4391346  48.7457275  47.1325111
 109.4899559  65.1696825  30.7047391 110.0397301  65.9497356  30.7789111
 108.8652611  65.3819990  30.0112605  62.9238592   1.0451598  78.5986560
  63.0140578   1.1224933  77.6488596  63.4493624   0.2785440  78.8275224
   6.4158402  46.9714212  36.3528967   6.7679081  46.8807602  37.2383714
   7.0452557  46.5123415  35.7967329  69.4082724 105.1480865  20.2811050
  69.5204817 104.7191834  21.1294484  70.2704417 105.0929698  19.8689604
  34.6674512  67.3900742  94.6294195  33.9702008  66.8595845  94.2438551
  34.3920872  68.2942194  94.4779938  26.7895100 109.1178984  86.7404967
  26.2288640 108.4126229  87.0637506  26.7516301 109.0363020  85.7875335
   3.9334927  25.5574703  26.6777468   4.0302143  25.3832030  27.6139665
   3.5065422  24.7740126  26.3311410  17.7934513  50.0291824  18.1435490
  18.3753262  49.4789076  17.6192784  17.8556691  50.8952999  17.7408111
  17.4973927  72.5566053  14.0536988  17.9335080  72.7193069  14.8900950
  16.8256150  71.9055986  14.2565167  44.9516296  47.9915380  16.2189651
  44.1948462  48.1739187  16.7759681  45.4933310  47.3970747  16.7380071
 106.0585213  14.8243153  24.6859598 106.9863129  15.0279117  24.5676565
 105.8520412  14.2232800  23.9701724  91.3352489  40.1137161  23.1547832
  92.0859718  40.6303310  22.8619576  90.5907345  40.4823542  22.6793456
  95.5974579  59.0978050  24.0376997  96.2647152  59.5593357  24.5456290
  95.7005215  58.1790686  24.2857504  66.1976242  64.1541243  19.2999279
  66.4250755  65.0647879  19.4875228  66.0922575  63.7511539  20.1617551
 101.4926243  31.9307590  46.8359423 102.1036530  31.5647030  46.1965036
 100.6440830  31.5575910  46.5972614  86.0369778  20.4601812  31.1213017
  86.9082737  20.1346684  31.3473797  85.8862114  20.1426029  30.2309942
  85.7778835   6.2569749   4.4971988  85.5844212   6.2037706   3.5612631
  86.3546658   5.5117923   4.6652928  14.0043984  43.0621290  30.5672240
  14.9584160  42.9926586  30.6028056  13.7776337  42.7922773  29.6772885
  82.6482964  83.3529282  34.9639511  82.1680737  83.8944721  35.5903316
  82.1300220  82.5512600  34.8936796  19.8162518  41.2283850  47.3486900
  20.7303582  41.1607838  47.0728827  19.6709118  42.1669102  47.4681950
  63.3811448  82.7390880  92.8308853  64.1426919  82.6425475  92.2590774
  63.0697224  83.6292071  92.6667778  72.1353340   6.9777453  21.5768528
  71.7465067   6.5318972  22.3293567  71.7909336   7.8696644  21.6226816
  63.3501482  23.1261086  38.4260058  63.0825758  24.0364814  38.5519409
  64.2143106  23.0718184  38.8340569  61.2774849  22.7363324  14.8408079
  61.7121792  22.9991937  15.6520879  61.7087841  21.9188356  14.5919931
 115.5966282  33.6983705  43.0586195 116.1268044  32.9109907  43.1818199
 116.0175800  34.1594481  42.3330545  91.1589909  55.2778816  22.3445392
  91.2350941  56.1364508  22.7608395  91.9971275  55.1523256  21.8995667
 115.0777912  58.7190151  50.2030945 114.2984295  59.0451145  49.7531033
 115.7184696  59.4246149  50.1142740  94.1125488  47.5547409  47.9475260
  94.0318966  48.4302759  47.5691462  94.9658775  47.5588989  48.3811474
 105.8358860  49.8691034  44.8645449 105.9839153  49.9944830  43.9272070
 106.3823795  50.5334663  45.2843046  12.9959545  49.4533300  14.1944814
  13.8692341  49.8446465  14.1726530  13.0273877  48.8381863  14.9271762
  80.6515967  15.1560779  87.4932152  81.2298666  14.7470756  86.8493521
  79.7715555  14.8870702  87.2297895 115.5046177  25.8505535  47.1001720
 115.7153416  25.3146696  46.3355446 116.3465405  25.9915972  47.5331831
  94.6249580  10.2908790   9.4866455  93.7451077  10.4809785   9.8121512
  94.7127628   9.3417239   9.5739794  85.1352787  16.8003619  13.7365782
  85.9174919  16.5528321  14.2296362  84.4345093  16.8106806  14.3885279
  82.7678967  52.3691416  22.5142026  82.8699303  51.4369392  22.3223233
  83.4174919  52.5461292  23.1945968  82.4224854  33.1616426  15.4999101
  82.9425526  33.8953328  15.1721025  82.5544643  33.1791258  16.4478064
   9.6618519  52.8342772  23.9228463  10.0953350  52.0370674  23.6182356
   9.1544781  52.5547981  24.6848822   9.7084866  17.0788622  13.7709808
  10.4543076  16.5045238  13.9445281   8.9958153  16.4829051  13.5403931
  44.3227360  69.5169730  81.7936510  43.6901829  69.8508150  81.1575204
  45.1529095  69.4961650  81.3176244 106.5236664  35.6093073  40.2883339
 107.0651913  35.5100870  39.5053053 105.7587147  35.0585055  40.1218891
 116.1173248  40.3742266  17.3787189 116.0195065  39.8181868  16.6057491
 116.3991642  41.2203312  17.0309985  49.4800923  64.2200542  94.6065537
  49.0622494  64.1999621  93.7456059  49.9627564  63.3950466  94.6578434
  77.5840174  94.6055710  73.1504345  78.0060087  95.1370274  72.4753761
  78.2985483  94.1016709  73.5400057   0.3752766  44.7034025   1.7836528
   0.2878151  44.7042465   0.8304576   0.5352459  43.7868834   2.0086780
  87.9812527  27.8341675  16.6710162  88.3139133  27.6949954  15.7843363
  88.1708145  28.7539268  16.8563318 103.1985378  30.4883122  45.3712606
 103.5735416  30.5705762  44.4944286 103.3587360  29.5768261  45.6157255
  63.4261465  48.3224821  37.3303223  63.9567947  47.9948902  36.6041493
  62.7534246  48.8598061  36.9120407  89.4769096  58.3728409  19.2475569
  90.4193974  58.5298443  19.3050885  89.1422081  59.1093063  18.7358677
 100.6857300  45.7061577  40.2992678 100.0172043  45.1491117  39.9005032
 100.8103561  45.3410530  41.1752796   3.1099472  23.8267136  49.4232273
   3.8572464  23.3231592  49.1004038   2.3619328  23.4867144  48.9321947
   1.6822491  43.8276005   8.4846872   2.2768841  44.0530729   9.2000949
   2.0058976  44.3299055   7.7369082 103.6058712  10.2693677  10.4047287
 104.3051720  10.9001338  10.5760479 103.2435799  10.5369568   9.5601147
   1.6287766  46.9297695   6.3676602   1.9800244  47.4312353   7.1034521
   2.3519574  46.8836641   5.7422721  92.5020109 103.2404708  12.7126157
  92.5574862 102.4131744  12.2343528  91.5721880 103.3360433  12.9188120
  45.4619095  94.8018331  89.0382200  44.5534871  94.9492258  89.3014377
  45.7582543  95.6522221  88.7138015 113.7994658  80.5661535  31.4614511
 113.6101519  80.3653716  30.5448914 113.4082686  79.8425268  31.9509006
  48.9006853  35.3790855  53.5313654  48.3560514  35.6467032  54.2716265
  49.0623522  34.4470310  53.6775589 101.4617729  31.8405604  23.6990309
 101.8849945  31.2245917  24.2971063 100.5292892  31.7705822  23.9035010
  86.8333244  25.9683394  55.4745007  87.5024414  25.3022480  55.6320906
  87.1488094  26.7405272  55.9439993  74.5098387 106.3978537  10.4658008
  74.7338759 105.8341559   9.7253376  73.5528742 106.4186689  10.4700398
 104.3164349  57.0923042  46.6863680 103.7059975  57.5152063  47.2903156
 105.1742649  57.2028351  47.0964146  78.3213126 108.9599295  44.1597319
  78.9351260 108.2356664  44.2818403  77.4841296 108.6202675  44.4759321
  59.7395216  79.4599723  52.9659081  59.7556292  78.6220693  52.5034285
  59.3025004  80.0591897  52.3607779  96.8957806  28.7444568  26.2733603
  96.7444229  29.6650839  26.4872909  97.2036457  28.3557844  27.0921278
   4.7574292  48.5869837  17.4132586   4.1515599  49.2868042  17.1695244
   4.5361386  48.3843803  18.3222222  12.4461136  44.8274279  27.0183611
  13.2722626  44.5316315  26.6359782  12.6951943  45.2113485  27.8590727
  97.0406055  13.4311163  46.8493605  97.4417782  13.5921144  47.7033949
  96.1694908  13.0913329  47.0541668 102.1241856  30.1297092   9.3230498
 102.0769405  30.0347137  10.2743518 101.2326336  30.3589010   9.0606630
  20.9806214  28.9410567  62.6950073  21.5393696  28.3094645  62.2421074
  20.3430710  29.2133164  62.0349836 112.7546597  35.1581573  25.0015092
 112.1406269  34.8183942  25.6524825 112.9438686  36.0499573  25.2932644
   0.9048329  36.5381336  38.1430507  -0.0472679  36.6226888  38.0921698
   1.1382161  35.9996271  37.3868918  69.3373680  17.2850060  21.0277677
  69.4779396  17.1767437  20.0871563  68.4770918  16.8969238  21.1876082
  93.7508965  66.2834740  42.7256250  92.8862286  65.9568834  42.9744577
  94.3541718  65.5881834  42.9880476   3.6484013  31.6572070  13.2275653
   2.9764710  31.5564728  13.9017940   3.7233601  30.7885861  12.8324521
  89.0298271  53.7810087  18.5746288  88.4724331  53.9147568  19.3412125
  88.9461803  54.5920753  18.0732286 114.0983486   3.2836744  42.1751928
 113.3815861   2.8539637  41.7084789 114.8661804   2.7455068  41.9827080
 111.2665558  48.7354803  45.6896210 110.4543018  48.7203836  45.1834011
 111.4991951  49.6625233  45.7415867   3.9356289  16.6556442  38.3628821
   3.7421952  15.7191515  38.3204770   4.5810471  16.7984879  37.6705909
 115.4422760  12.4996626  20.7043505 114.8664188  13.1619024  21.0865235
 114.8631477  11.7633188  20.5077863  35.2045701  72.7027506  91.4447933
  34.6773980  72.9165382  92.2146120  34.6217892  72.1814377  90.8926743
  81.2672615  17.5813568  20.9312797  80.7783794  18.3164799  21.3011694
  80.9770584  16.8221211  21.4368224   3.1988011   8.3860356  13.5730743
   3.8089524   8.4890091  14.3033743   2.5208531   7.7993101  13.9082932
  84.4439793  46.5618181  26.2522197  85.1589298  46.8215275  25.6711650
  84.7646713  45.7725334  26.6885924  24.4078884  33.5317898  20.3869605
  23.5436116  33.1287885  20.4697657  24.8628292  32.9921460  19.7403991
  95.4744339  58.1892300  49.3934584  95.4500198  57.3236227  48.9855862
  94.6278381  58.5799503  49.1770267  34.2167340  16.7766654  25.9229088
  33.3338890  16.9376671  25.5898976  34.7538243  16.6730738  25.1373959
 105.7635689  58.4600973  40.9502840 105.7416725  58.4522867  41.9072008
 105.8038521  57.5359774  40.7040787 101.8533217   4.4009633  95.2319146
 101.9176565   3.6632104  94.6254398 101.3636385   5.0663800  94.7485281
  94.1674709  44.9329853  54.2596292  94.1393471  45.0913954  53.3160448
  94.2595863  43.9836645  54.3404770 110.4265881  48.7145996  60.6058550
 110.4979801  49.6664190  60.5339146 110.0023746  48.4440088  59.7915745
  99.0503693  53.7398052  17.6826978  99.9732685  53.8450623  17.4516153
  99.0644169  53.2735586  18.5185492  92.7547169  48.8425779  14.8896539
  93.4917259  49.2860794  15.3096032  92.2837639  48.4252691  15.6109643
  74.5923411   9.6016784  84.8722631  74.8448073  10.4215617  84.4476586
  75.4097639   9.2560668  85.2308768  13.7568436  70.0249577  33.1531239
  13.1513081  69.9138641  32.4201679  13.9985905  69.1326952  33.4014273
  14.4456444  54.8742199  27.5763202  14.1488228  55.7786226  27.4753881
  13.8207875  54.3587446  27.0663476 111.8116570  55.0461960  37.9354048
 111.8779373  54.5875835  38.7729692 111.3611984  55.8642864  38.1452775
  22.7486859  10.2374971  19.6625280  22.1462117  10.1704764  20.4033113
  23.1330929  11.1102641  19.7446406  99.3674374  19.9730217   8.0340385
  99.7264957  20.3844666   8.8201821 100.0041008  20.1719499   7.3475122
 114.2055798  46.2018490  53.2752275 113.5093212  46.1440706  53.9295292
 114.5234299  45.3036070  53.1837463 108.5169315  17.0731866   5.9788042
 108.7849140  16.1559308   5.9234905 109.2377567  17.5579679   5.5767775
  69.9259637  80.4296989  83.1836134  69.8207638  81.3647646  83.0080622
  69.5809147  80.3118557  84.0686482  18.6451779  54.6108913  33.4297919
  18.2560215  53.7801266  33.7029672  19.5153103  54.6104193  33.8286710
 100.2943707  53.3549643  27.6091528  99.5086956  53.2598543  27.0707345
 100.9413147  53.7458420  27.0218635   1.1697159  71.3006926  34.2321944
   1.9129906  71.9028187  34.1973376   1.5676651  70.4313564  34.2782116
  91.4387035  39.4835281  42.5601435  92.1885967  39.8810315  42.1175528
  91.3427639  39.9875140  43.3682394  92.3504448  59.1176033  19.7770905
  92.1961021  59.9409199  20.2402925  93.1116962  59.2930365  19.2239666
  97.9706669  69.3504906  27.2206330  97.2305965  69.1132736  27.7794242
  98.2569790  68.5213280  26.8375492 111.4658833   9.0145350  29.1064620
 111.7240143   9.6320093  28.4221196 110.6640053   8.6106819  28.7746072
  15.0218449  81.9475269   0.6700483  14.3976937  82.2932053   1.3081551
  15.0679646  81.0111427   0.8631349 110.6333160  53.5650492  13.0628443
 110.6846523  52.6424980  13.3128345 109.7134304  53.7969351  13.1904328
 114.2813396  61.2996721  20.2559376 114.0205479  61.6214800  19.3930042
 113.7940121  61.8459702  20.8726215  83.6059653  16.7543216  88.6908352
  83.2510172  16.5979905  87.8157341  84.0872084  17.5778432  88.6105007
  46.5112183 102.1673054  74.2438870  46.9894478 102.9953617  74.2008525
  46.0070393 102.2238058  75.0555783  16.5613327  49.1462803  27.9035759
  15.9580670  48.4195328  27.7482009  16.7931710  49.0713882  28.8292503
  -0.1174106  74.5038509   7.3413593   0.0306569  75.3401184   7.7829099
   0.5275116  73.9114523   7.7278441 105.4605961  53.7303782  24.5242620
 104.7885418  54.1952515  24.0257978 106.2779140  53.9286995  24.0672135
  85.0884533  72.0659208  27.6208282  84.1575718  71.9059944  27.4655366
  85.4677391  71.1929798  27.7225566  95.7917786  47.3636007  52.7086306
  95.6287670  46.6755867  52.0634222  95.3970051  48.1478548  52.3274040
  43.0357716  74.3581218  75.9308260  43.0560753  75.1688952  75.4224318
  42.2092507  74.3977684  76.4119941  12.0458851  57.0003128  22.9298067
  11.6361866  56.4051676  23.5576439  12.4486599  56.4235210  22.2807169
   5.8539734  56.5318108  22.4881935   5.1951657  57.2225714  22.5591874
   5.6806527  55.9579182  23.2344103   4.2369042  79.0740490  26.8883181
   4.9857293  79.0538883  26.2924290   3.9900074  78.1552839  26.9938898
 116.4114952  74.3590641  33.8171244 115.4627895  74.2753792  33.9129663
 116.5660477  74.2695713  32.8767323  98.3653927  54.5642042  11.9689596
  97.8957748  55.3807402  12.1391368  98.6595345  54.2727423  12.8319561
  24.2749570 104.7466702  88.7330752  24.1804764 105.6813092  88.9168024
  25.0417397 104.6909804  88.1628406  99.4687271  61.4015293  12.7542651
  98.9628792  61.3259792  11.9451666  99.5499611  62.3442602  12.8988016
  85.8211803  18.7636662  37.8294253  85.8159161  19.2363501  38.6617565
  85.5245304  19.4076586  37.1863794  22.9212342  40.7884264  16.9349015
  22.5250588  41.0977983  17.7494979  23.0564080  39.8512554  17.0751297
 116.0170460  26.5235114  21.2526727 116.2502480  27.3062897  20.7535696
 115.4007626  26.8364477  21.9148636  53.5881029  31.0906072  82.8808361
  54.4477450  31.5111394  82.9008394  53.0010401  31.7620320  82.5333077
 108.2345390  28.9749742  15.3294230 108.1390190  29.5011687  16.1232913
 109.1692257  29.0145469  15.1268625  73.2289778   3.5305162  93.3168092
  73.0214106   4.4058175  93.6439042  73.9185511   3.6743064  92.6687038
   5.8468876  73.6855412  33.8199186   6.5259705  73.2538080  33.3015704
   6.1635361  74.5820761  33.9303231  86.8791294  26.2301874  18.8509631
  87.4691963  26.2170053  19.6045387  87.2776508  26.8554616  18.2456172
  34.5016156  34.6358752  21.7317843  33.5935269  34.8820710  21.9078541
  34.5463620  34.5508146  20.7794213  50.7342778  39.2942572  37.4561214
  51.6700993  39.1252375  37.3469043  50.3150807  38.7712169  36.7727995
 102.1179199  62.0685053  42.8194284 102.7035809  61.8958664  42.0822573
 101.3320732  61.5574503  42.6257849   1.9914875  60.7013273  36.8164396
   2.7125893  60.1035261  36.6192436   1.2034092  60.2122498  36.5798759
 113.6847401  49.1523790  43.9214325 113.8561535  49.1889811  42.9804182
 113.0846024  48.4141922  44.0270329  35.0758717 106.0249514  72.5971252
  34.7308419 105.4478306  71.9158631  34.4191144 106.7162699  72.6806289
  13.0651818  55.6191921  44.5020151  13.1167183  55.1720715  43.6572313
  12.8091011  54.9346256  45.1200962  42.6832543  41.7952394   8.6616290
  43.3027325  42.2973299   9.1911429  42.1687088  41.3007212   9.2995369
 106.3147545  71.7138863  10.1432621 106.6678238  72.5513601  10.4436183
 106.3173199  71.7814875   9.1884565   3.7761555  61.7491484  27.7299476
   3.9640198  60.8878136  28.1028318   4.6378289  62.1353531  27.5731087
 112.2037792  54.4930649  32.1100140 112.1785641  54.7979832  33.0169988
 111.9340992  53.5758972  32.1580863  87.3853194  24.6852393  88.3060223
  86.9864355  23.8691087  88.0042583  86.8808638  25.3732152  87.8719181
 110.7055950  91.2570572   4.4866255 111.1139584  90.5711937   3.9583600
 109.7661877  91.1427307   4.3428582  62.2625065  38.2158208  28.8089085
  62.8244925  37.9624009  29.5411563  61.3763380  38.0049086  29.1029358
  69.5615851  17.2850366  80.0067132  69.5618330  18.1226249  79.5433849
  68.8187586  16.8073506  79.6375972 103.5777378  57.1452618  31.3772535
 103.7626171  56.3554907  31.8854928 102.6236153  57.2207785  31.3905954
 101.4629828   3.5925288  83.0843323 100.6407152   3.7599607  82.6238221
 102.1272456   4.0371509  82.5577408  94.4431864   2.8913779  68.9677006
  94.5182692   3.4418435  68.1882244  95.1232230   2.2267432  68.8579684
  72.9251372   5.1252885  69.0434605  73.6633097   5.1454206  68.4344154
  72.8437601   4.2041869  69.2908126  80.7862663  48.6849546  12.8294444
  79.9928093  49.0127563  12.4061131  81.1269093  49.4365501  13.3145177
  53.9771531  84.7038740  79.7941166  54.6044705  84.5983476  79.0788764
  54.5105240  84.9693603  80.5432910 100.4559517  20.9288979  10.2313828
  99.7483158  21.2038994  10.8143532 101.1719227  21.5351987  10.4211855
 108.6826134  57.2337008  23.9889193 108.3022499  56.8021584  24.7539830
 108.6758804  56.5619850  23.3070207 112.1424484  45.1526785  36.0630798
 111.7040920  44.3019295  36.0801721 112.9084015  45.0387955  36.6257453
 109.8459530  37.8747296  64.3990231 110.7531643  37.5739098  64.3470383
 109.5232773  37.5205255  65.2276659  16.5410862  66.8539238  10.8492327
  16.9602929  67.2838116  10.1037836  16.7626248  67.4055433  11.5994763
  44.5269261  68.0427837   6.1879307  44.2423687  68.7522221   6.7640918
  43.7221966  67.5707388   5.9738308 112.6811028  10.5992663  65.8744717
 111.9815254  11.1024058  65.4577398 112.3023129   9.7310770  66.0122967
  98.4512043  12.4264598  57.8560972  98.3543396  13.3712482  57.9753590
  99.1596508  12.1813035  58.4512806 113.3123016  34.7587466  20.1033974
 114.0015507  35.2016687  19.6084452 113.7675858  34.3633127  20.8467507
 111.4272499  59.1919851  14.2820776 111.8975544  59.7074747  13.6268544
 111.4694691  58.2933044  13.9552498  12.4430046  96.3371563  21.9070554
  12.8493653  95.6182480  22.3910809  13.1802140  96.8548107  21.5833449
   1.3439999  66.2701035  42.8752422   1.8057118  65.6841278  43.4749746
   1.9710217  66.9703865  42.6944590  39.7969494  76.6602898  13.2008815
  38.9983235  77.1878386  13.2120299  39.5006142  75.7728338  13.4029615
  18.1613026  74.1161585  28.7444520  17.3572312  74.5733833  28.4982109
  18.5299931  73.8157415  27.9137564   4.4806633  59.2592287  36.3957119
   4.7728215  58.8321400  35.5904317   4.7707806  58.6744690  37.0957971
  22.9784546  47.4267769   1.8701988  22.5555573  46.6829920   1.4410424
  23.2840786  47.9772377   1.1492173 109.4032764 102.9339314  32.2246957
 109.6623325 102.0354080  32.0202971 110.0542164 103.2322598  32.8599143
 114.1190729  29.5179582  52.6169205 114.9833105  29.8919845  52.7884722
 113.6447387  29.6227193  53.4417009 112.5951292   2.4184137   4.5558661
 113.1745078   2.8241497   5.2007979 111.9767072   1.9070345   5.0776690
  39.0683651  89.0073490  91.7596054  38.3656383  89.1249371  91.1203957
  39.7552800  89.6096325  91.4738846   5.7898206  32.9076028  77.9711819
   5.9875667  32.0545602  78.3577681   5.6909710  33.4935308  78.7216139
 112.9139998  16.6514879   3.5586280 112.7438047  16.1185413   4.3353099
 112.1965339  17.2848612   3.5408324  46.3426616  60.2914529   8.0428428
  46.4824536  61.2065988   8.2861728  46.3300898  59.8211961   8.8764686
   7.0729375  78.0627632  88.7622547   6.4933038  78.7580299  89.0734768
   7.3273337  78.3391953  87.8818512  77.9893165  12.7679783   3.2430572
  78.1976001  11.9333082   2.8233260  77.0331560  12.8106170   3.2300014
  85.0162722 100.9801524  56.5129137  85.3869719 101.1612200  55.6491852
  85.6422205 101.3634282  57.1273422  11.5019764  94.4303470   5.9294147
  11.0534729  95.1257281   5.4482478  11.6092623  93.7268739   5.2892226
  69.9304076  13.3424860  19.0375155  70.5772593  14.0405279  18.9347762
  69.6370586  13.4195190  19.9453944  72.2210046  21.6563087  12.0331496
  71.9747027  22.3272949  11.3964862  71.3995906  21.2116342  12.2423762
  19.1621697  54.1267490  79.7924709  19.1915071  53.7465525  78.9145041
  18.3209050  54.5819616  79.8283625  41.3885842 109.1474681  21.1449164
  40.5299921 108.7972360  20.9074515  41.7183630 109.5412641  20.3372020
  90.3364339  45.4803944  48.6203194  90.8197155  46.1687660  49.0772867
  89.8117437  45.9473896  47.9700470  91.6123631   8.9651399  24.1035575
  90.7687988   9.1974931  23.7154216  91.9285729   9.7796064  24.4945640
 101.7053022  64.2456341  81.7698383 101.2553336  65.0309038  81.4582062
 101.4355161  64.1620350  82.6844120  98.2732322  43.9139175  79.1753674
  98.9112904  44.6207523  79.2728281  98.6179378  43.2037592  79.7167397
  28.0055380  76.4161634  85.2853107  28.8698244  76.4105940  85.6966686
  28.0302382  77.1622610  84.6861839  34.1261744  38.1895208  91.8046474
  33.8489175  39.0779710  92.0283031  34.5956969  38.2865500  90.9761810
   9.2047322  63.7312126  33.9381409   9.2722362  62.8674889  33.5311317
  10.0554848  64.1391611  33.7768078  94.0573051  20.9825283  24.4666213
  94.2761841  20.0820547  24.7063560  94.4351997  21.0968261  23.5946292
 107.9003604  56.4659834  85.8028030 108.1341209  55.5656481  85.5770111
 107.5232257  56.4026451  86.6802883  98.1371405   2.7922445   5.3493422
  98.2080557   3.0387788   4.4271583  98.9589646   3.0887323   5.7404059
   2.6496619  28.3068633  77.3954058   3.1033039  28.6299467  78.1739044
   3.3496666  27.9906082  76.8242598  87.4975338  62.7509499  46.4702559
  88.2579460  62.3361063  46.0629320  86.7473712  62.3991251  45.9909773
  94.3973651  80.4742050  78.5083485  93.6021199  80.6305504  79.0176392
  95.1076522  80.7758045  79.0747023  -0.0806588  69.4021082  90.7641602
   0.7677462  69.8354721  90.6712246  -0.1962173  69.3019438  91.7090607
  62.2590330  36.2916952  17.9180640  62.7531090  37.0905214  18.1024760
  62.7103081  35.8979612  17.1713656   9.2900175  32.2011638  76.2095451
   9.2509848  31.7622209  75.3598166  10.2082133  32.4535275  76.3068104
  79.8915253  21.6898876   6.3929576  79.6443274  22.5485855   6.7361182
  80.8079463  21.7897230   6.1351985  50.6567372  93.9428239  14.3450278
  50.7605554  92.9914241  14.3620223  51.1526967  94.2514591  15.1033133
 106.5018441  44.7304630  80.4227066 107.1274187  44.7177172  79.6983242
 106.2350096  43.8168955  80.5248260  97.6404407  49.2483330  85.6909561
  97.2376909  48.4277678  85.9750366  96.9005408  49.8253393  85.5016232
  64.8514035  16.2377601  19.5886725  64.0234985  16.2124162  20.0684279
  64.7661080  16.9903284  19.0033645  97.6952746  63.2074928  79.7493029
  98.1485488  62.7100277  80.4299641  98.3885338  63.4736013  79.1453075
  12.7867591  41.3179398  77.3144054  13.3732808  41.2150192  78.0638266
  13.2959557  41.0045195  76.5669298  47.9385092  37.9767709   1.1269111
  47.0830753  37.5518709   1.0642737  48.1889465  37.8767687   2.0453376
 115.0125337  40.1417923  93.8724518 115.8731578  39.7235823  93.8467693
 114.4587997  39.5213556  94.3464470  96.3300743  81.6454697  83.3109570
  95.4350485  81.8833828  83.5529518  96.8728127  82.0153904  84.0072536
  10.7709408  59.3244696  85.1512909  10.6898010  59.8248339  85.9632492
   9.9737394  59.5296574  84.6628284  56.6620901  45.0065523   0.6655711
  56.6467001  44.7441965   1.5859813  57.5221684  45.4091936   0.5456370
  90.8259072 104.2628193  88.4494686  91.0276260 103.3845043  88.1268215
  89.8730030 104.2718887  88.5396004  65.6673325 102.9309421  12.7343959
  66.1704124 103.0688958  13.5369605  66.2926139 102.5403171  12.1239299
 112.2136637  41.1225700  77.3577166 112.3498877  41.9274521  76.8578768
 112.1804338  41.4099884  78.2701445  21.7070746  88.4911919  94.4920826
  22.3592949  87.9221153  94.9007320  22.0699120  89.3726349  94.5794296
  93.8114609  47.7519751  88.1931496  94.3307962  47.0678139  87.7707195
  93.1069197  47.2788858  88.6359119 114.6717236  52.0050192  89.6455860
 114.3251865  51.2070084  90.0447464 115.3362965  51.6957998  89.0299988
 106.3052752  28.7839699  90.9662628 105.9953453  28.3263636  90.1847458
 106.3656416  28.1018567  91.6350842   0.8829057  10.4078823   4.4617194
   1.4018190  11.0192590   3.9390582   0.1951301  10.1083713   3.8671702
  91.6574707  21.5723615   6.9388980  91.6212788  22.5239282   7.0360679
  92.5717022  21.3484388   7.1128863  10.7142949  87.7678204  94.2030048
  11.2489414  88.3548450  93.6684036  10.4635227  88.2959080  94.9609375
  45.1437380   9.1822010   9.2871398  45.6815770   8.4377914   9.5569819
  44.2665293   8.8158422   9.1752738  73.0215224  27.8493791   2.7871436
  72.7726444  27.4384695   3.6150569  73.7593754  27.3269373   2.4727363
  46.6532829  24.4524437  34.6251697  45.7076194  24.3785959  34.4967193
  46.7923453  25.3702837  34.8585433 112.2395827  44.1892958  65.9005260
 111.9438257  43.3236408  65.6187391 112.3398166  44.6845293  65.0875473
  37.4558718   0.2413035  87.9510784  37.7197384  -0.4054212  87.2965908
  37.7528573   1.0782958  87.5940418  97.1096041  24.8975902   1.2155742
  96.4339783  25.4997068   1.5273589  97.6320603  25.4187494   0.6059283
  33.5329164  83.8313417  27.7261657  32.9161210  83.5524182  27.0494098
  33.0058790  84.3555360  28.3292312 102.6398649  93.2858849  71.8405867
 103.4487106  93.7014389  71.5417242 102.3748567  92.7254772  71.1112452
   0.5826533  80.9900665  78.0303335  -0.0645300  81.6566181  77.7999163
   0.0617909  80.2333546  78.2992411 108.5402276   8.0812841   8.3641261
 108.5922339   8.9609724   7.9904002 107.6209118   7.9797559   8.6106700
  21.9780636  58.9452314  81.4694500  22.9030204  58.7024546  81.4276886
  21.7426324  59.1483259  80.5641556 113.3714350  64.0960646  68.5849285
 113.0018502  63.8472700  69.4321203 114.2277743  63.6689711  68.5624647
  88.9866962  66.1381531  51.6996241  88.7836542  66.5664005  52.5312567
  89.4954815  65.3656912  51.9459486   2.7387667  83.9562702  82.4730110
   3.2409370  83.7828732  83.2692528   2.9232499  84.8729515  82.2683620
  28.4324874  76.5492063  15.1513785  29.3865437  76.5885668  15.0846023
  28.1203951  76.8296246  14.2910308  57.9405535  85.9018331   2.4757689
  58.2683541  86.6756992   2.9339236  58.5372342  85.7910757   1.7355460
  11.0920596  85.1330471  92.9364872  10.9751177  84.4548512  93.6017799
  10.8520830  85.9469604  93.3794117  92.2619428  56.5729856  81.3762951
  92.7841701  55.9368658  80.8875656  91.9163885  57.1638060  80.7071495
  83.0916574  34.8402029   3.6955852  83.4951063  34.4936567   4.4914264
  82.9638740  34.0726762   3.1380862  70.1866544 103.2583814   8.5650844
  70.7121719 103.8313441   9.1234607  70.7192839 103.1354766   7.7793235
 111.3735880  51.1730385  83.4262657 111.0754808  51.4906788  82.5739288
 112.2749542  51.4872885  83.4970951  87.3224922  25.0624138  34.5251960
  86.8824991  24.2763477  34.2015571  88.1976619  24.7628599  34.7713298
 113.4692921  80.3150368  93.0281067 113.1496324  80.7255745  93.8315392
 113.6000167  79.3966341  93.2640553  90.5786111  26.9050699  29.0427321
  91.2979891  26.2736326  29.0389461  90.7373383  27.4443441  29.8174685
   5.3169513  35.7813692  94.7883606   5.4347110  35.5192399  95.7014084
   6.1835647  36.0782385  94.5107269  73.1047287  61.0606623  67.7994919
  72.2815218  60.5994225  67.6388073  73.7514677  60.5850363  67.2782040
  32.4837388   6.6879130  84.1139603  32.5652934   6.2977744  83.2436848
  32.0072759   7.5049067  83.9664841  12.1260071  76.2130117  84.1864586
  11.5938103  76.7491436  83.5986137  12.9506505  76.0888052  83.7166023
  41.7014517 102.1738105  25.6469172  41.4726774 103.0256228  26.0188216
  40.9295389 101.6295247  25.8022708   5.8314562  58.9279222  73.9150858
   6.6961229  59.0384769  74.3105078   5.3696042  58.3374691  74.5103025
   0.6863863  57.8564167  79.8534632   0.5299819  58.5682011  79.2328691
   0.9628508  58.2961035  80.6575012  48.4881796  84.6171598   9.4596499
  48.6104591  84.5714955   8.5113925  47.5565119  84.8057299   9.5722026
  16.2219012  93.9779472  73.1837988  16.9841671  93.4457302  73.4116745
  15.4941642  93.3565712  73.1608200 109.1011300  69.9194860  70.7145214
 109.1083916  69.1066313  70.2091026 108.5786351  69.7147083  71.4899588
  98.0852201   5.9143453  28.5764903  98.7799289   5.5025917  28.0626124
  97.7936818   5.2289348  29.1776961   6.2665975  75.8641386  64.3106985
   6.6957039  75.0097942  64.2638683   5.3446227  75.6607723  64.4682932
  91.3291683  74.4930077  32.8731847  91.5771856  75.2355623  33.4239411
  91.9468488  73.8015413  33.1110358  25.7211937  99.8912578   0.5094832
  25.4880310  99.3157535   1.2379474  26.1305333  99.3111615  -0.1325112
 100.1983406   8.4575849   1.5086764  99.5496395   8.2894998   2.1921653
  99.8041680   8.1026846   0.7118625  95.5973830  37.3685556  23.6016768
  96.1912920  36.6227728  23.5161418  95.8216610  37.9389005  22.8663939
  27.4561858  70.8154440  65.0227976  26.7514777  70.2134132  64.7836733
  27.2301435  71.1104918  65.9048891   9.3533444  58.5801649  58.0822182
   8.6574227  58.1248713  57.6082659   9.2498398  58.2963943  58.9905119
  38.0913377  51.0496616  84.0013981  38.8707137  50.5874586  84.3098927
  38.0748653  50.8882666  83.0580425  94.0647688  67.0455170  61.4077091
  93.4555115  67.4562836  62.0211506  93.8745751  66.1095905  61.4717960
  92.1991744  12.1103006   5.9611529  92.3333850  12.6741033   6.7229575
  92.9245176  11.4865785   5.9940356 114.8784109  70.5872440  87.1200848
 114.0558820  70.1171541  87.2567940 115.0837589  70.9644222  87.9755402
  29.1690935  97.5318723   0.2631015  29.8023952  98.1369929   0.6490916
  28.4022022  97.5922685   0.8327216  17.3670900  75.5586386  92.6989174
  16.8334651  75.4663181  91.9096375  18.2672989  75.4450035  92.3940468
  75.6144216   9.4466072  21.3069076  75.4964491   8.6024624  21.7424983
  75.8850990  10.0413137  22.0063991 101.0674479  86.7094612  93.0121708
 101.0197546  87.6641273  92.9615116 100.1869621  86.4130974  92.7816486
  13.1000912  83.0705166  83.3679104  13.9298069  82.8046513  83.7642956
  12.4303830  82.6942539  83.9390087  65.5764856  11.5482526   1.8890780
  65.1316967  10.7013469   1.8551749  66.4135148  11.3969284   1.4500922
  46.4210648 108.6484580   3.8814563  46.9513304 108.0815320   3.3214110
  47.0051773 108.8886552   4.6007270  97.7142968  59.4590759  88.8868141
  97.1677067  59.0973043  88.1892490  98.5602703  59.0246868  88.7778759
   4.8045364  42.5554037  81.7166138   5.1908255  41.6878939  81.8367577
   3.8752177  42.3846626  81.5634918 104.1831758  30.2840048  22.2358150
 103.7784698  30.8398157  21.5698451 103.7073686  30.4893594  23.0405921
 113.8516548  23.0909401   0.4615611 113.1935742  22.3961168   0.4420203
 113.7404563  23.5496383  -0.3711778  12.9841864  67.6542091  80.3319359
  12.0799232  67.3408794  80.3129005  13.1554151  67.8356028  81.2560654
 112.3780610  64.9911981   7.5551242 113.2360985  64.5874792   7.6855773
 112.0545270  64.6080023   6.7398185  10.0119853  75.4481936  77.4197435
  10.0692213  75.9387541  78.2396841  10.0704503  74.5303917  77.6851654
  86.8975773   1.5624338  14.0271586  86.5327051   1.5788179  13.1423873
  86.4961978   0.7964998  14.4376201   3.6383584  50.1637220  93.9555073
   3.4304833  49.4203091  94.5215130   4.4324064  49.8972797  93.4921265
 108.0312827  20.7344442  20.7398719 107.2667935  20.2678972  21.0776919
 107.8176668  20.9127145  19.8240012  35.3937244  88.5748768  94.2119694
  34.8655200  88.1003475  93.5700607  35.6977320  89.3525982  93.7440300
 105.6680777  50.5878931  16.9463366 106.1351564  49.7684007  17.1091193
 105.0643780  50.3818041  16.2326735  83.0939974   0.0065757  59.5225906
  83.8235916   0.4410220  59.0808058  82.3130764   0.4392577  59.1773701
  42.4377012  65.7480955  86.8511677  41.8911171  66.5295458  86.7685795
  42.5137711  65.4134893  85.9575844  36.0627627 104.5023632  50.7009888
  36.6665316 104.8491287  51.3578367  36.4272308 103.6485672  50.4676771
  76.8274270  45.7583528  24.0915889  76.6240396  45.0503069  23.4804172
  77.2931801  45.3289610  24.8091716  34.2119050  76.9724417  85.1864052
  34.2787123  77.7921534  85.6761360  33.3147907  76.6751719  85.3382206
  42.3520448   2.9976993  15.6487102  42.0875122   2.1148401  15.9072036
  42.6086881   3.4204345  16.4682597  74.6417322  78.6433506  81.2819195
  74.9866523  79.4491100  80.8971786  73.8071766  78.9025688  81.6725063
  10.7355785  78.2311058  82.5802326   9.8529553  78.3342028  82.9360104
  10.6614339  78.5158825  81.6693878 108.7140944  55.9558868  94.3072796
 107.9976203  55.6909323  94.8840809 108.3538135  56.6795540  93.7947083
   8.0312908 103.6332607  86.2942314   8.1900781 104.5557976  86.0943699
   7.7481157 103.2533169  85.4625511   6.5476930  15.0861412   1.6306132
   5.7869470  14.5988422   1.3143271   7.1688593  14.4104820   1.9024009
  99.0104189  64.4646406  91.6221428  98.4937765  64.2182779  90.8549309
  98.5649635  64.0422487  92.3565769  34.5237970  79.6492863  66.1894035
  34.6990275  78.7427521  65.9369612  35.2832389  79.9029112  66.7139530
  74.3398791  12.2308069  25.1817245  74.1574263  13.1174856  25.4927558
  73.6935487  12.0812994  24.4916934  76.2717355  20.2173281  79.4713020
  75.7915963  20.0021220  80.2709198  76.5036977  19.3681670  79.0953350
   0.7979743  51.4331865  78.1076002   0.7639731  51.7820263  78.9983225
   0.0685151  50.8149099  78.0645084  20.1594543  85.2857685  84.8351002
  19.4164419  85.8522701  84.6271706  19.7928631  84.4015598  84.8386288
  90.8518018  76.7817545  81.8654442  90.3565373  76.2471533  81.2448406
  91.5632310  76.2120390  82.1578884  99.4283655  25.5194193  10.3867358
  98.5109117  25.3883653  10.6261939  99.4148495  25.6253534   9.4355124
  86.9825759  51.1820894   0.0627822  87.7732649  51.5102583   0.4909724
  86.4054193  51.9438368   0.0093192 103.4956195   1.6497617  36.9083423
 102.6782992   1.1599689  36.9995898 103.9892104   1.4419895  37.7017039
  48.7388260   6.0650683  75.5352879  48.2925148   6.4791346  76.2739277
  49.2645062   6.7659140  75.1496601  85.3520104  54.2364889   7.5739402
  84.8049005  54.4708734   8.3235854  85.6571838  55.0754171   7.2285384
 107.6863953  66.2836599  64.6985865 106.7645003  66.0658121  64.5611715
 108.1412806  65.4429770  64.6479845  15.8770573  74.9182796  67.4683189
  15.9194744  74.7815514  68.4147549  16.6106796  75.5028057  67.2776461
  46.3526804 105.8090215  43.5004539  46.9452764 105.2316527  43.9818114
  45.5204548 105.3364854  43.4819335  59.1911067 100.0809913   3.5536498
  59.5633377 100.7995276   3.0423945  58.4865047  99.7365098   3.0049247
  23.6926627  64.4556761  64.5123863  23.3352876  64.5494843  63.6293745
  22.9982734  64.7775316  65.0872517  82.9334285  46.8774419   0.3263873
  83.1794437  47.7172571  -0.0614530  83.5221972  46.2431245  -0.0825482
 114.5292803  67.9044533  88.9986134 114.3669631  67.6972246  88.0783176
 115.4127297  68.2727480  89.0089798  85.0829639   0.4295164  10.9670085
  85.0108721  -0.1210446  11.7466945  84.4166096   0.0884014  10.3704757
  21.5630078  85.6020737  78.9876556  22.1990633  84.8929024  79.0811348
  20.9544778  85.4755116  79.7156048  25.1514435  46.0292625  76.8259716
  25.0130177  45.2489853  77.3628521  24.4368482  46.0118246  76.1893559
  10.8937383  71.3192987  78.5786247  10.3409624  71.8062449  77.9674387
  11.1789060  71.9732237  79.2168188  97.2856607  80.1818371  87.1918011
  96.7528774  80.9719467  87.2817707  97.9352095  80.2499866  87.8915691
  70.1394834  91.5776730  84.7242832  69.5046510  90.8619118  84.7544765
  69.6047296  92.3707867  84.6890450  12.3160350  78.5259867  68.7251043
  12.0470929  77.6611137  69.0347767  12.9420948  78.3453274  68.0239296
  19.0031660  48.5627890  81.5909004  18.0552137  48.6541176  81.4945793
  19.2959177  48.2065010  80.7520962  92.3300757  42.1845155   9.8237723
  92.4366000  42.4862962   8.9216536  93.0615630  42.5810915  10.2969378
  76.6975409  35.3291040  34.4073981  76.1003072  35.9351354  33.9689177
  76.4496446  34.4662481  34.0753478 103.3759191  81.6221142  68.1998491
 102.9353609  81.1645889  68.9159584 102.6809730  82.1218872  67.7714682
 114.4159708  94.6754551  91.1371899 115.0946908  94.0163898  91.2828064
 114.7512661  95.2095032  90.4170513   5.6459397  71.1759806  42.2140932
   5.8841479  71.2150669  41.2878323   4.6909183  71.2403631  42.2187185
  57.7845335  66.5376663  85.2754688  57.7616453  65.6096983  85.5090904
  58.6462831  66.6634560  84.8782253 109.3266853  70.1979446  87.4102497
 108.5977199  69.5794106  87.4577236 109.5443650  70.3821850  88.3239841
 105.1365068 104.9833202  71.5714979 105.2939882 105.0553226  72.5129032
 106.0101821 104.9977875  71.1807108   6.7621506   0.4495674  13.0113811
   6.2509716  -0.3596587  13.0022162   6.6086090   0.8200269  13.8805217
  33.9292944  30.9455877  30.3420466  34.0543306  30.9734731  31.2906283
  33.6769569  30.0403219  30.1602286  61.2082399 106.7191653   8.3563155
  61.0962905 106.7896228   9.3043345  62.1322120 106.4978414   8.2400435
  32.6698232  72.0834970  71.3073683  33.1967926  72.7736092  70.9045315
  33.2942891  71.5784216  71.8281126  19.4230974  84.3700600  93.3803463
  18.9835262  85.1536369  93.7105370  20.3083158  84.6644211  93.1659317
  59.3176188  25.5953413   0.2155894  59.5602956  26.4465814   0.5799121
  58.5163178  25.7662779  -0.2793103  31.0036421  96.5156651  87.0377922
  31.0901284  95.7215214  86.5104580  30.0690508  96.5700912  87.2373104
  46.7569621 108.2275348  12.8835887  47.0335377 108.6115270  13.7156219
  46.0186864 107.6634507  13.1137771 105.3898671  34.2943960  19.8237246
 104.9211886  33.8068109  19.1463489 104.8305991  34.2270475  20.5976218
   4.4815576  66.8392324  79.2114210   5.0059938  66.4224148  79.8951292
   4.9367294  66.6258240  78.3968639  34.4397206 100.5178313   1.5939445
  35.0991474 100.8740525   2.1893329  33.6073471 100.6636863   2.0435065
 102.4510016  77.1511984  93.5470963 103.0504026  77.8956270  93.4944344
 101.9523873  77.3015213  94.3502235  83.0275240  83.5583019  94.7443485
  83.8684930  83.9997292  94.6254253  82.9582586  82.9686260  93.9935398
  20.8232905  19.7431899  80.6702805  20.0214769  20.0361109  81.1033249
  20.5179096  19.2545558  79.9059439  89.1051521  47.9998308  33.2747764
  89.9502399  47.9287630  33.7186355  89.0612557  47.2228628  32.7174300
  82.6552971  34.6899229  23.5861415  82.7009573  35.0919538  22.7186603
  83.4719446  34.1968542  23.6648959  67.2141292  42.9334932  39.1934890
  68.1301322  43.1871610  39.0802402  66.7811050  43.7302213  39.4999999
   6.1114353  55.4986143  74.7410917   6.9710493  55.4833412  74.3203020
   5.7232159  54.6511364  74.5236015 111.5646508  21.2327820  27.7297801
 112.1524432  21.2824112  26.9759387 111.9362619  20.5418401  28.2781714
  84.9806692  55.2574545   2.5156516  84.2608609  54.9944883   3.0892009
  85.4840484  55.8843618   3.0350989  70.4594483  11.6590076  11.5412730
  70.7353737  10.7427507  11.5174502  70.3191193  11.8908363  10.6232375
  93.7167539  35.9984976   2.5469417  93.2268586  35.6649786   3.2985991
  93.3158650  35.5701643   1.7906016 103.6447265  62.7927542  80.5130959
 103.4206917  63.2073212  79.6799231 103.0690851  63.2129049  81.1521053
   7.3874939  46.6221529  11.7181796   7.6852930  45.7345110  11.9172687
   6.4395702  46.5914255  11.8475169  19.8342431  75.1667356  91.6800976
  20.3582835  75.8259869  92.1350670  19.9412739  75.3744936  90.7518673
 110.2879217  14.2576175  18.1428164 109.7833660  14.2916780  18.9555186
 109.7586920  13.7188106  17.5547427  72.2954413   6.7133146   2.8614539
  72.0176216   6.5161377   3.7559813  73.2021108   7.0067173   2.9514235
  97.7039339  40.9278017  33.4427470  97.6438644  41.8367582  33.7367076
  96.9007852  40.5184084  33.7645930  63.4745064  33.2411390   2.6489181
  62.6304653  33.3993631   3.0717582  63.7464895  32.3818403   2.9711932
  31.8839772   3.2782698  69.4336939  32.5250305   3.5736895  68.7871599
  31.0901834   3.1120349  68.9252710 114.9850429  67.1034336  52.7179575
 115.7756862  66.6653347  53.0328989 114.2651031  66.5740395  53.0609751
 107.2693475  83.4845543  88.4081841 106.9723405  84.0272522  89.1385841
 106.5660896  83.5471153  87.7618504  20.8441687  43.9949751  83.8336277
  21.6364408  43.4634638  83.7559509  21.0267854  44.5925426  84.5587540
 104.1599634  17.1953207  42.6808089 104.8473599  16.5491348  42.5190562
 103.4276345  16.6846615  43.0260009   7.6275140  69.6842718  55.2658415
   7.5490427  69.0497732  55.9782171   8.3861828  69.3875074  54.7632647
 106.7927488  80.5962086  57.8604746 107.1221687  79.8173285  58.3088732
 105.9079876  80.3572845  57.5841665  17.4389648  78.2473898  93.6850643
  17.3847115  77.3886633  93.2656860  18.2056916  78.1876040  94.2549706
  99.9009468  93.4018517  93.8236904 100.2233173  93.8668251  93.0516148
  99.0248170  93.1059265  93.5765934  73.5829582  36.7019563  14.8070449
  73.2671838  36.5257078  15.6933040  73.8967957  37.6056486  14.8398894
  48.1611061  67.0850420  94.7902679  47.4851179  66.6961908  94.2352295
  48.4407663  66.3709164  95.3630257 107.3334773  78.6243963  80.1093388
 107.4939593  79.5443726  80.3193951 107.9401984  78.4326315  79.3942499
 112.8268721  24.6912103   6.8979091 112.1224835  24.2927080   6.3867682
 113.2772782  25.2651601   6.2782783 103.1212118  38.3133512  14.5096892
 103.6307909  38.9496141  15.0114078 102.7735689  38.8136392  13.7713832
  80.0967018  19.3846565   1.9889468  80.0077546  19.1082149   2.9010314
  80.4976689  20.2523428   2.0396728  64.2979934  29.2343813  29.2510432
  64.2386618  30.0306612  28.7231845  64.4427409  28.5348707  28.6138839
 111.5412485  86.4551735  86.9979000 111.1228051  85.5955410  87.0444107
 111.0524907  86.9934654  87.6204681  39.4872262  31.1925035  11.2779159
  38.7414839  31.7250162  11.5545672  39.9909761  31.7669874  10.7013434
  13.2846010   1.1954456  12.4295634  13.2209718   2.0847326  12.7779216
  13.9077223   1.2655311  11.7063445  13.6679506  71.3522291  55.3465843
  14.1451097  70.5532646  55.5706549  12.8745830  71.0427809  54.9095011
 114.1082218  15.0375133  10.4990119 114.5948317  15.8555561  10.3977794
 113.7344148  14.8724991   9.6334094 106.8460264  26.6986465  92.8777409
 107.4761977  26.4255667  93.5444736 106.7366364  25.9274364  92.3214054
 116.3252317  61.6723108  81.2933159 116.5075375  61.6326189  80.3544807
 115.8716084  62.5064945  81.4141655  26.2877750  74.3799210  84.2094040
  26.0346031  74.3949604  83.2864189  26.7620850  75.2008486  84.3410683
 113.8970330   9.0247064   6.1224288 114.6607568   8.4518533   6.0531920
 113.6042097   8.9250427   7.0282668 106.1112072  11.1638313   8.4296054
 105.5028131  11.6426330   7.8667182 106.0477855  11.6020637   9.2782229
  89.4153883   6.6865354   8.2232875  88.6451509   7.0315939   7.7717322
  90.1349189   6.8211513   7.6065272  18.4598398  51.6103029  57.2575951
  18.2252014  50.9672070  57.9266262  19.0513802  51.1398888  56.6702080
  23.1628299  90.9105778  94.0157795  23.2130599  90.8752060  93.0605602
  23.9214659  91.4328957  94.2763424  12.3312879  89.2343521  92.1949005
  12.0238054  90.1408195  92.1930027  12.5321412  89.0476418  91.2778282
   1.1844909  28.1504541   0.0449103   2.0878732  28.0802446  -0.2636224
   1.0903299  29.0672022   0.3036612  65.1640489   8.3014112  21.3389319
  65.7094219   8.1494003  20.5671138  65.6220617   8.9874845  21.8244857
  11.3787794  57.8144598  74.0074873  11.8175471  58.4363461  74.5879793
  10.7074475  58.3331919  73.5642481  91.3483670   8.6666589   3.6594886
  90.4397991   8.9352279   3.5230750  91.7986658   8.9284998   2.8564280
 105.5842640  21.1801630   2.0046157 104.9089386  21.5586811   1.4416903
 105.4506566  20.2347856   1.9364852  85.0881603  56.7144685  28.6663932
  84.9240538  55.8322435  28.3332652  84.2161980  57.0829969  28.8081759
  95.0692084   5.6964594  18.0437201  94.6396651   4.9298435  18.4232253
  94.7673132   5.7150942  17.1355647  24.4888020  78.7801266  87.8302097
  24.0815878  78.8831043  86.9700909  25.1929998  79.4283676  87.8409767
  32.3613813   1.2933641  24.8792857  32.1666744   2.0930677  25.3679580
  33.1977680   0.9930092  25.2349109  16.1935413  82.5275045   3.1335563
  16.8345011  82.9960542   3.6682242  16.0152424  83.1176668   2.4013347
 114.8284008   1.1087948   1.4376849 115.0778940   1.8982225   1.9180888
 114.7804215   0.4262167   2.1070308  37.5733519 107.3371506  87.3781967
  37.0747685 107.1097565  86.5933800  37.0746708 108.0478859  87.7811909
  14.2052639  76.5803438  14.1211337  15.1384104  76.6196733  13.9115352
  14.1445244  75.9322744  14.8229426  90.2130499  27.9018121   4.4435519
  90.6545498  28.7336546   4.6148414  90.0242474  27.9196077   3.5053271
 111.7618635  54.0140348  16.0137385 112.0799615  54.2061811  15.1316279
 112.3863604  54.4497305  16.5937442 109.3928482  64.2400938  26.0289973
 110.3272655  64.3864637  25.8817786 109.3169238  64.1090780  26.9741458
   6.0943103  75.3830433  79.1998386   6.5321255  76.0337400  79.7486067
   5.4080677  75.0201559  79.7598505  45.2596045  78.4580898  84.6606445
  46.1149931  78.1454277  84.3660545  44.7315168  77.6645088  84.7477531
 112.8404667  12.3652988  39.8804587 112.0584967  11.8864017  40.1550693
 113.5060527  12.1273332  40.5259055  88.0021717  19.1563039  12.8577250
  88.5042908  18.3833938  13.1160182  88.2324448  19.8198467  13.5080546
  18.6030185  64.7375971  13.9706820  18.8474500  65.1819044  13.1588382
  17.7968204  65.1725298  14.2483729  25.2547288  68.6383295  66.7910957
  25.1114678  68.6695814  65.8451939  25.4430318  67.7179384  66.9745398
  91.4454427  30.1102262   5.5002803  92.3095705  30.4922777   5.6537551
  90.8557083  30.6213861   6.0545081   1.2198484  61.4504724   2.3486346
   0.9681952  60.6627947   1.8664950   0.8182299  62.1689325   1.8600100
 100.6886365  37.3330312   6.9381827  99.8114779  37.6939016   7.0670337
 101.1265280  37.9654985   6.3685531   1.1173683  44.9348593  82.8058052
   1.7961293  44.7951365  82.1455002   0.8582326  45.8493996  82.6931000
  29.7072983  83.7388325  83.4809971  30.2037764  83.9045334  84.2824268
  29.6384072  84.5959091  83.0603981  88.1483188  14.5053964  24.2554492
  87.4991455  13.9410978  24.6754188  87.6643100  15.2993065  24.0281314
  87.9966034  30.1943064  89.0064812  87.7686418  31.0947657  89.2376804
  87.1548284  29.7677661  88.8461590  22.2747970  64.8334742  69.4314098
  21.6053653  65.4065275  69.8051786  23.0943894  65.3135204  69.5499563
 116.2489655  21.9932323   4.1889495 117.1374967  22.0585256   3.8389796
 115.7593562  22.6744943   3.7280768 114.2688873  30.3838163  39.4815082
 114.1428258  31.3022142  39.2429847 114.2615154  30.3817659  40.4386729
  82.4881037  22.4518924   6.4224452  83.3018901  22.0205551   6.1618060
  82.7388933  23.0132633   7.1560687  54.3111147   5.7612086  87.3900986
  54.6863450   6.5932227  87.1016693  53.5443164   6.0103274  87.9060364
  79.6604780  32.9619795   7.8979701  79.4484005  33.8804632   7.7317256
  79.4779975  32.5201326   7.0686835   1.0138524  15.4757744  14.4520492
   0.2551639  16.0354953  14.6173877   0.6574524  14.7219282  13.9820117
   8.7814629  97.0894814  90.1132965   8.6246544  96.1803436  89.8581314
   8.6069363  97.1076488  91.0542774  69.2696370  10.1545191  91.1262608
  69.4168771   9.2088176  91.1123085  69.9166359  10.5067015  90.5150318
  37.6201153  86.8850899  94.8253250  36.9402385  87.5414944  94.6732426
  38.0363822  86.7690945  93.9712143  25.6315970  99.1772461  93.7688637
  25.7566619  99.6049881  94.6159935  24.8220515  98.6767101  93.8704872
  75.6047640   1.0553985   7.4700088  76.1274817   0.2535349   7.4739379
  74.7697067   0.7950454   7.0812625   6.1077428  78.7204027  68.5684967
   7.0517755  78.8330221  68.4573603   5.9527254  78.8993788  69.4959497
   4.5537758  64.9192667  71.8942595   4.7617400  64.7890759  70.9690380
   3.6389029  64.6494198  71.9743824 101.8134072  21.0826021  17.9337615
 101.0455253  20.5161482  18.0093879 101.8147089  21.5936332  18.7431258
 101.8192460  67.3957735  10.4342860 101.0980251  67.9186159  10.0839919
 102.6080563  67.8149515  10.0903434  44.7933722 101.7763901  86.0312748
  43.9271402 101.8263912  85.6270695  45.3839922 101.5691566  85.3070831
 101.6886928  41.9566255   3.6069793 101.0917046  41.6624170   2.9190272
 101.1627581  42.5504976   4.1426486 101.1217263  34.2392545  19.0741557
 101.8739989  34.6575170  18.6553782 101.4555790  33.9360052  19.9184340
  42.7495337  93.0873489  77.3491287  43.6525869  92.7717781  77.3828983
  42.2916651  92.5749016  78.0154514  31.4484460   6.0127116  81.5970135
  31.9014980   5.9804869  80.7544422  30.5334295   5.8292628  81.3841248
  86.6159185  48.4319215  30.3973502  86.8662091  48.6765009  31.2882918
  85.7194867  48.7541300  30.3034133  75.4419335  35.1894098  13.4743136
  74.9158236  35.8125597  13.9754313  75.2791639  35.4196745  12.5595874
  27.1191716  83.1135178  84.8704147  27.1966481  82.3717499  85.4704094
  28.0231524  83.3733177  84.6927643  86.4894833  61.8617392  80.1189899
  85.9472265  62.3241806  79.4799757  86.2929549  60.9361172  79.9746752
   3.1254280  53.9754778   1.4485663   3.0048216  54.2469030   2.3585242
   4.0257919  53.6525827   1.4122695  90.6863513  48.9440351  10.4778117
  91.1900988  49.7511678  10.3728694  90.7013585  48.7730604  11.4194983
  84.8447647  88.3095270  24.6809215  85.0563260  87.8198915  25.4757422
  85.4211953  89.0731626  24.7094745  51.1289313  24.9607282   9.3832225
  51.9472530  24.8089653   9.8560351  51.2242916  25.8392244   9.0152759
  68.9400209   4.2691851  89.0879917  68.2539190   4.6933890  89.6033096
  68.5562504   4.1658641  88.2172012  33.7830627  41.3301855   2.1329898
  34.6816290  41.6585928   2.1020526  33.8747108  40.3780275   2.0978660
  11.0436714  37.2299677  21.5388602  10.7432020  36.5649515  22.1583003
  11.9447077  36.9785886  21.3359374  31.2774587  84.3965626  85.7097435
  32.1345568  83.9828205  85.6076241  31.4755630  85.3027630  85.9459591
  73.9300635  23.8771778  10.6999892  74.5749470  24.3178611  10.1466769
  74.4264310  23.1913334  11.1466044  12.8052676  93.6588573  79.2599010
  13.4960294  94.2260170  78.9172554  13.0333745  93.5332966  80.1810074
  16.2970102  79.6392446   0.5553454  16.7226732  79.7191339   1.4089602
  16.7341650  78.8968378   0.1382655  59.2487730 109.3509107  26.2463492
  58.6816586 109.0365415  25.5422324  60.1090778 108.9838653  26.0429210
  91.3429418  42.4908643   2.1575946  92.2224238  42.1888834   2.3846263
  91.3333788  42.5026613   1.2005156  99.3114426   7.0339971  12.4028510
  99.4742277   6.1698681  12.0246715  98.4750154   7.3067766  12.0257396
  79.6933685  20.8756977  24.0734405  80.1133443  20.0221592  23.9670295
  79.3555226  21.0865789  23.2030314 109.2372300  76.2608147  91.2337971
 108.8295307  77.0002556  90.7829762 110.0314643  76.0817909  90.7304287
   1.4723106  78.0448389  88.0857849   0.9275323  78.2441664  87.3243999
   0.8469892  77.8896332  88.7936878   6.5645397  68.4201288  89.7441959
   7.4722624  68.1919956  89.5436287   6.5786517  69.3686152  89.8722744
  13.7795353  92.2559929  83.8394928  14.2914176  91.4713287  84.0357399
  14.2079711  92.9522133  84.3374538  14.0331507  89.6670628  79.8756981
  13.6107862  90.0366116  80.6511211  14.9068666  89.4161510  80.1755238
  71.6977241  38.5832315  12.4895781  71.4790019  39.0895658  13.2718963
  72.5316998  38.9480501  12.1935672   1.2419975  28.7854105  33.6800784
   2.0999086  29.2099291  33.6782950   0.6351841  29.4728285  33.9547938
  65.2198245  62.4289804  34.3874186  66.0875561  62.0253759  34.3680591
  65.2687170  63.1331354  33.7408751  23.1620860  99.3620872  83.9121151
  22.7160740  99.9175835  83.2727909  22.7470255  98.5049820  83.8155556
  57.1412230  99.0221786  72.5600910  56.9510794  98.2558727  73.1012440
  57.9836893  98.8236618  72.1513414 108.9069506  85.1135540  57.7181005
 108.3996012  85.6287098  57.0908499 108.6650672  84.2059326  57.5338268
  28.7780809  84.9981403  87.0912838  27.8471375  84.7914696  87.1741390
  29.1602826  84.2217636  86.6821384 114.9855997  44.2598253  26.7854613
 114.8284533  44.9117189  26.1024016 114.1578843  43.7845712  26.8579596
  26.6014934  58.8334084  72.3941135  25.7679033  58.3629894  72.4022770
  26.3576317  59.7544765  72.4857616  78.8227698  39.1738134   8.6650390
  79.1782651  38.9020544   7.8188724  79.5857512  39.4699579   9.1614169
   8.8892359  86.7062187  87.8195953   8.8554764  87.5254250  87.3256397
   9.8043865  86.6262436  88.0885506  68.4192326  43.4143358   1.7107886
  68.9718457  44.0159708   2.2096652  68.5888173  42.5558477   2.0986957
  92.2629549  34.0350156   4.0559691  91.7147543  34.0481954   4.8405284
  92.6263919  33.1498056   4.0325755 109.9851348  45.5652719  11.4114875
 110.6813886  45.2086263  11.9630927 110.1006677  45.1284795  10.5676288
  46.8611004  41.8813806  14.5912475  47.5579240  41.6161161  13.9909953
  47.0369222  41.3907533  15.3941173  93.3272757  39.3554407  32.4387282
  93.3103635  40.2583032  32.1212596  93.4806301  38.8285928  31.6544074
  24.6538198  82.6028925  18.2246608  25.0926578  82.0667940  18.8851470
  25.1082742  83.4446436  18.2588309 108.1379821  34.5242792   3.2605666
 107.5350025  35.0588136   3.7772101 108.3212283  33.7659841   3.8152331
  97.5994815  93.0525684  91.8596649  96.9203748  92.5776482  91.3806152
  97.1197428  93.6993694  92.3770905   4.9960244  95.8175182  83.7245178
   5.2300179  96.7351055  83.8641739   5.7817817  95.3297424  83.9712715
   5.0575245  94.0586763  22.6815814   4.3557728  93.9234930  22.0447940
   4.7750986  93.5722643  23.4560985  87.9605403  40.2076917  25.3967685
  87.1353378  39.8688608  25.0496882  88.5367443  39.4441896  25.4327029
 114.1625001  64.3040758  26.7024440 114.7688320  64.9290472  26.3049525
 114.3395402  64.3626028  27.6412982  80.4616701  38.1855207  33.1998843
  80.5144655  38.6245924  34.0488070  79.8875093  38.7445646  32.6763934
 112.1947371  79.3826103  73.1696033 112.9180475  79.0165901  73.6786032
 112.3653271  79.0976477  72.2718668  28.5619283  96.4794254  65.5846548
  29.5053267  96.3350010  65.5113554  28.3041954  95.9875965  66.3643408
  28.3722711  79.6084976  71.9627333  27.9869008  78.9275360  71.4113617
  29.1302109  79.1876745  72.3685217 107.3221376  34.3305307  17.7555770
 108.1209304  34.2572981  18.2778758 106.8020394  34.9963957  18.2054252
   5.8183026  77.5362492  86.1654568   6.4077872  76.7876053  86.0744953
   5.3144324  77.3494816  86.9575882 101.5251949  40.0770574  12.5665301
 100.8261850  40.4422384  13.1089801 101.0784175  39.4690900  11.9774646
 100.9716322  17.0805889  35.2009696 101.2067249  17.8534799  35.7143897
 100.1677396  17.3309427  34.7456569  99.6451332  42.9450041   1.9556064
  99.1054561  43.5987478   1.5110797  99.3607952  42.1087557   1.5867251
  93.5714652  40.9310919  21.1992854  93.6624756  41.6633325  21.8090171
  94.3770637  40.4260355  21.3095778 105.4807546  27.9444605  11.8155593
 105.5852463  28.2882887  12.7027434 104.9292185  28.5890775  11.3722724
   7.8152257  62.3338795  74.6611309   8.1603998  62.9597330  75.2978373
   7.9952025  61.4763308  75.0464201  53.5473707  34.8891836   3.0448932
  54.3499043  34.6107774   2.6036853  53.3077290  34.1455274   3.5978621
 111.6783371  93.1567764  90.4985905 111.7864653  92.2511959  90.2079773
 111.1519714  93.5672665  89.8125362  24.9266660  30.1902490   0.5080623
  24.5700681  29.8222356   1.3165397  24.1637075  30.5377680   0.0461596
  17.2313965  57.4342828  12.4001521  16.6494882  58.1662946  12.1957702
  17.2221649  57.3805910  13.3558005  15.2865946  96.2411404  72.1168947
  15.5754888  95.3805733  72.4205351  15.8606076  96.8596745  72.5687361
  95.3335073  45.5717378  11.6055030  95.1424696  45.4595094  12.5367087
  94.5418408  45.9711843  11.2450427 106.1228230  74.1302972  21.2092418
 105.8995368  74.8663049  20.6394404 107.0166209  74.3138796  21.4984721
  11.4826393  79.1730309  73.3015966  11.8529439  78.6736631  74.0294266
  10.6215310  78.7812376  73.1559086  22.4540305  84.5712471  81.4157963
  22.4067354  85.2861118  82.0505905  21.5730643  84.1969395  81.4105225
   0.2425904  84.1793919  91.2362099   1.1666922  83.9440441  91.3191414
   0.1103957  84.3032551  90.2963066 111.3805416   8.5460525  12.6079768
 111.3507607   8.7728506  13.5374373 112.2994759   8.3356386  12.4420947
  43.5719776  62.3389053  95.1257515  44.4690323  62.4702930  94.8187256
  43.0250597  62.5841951  94.3794632 105.4216435  54.0161901   9.7904510
 105.7473209  54.8988348   9.9667758 106.1898806  53.4535413   9.8877830
  14.8713303  86.7471027  50.3178692  15.3026831  86.2309647  50.9988737
  14.0327251  86.3070393  50.1788712  82.7718069  11.8589979  33.7562388
  82.6530208  10.9418445  33.5093421  83.1307515  11.8237978  34.6428889
  99.6226241  37.0223623  24.2361182  99.7686913  36.6370779  25.1000899
 100.4852679  37.0144087  23.8213653   6.9120836 103.2409286  75.3286314
   6.8756151 104.1229057  74.9584675   6.2385046 103.2385635  76.0087156
  96.6252246  80.2292066  13.2708186  96.9653668  80.4125887  12.3950881
  96.5878942  81.0852915  13.6973876  44.7763824 108.2227612  92.1675205
  44.3656111 109.0771866  92.0354176  44.3388844 107.8634453  92.9393482
 112.6592283  98.6491394  77.1220112 112.3737862  97.7431774  77.0037365
 112.6722356  98.7742233  78.0709124  66.0490717   2.0675040  85.3422546
  65.7318033   1.3406993  84.8062325  67.0027555   1.9954062  85.3032494
  56.7324711  99.1630797  32.0393199  55.8331240  99.3770843  31.7911071
  57.2183527  99.1773086  31.2147254 105.2565052  31.3519006  29.8084182
 105.7036879  30.5124479  29.9160117 105.9115102  32.0053774  30.0537223
  16.7799604  58.2728487  25.0698966  16.8293798  59.0000349  24.4494170
  16.3463676  58.6430841  25.8387679   9.4027799  82.3532581  57.1224689
   9.5483106  82.6275730  58.0278969  10.1675832  82.6787281  56.6477299
 113.2698920   5.5424886  21.1342544 113.5961416   5.2310377  20.2899856
 112.6624730   6.2477499  20.9109134  31.9281316  83.2409286  57.0834541
  31.1821771  83.0327892  57.6460028  31.5531421  83.3143425  56.2058306
  58.4658374  16.5784217  74.0336418  58.4990169  17.4082518  73.5577202
  58.2685436  16.8278266  74.9364758  40.8975172  63.8303661  84.7227192
  41.5648079  63.9111423  84.0412235  41.0171127  62.9470444  85.0715256
  31.2967229  64.2733240  85.9274769  31.3771939  64.1919565  84.9771500
  30.5553317  64.8651361  86.0552692  29.2671251  64.2708683  83.2491875
  28.4772873  64.2873287  83.7896729  29.2849803  65.1287460  82.8249741
  10.3940857  32.3318391   9.2783278   9.5900667  32.2358900   8.7678546
  10.5625952  33.2740694   9.2849273 101.1077073  18.1383186   6.1316318
 101.4666011  18.3971697   6.9804114 101.7061212  17.4617296   5.8148307
  53.2573128  92.2431278  66.3974285  53.1805658  92.7334595  65.5789423
  52.3610926  92.1891975  66.7292595  10.6609595  90.4574585  89.8011208
  11.4746988  90.0154114  89.5589256  10.9063530  91.0293293  90.5284309
  16.8851078  55.1220422   9.2230338  16.4557874  54.3570333   8.8400477
  16.2162435  55.5171018   9.7822970 101.5534856  21.4414077   6.8970031
 102.2606494  20.9645801   6.4625091 101.9019582  21.6489797   7.7640170
  14.8660244  13.8797618  80.1464558  15.7539428  14.0502883  79.8321962
  14.6188606  14.6791125  80.6113911  18.6535013  77.7105188  74.2173481
  18.5211325  77.4447536  75.1273394  17.8738856  77.3954630  73.7599945
  10.2163351  82.8267574  94.1199303  10.4705679  82.0624352  94.6370411
   9.6321732  82.4771500  93.4470558  11.3419187  66.4687920  89.1465473
  11.5916061  66.1162567  88.2923698  12.1629345  66.5131235  89.6366501
 116.2265708  52.5929933  28.1946200 116.0561707  52.7781015  29.1181582
 115.4644039  52.9454046  27.7351207   5.5630028  92.4597836  80.6179810
   5.5308968  93.2659721  80.1029491   5.8244497  91.7853355  79.9910879
  57.3087467  14.3122435  91.8791389  57.2889425  13.4793711  92.3504925
  56.7961014  14.1513682  91.0869598  47.0870018 101.5828705  94.2565060
  48.0433273 101.5639877  94.2927742  46.8332767 100.6662846  94.1482449
   2.1806371  83.7121397  15.2941627   1.8417204  84.0884882  16.1063975
   3.1177748  83.6010938  15.4543895  10.5425262  96.5859509  65.1069784
  10.3400004  95.6532001  65.1790380  11.1399317  96.7582512  65.8347511
  90.9866775  25.6702185  92.5822258  90.9491504  25.1229621  91.7978001
  90.0904049  25.6689311  92.9182720  29.2777336  48.6555868  12.6799506
  29.1041076  47.8692918  12.1624297  30.2001369  48.5822302  12.9249495
   5.1269996  71.5637689  10.5424994   5.0712717  72.5119501  10.4237765
   4.2424906  71.3020044  10.7981318   7.6683080  18.5327106   7.3362369
   7.3441065  18.4974676   8.2361716   7.6857603  17.6188570   7.0519847
 110.2529242  73.8442140   2.9498786 110.4506781  73.1434923   3.5712546
 110.9193900  74.5099836   3.1195945  93.7824740  37.9684835  30.2899379
  94.6299400  37.9554659  29.8451156  93.1754699  37.5795274  29.6602553
   5.3780687  40.2455335  17.8498286   6.2835205  39.9362951  17.8222388
   4.8702038  39.5347601  17.4585361  25.3374231  61.3468748   2.9775638
  24.5089662  61.0806471   3.3763331  25.9836996  61.2430196   3.6759681
  86.7826464  65.7563406   1.6740245  87.3075833  65.4480463   2.4126929
  87.2762992  65.4856973   0.8998889  28.4066761  58.2789713  20.0980014
  28.6660517  59.0413099  20.6155032  27.9683483  58.6479097  19.3311995
 102.4271657  63.8597017  14.8677939 102.3798563  64.3510252  15.6879157
 103.3219745  63.5206896  14.8429603  36.9075253   3.2404376  64.2528820
  37.1013461   3.3974601  65.1770067  37.2929306   2.3836470  64.0695477
  10.5805624  19.3816000   8.0621642  10.4968345  18.5361009   7.6213187
  11.5153110  19.5829969   8.0184192  73.5323728  21.1344100  90.0551224
  72.7460111  21.2950946  90.5767059  73.3633460  20.2998687  89.6178436
   9.8584688  78.5291296  19.9055404  10.0665510  79.0744024  19.1468448
  10.4988277  78.7869459  20.5686397  96.0976126  36.2923818  32.5058288
  96.5716805  35.7479959  33.1344241  96.5385523  36.1337381  31.6711730
   1.7146385  10.9457975  14.4926471   2.3368156  10.4086834  14.0021056
   2.2407091  11.6675382  14.8369903  95.9936526  55.7177358  22.0494575
  95.0473382  55.8611303  22.0368308  96.3551810  56.4624792  21.5689582
  24.4004321 101.7204189  61.0292292  24.8188186 102.3793411  61.5833187
  23.9022017 101.1761284  61.6389370  87.8335013  61.0798746  13.2117957
  88.7731042  60.9533697  13.0799979  87.7364149  62.0212274  13.3555716
  84.4229873  37.4182611  30.8773631  84.8741557  37.3622804  31.7197150
  85.1237514  37.3733144  30.2268714  85.7444633  21.1093569  83.0424690
  85.4320015  20.5548526  83.7574005  84.9505151  21.5012980  82.6787949
  40.8975113  92.8884607  16.4830131  41.0280216  93.6969572  15.9875030
  40.9367216  93.1605154  17.3998946   3.2780397  35.8537203   5.3965968
   2.8961504  35.2407175   6.0247916   3.9502704  36.3190561   5.8943862
 103.7088086  47.8793531  19.5831222 103.0168536  48.1873613  20.1684112
 103.7186243  46.9297128  19.7027701  11.7332590  49.3810373   5.1534194
  12.2697866  50.1482778   4.9541110  11.6815794  49.3666273   6.1091060
  11.2584174  80.7055759  71.1318159  10.6919742  80.2460480  70.5119705
  11.3525915  80.0983906  71.8657684  74.0985402  32.1877676   7.7637595
  74.3709653  31.6416937   7.0263213  74.8682129  32.7201658   7.9647368
  14.3777788  74.2417150  25.0877112  13.8988912  74.2846113  25.9153956
  14.3109119  75.1255041  24.7262305  18.6877907  54.1551595   4.2335433
  18.8217056  55.0644689   4.5008487  18.5942400  54.1965872   3.2818240
 102.6263811  16.3180881  16.4948482 101.9235923  16.7472988  16.9827956
 103.1419852  17.0390468  16.1334533  17.2238135  78.6271143  83.4344959
  16.5528572  78.0653811  83.8224411  16.7826056  79.4647598  83.2933426
  11.0863006  94.4132996  91.1928463  10.1943123  94.3042278  90.8631611
  10.9880388  94.9577522  91.9739723  85.9549048  56.6564661  18.8896388
  85.1271942  56.1982446  19.0351027  86.5331789  55.9928423  18.5135669
   0.4811752  51.8973070  11.2730521   0.4786456  52.2160345  12.1756286
  -0.3147280  52.2635275  10.8874911  23.6885357  99.5703793  70.5091667
  24.5131683  99.8522568  70.1132345  23.1243587  99.3617058  69.7645950
  98.8159897  45.2313619  30.7840747  99.0797617  45.6331831  29.9563140
  99.5752504  44.7134882  31.0515899  12.5814855  40.7584959  31.1871356
  12.9118812  40.3500562  31.9872874  13.2658804  41.3780981  30.9342879
  15.9238088  58.7922197  30.1166648  16.6977442  58.3951288  29.7171992
  15.2180612  58.6214929  29.4929618 104.0096786  33.9181524  28.7127131
 103.6752703  33.7071901  29.5844382 103.8507368  33.1273466  28.1973666
   3.4688223  44.7912222   3.0493945   2.7374256  45.2270132   2.6119346
   4.2028559  45.3975111   2.9502124  46.3171339  77.1546268  62.5247049
  46.2353325  77.8956366  63.1250811  46.9939852  76.6026258  62.9163694
   8.4169328  50.7100301   2.2265452   7.6767624  50.6706529   1.6208762
   8.1475866  51.3419443   2.8931540  67.4559927 105.0933838  71.2143183
  67.9285860 104.4925213  71.7903805  66.6079903 105.2168369  71.6407967
  85.9430374   4.2426158  54.1403294  85.3915180   3.6289263  53.6551142
  85.9985460   5.0131655  53.5751677  89.3621029   5.1994467  81.4423466
  88.8095201   5.1108504  80.6657982  89.1411556   4.4399787  81.9814396
 114.3015077  72.1940618  25.5417556 114.8471286  71.8113332  24.8547000
 114.1588881  71.4781767  26.1609572  85.3087338  62.0682436   2.1687907
  85.3138014  61.1884027   1.7918319  86.2321492  62.2686010   2.3217315
  40.2016687  92.2327423  94.0929794  41.0890245  92.1101284  94.4303226
  39.6356225  91.8494987  94.7630215 101.7269471  53.5470873   8.8800734
 100.8864810  53.2105833   8.5692519 101.7842748  54.4276910   8.5092849
  29.8693013  84.4951057  63.5461378  29.9911499  85.0584602  62.7819300
  29.8758888  83.6059570  63.1917334  57.5247599   0.6302787  73.5130310
  57.8775848  -0.0457048  72.9344177  57.3944081   0.1848269  74.3501806
   1.3658941  55.2776247  28.8998717   1.0567367  56.1832433  28.8772220
   0.6376302  54.7853380  29.2786998  17.7334631  52.5998693  10.7454604
  17.2296465  52.8189760   9.9616260  18.5909260  52.3347955  10.4127044
 107.4517324  52.9596430   6.0900802 108.0401876  52.3920732   5.5922622
 107.6616671  53.8441282   5.7903499  19.6206582  99.5436001  83.6593151
  20.1610112  99.1784763  82.9586506  18.8059282  99.7976303  83.2258320
  30.2618670 105.8795834  89.4873714  30.6201363 106.5466595  90.0729370
  31.0116291 105.5891132  88.9680290  83.6497081  12.7453280  71.2774324
  84.5630754  12.5067569  71.1190987  83.2830728  11.9936419  71.7430305
  36.7030790  69.0690237   1.0365886  36.6254594  68.9876848   1.9871539
  37.6203229  68.8661295   0.8529395  40.5683661  77.0499229  73.6868572
  39.6294832  76.8638659  73.6976242  40.6247139  78.0022812  73.7647295
   4.0995968  49.2226415  12.2966880   3.6558664  49.3366152  13.1371325
   4.9798715  49.5695501  12.4416083  22.3189914  60.1752859   7.4570102
  22.0140970  61.0547071   7.2336692  21.5187538  59.6545606   7.5255794
 110.0000384  34.7859197   9.9762839 110.2738192  33.9521700  10.3585547
 110.6852558  34.9948126   9.3414039 105.9491660  46.6238313  12.1630401
 106.2832072  47.4998766  11.9701976 105.2276447  46.5014368  11.5460700
   4.2255867  40.7692819  45.8488196   3.6219061  40.1754194  46.2950438
   3.6941278  41.5368562  45.6375712  44.2136574 100.8659744  68.4083223
  45.0158501 100.9022617  68.9292860  44.2128038  99.9863529  68.0308294
  21.6373241  42.2428995  39.6013755  22.0591772  42.3522382  38.7491340
  21.2748134  41.3573270  39.5773334  70.5817058  63.8283735   3.5420531
  70.6781485  64.1491228   2.6453608  71.0118511  62.9732805   3.5381240
   4.0988195  34.6008020  25.7601851   4.2780912  35.0057607  26.6087741
   3.7047279  33.7557512  25.9765548  93.7562194  29.1568380  52.9156226
  93.3470752  29.7609907  53.5351676  93.9517012  29.6957880  52.1491069
  87.2417291  17.0627218  23.7070102  87.1177121  17.2712427  24.6329612
  88.0890658  17.4491792  23.4858722 108.9472725  42.6449781   0.5119151
 109.6590426  42.2010427   0.9729308 108.2775571  41.9704538   0.3990764
  47.3905754 102.5110626  63.1380367  46.7010164 102.1122646  63.6687946
  47.0488691 102.4872112  62.2442245  52.4989868   5.0646830  94.3128014
  53.0060543   5.7550956  93.8856602  52.5902547   4.3076277  93.7342167
  91.0061277   7.5301219  78.2753420  91.7857135   7.0535517  77.9901123
  90.5088199   7.6790000  77.4711323  24.7732472  81.9708061  79.3706656
  24.7199750  82.5053883  78.5784435  25.4140806  81.2920284  79.1589308
  49.0518856  98.8399220  84.5946693  49.9298906  98.7464619  84.9642658
  49.1390562  99.5358753  83.9432907 106.6207184  15.4710055  86.0176373
 106.6073192  16.3192034  85.5742264 107.3805965  15.5160952  86.5979671
 102.9388345  14.7922564  93.5849953 103.0728401  14.8628760  94.5301342
 101.9956316  14.9055720  93.4676933  56.2474585  81.9874668  79.4826746
  56.4061308  81.4986515  78.6751461  57.0671988  82.4542522  79.6450901
   6.6743028  46.5109258  31.5042418   6.9913233  45.7064634  31.9148082
   6.2129343  46.2138277  30.7199592  69.9978603  18.9064551  67.7537107
  69.4396366  19.6795607  67.6704931  70.7869734  19.1264010  67.2585773
  10.0806701  31.6122919  11.8547267   9.4541061  32.3334318  11.9148940
  10.2537859  31.5229803  10.9175605 104.0652622  15.7551718  80.1844215
 104.6443428  16.3656188  79.7280741 103.9843286  16.1162997  81.0671806
  78.8767042  24.1035008  59.6613550  78.0198922  23.6836648  59.7378063
  78.6871328  25.0413537  59.6882772   2.3805321 104.9756818   5.3281325
   1.6880287 105.1142650   5.9742469   2.9238261 105.7615523   5.3870410
  28.5009099  87.0318584  12.6158732  29.0806384  87.1604066  11.8651313
  27.6558853  87.3771148  12.3278445 109.4006505  31.4672852  64.5065880
 108.7511661  30.8996701  64.0916014 108.8825460  32.1282911  64.9657917
  62.0251992   0.3467470   9.2952079  61.3414528   0.1410108   8.6577147
  62.2521438   1.2593942   9.1168803 113.3400183  31.1653304  67.8212500
 112.6440634  30.7819414  67.2874975 113.3516987  30.6338835  68.6172771
  75.3050340  78.7606363  26.9054145  75.1145233  79.6985607  26.9209022
  75.6611122  78.5741858  27.7741355   0.2666105  88.7505608  32.8808707
   0.4893745  87.9112534  33.2835788   0.0617255  89.3237691  33.6195773
 115.7955638  61.9039345  76.6827297 114.8481246  62.0374584  76.6551113
 115.9803898  61.3426542  75.9297132  84.2093542   8.3815294   3.8415259
  84.6674784   8.3636671   3.0012721  84.6808436   7.7500873   4.3848628
   6.8421793  51.2803507  46.8076324   7.3112702  51.6910553  46.0813379
   6.1668575  50.7486010  46.3864279   6.3758904  48.1220150  70.5811834
   5.7598454  48.8110590  70.8300591   7.1580273  48.2998991  71.1035347
  26.5532732  39.0018463  30.7064486  27.3959994  38.5919380  30.9014368
  26.7818284  39.8345828  30.2934766  28.2491351  84.9161224   1.6518611
  28.2087923  84.1344886   1.1008090  27.5074471  85.4493480   1.3658542
  19.3821704  26.3176417  84.3881416  20.0812292  25.7857847  84.0077782
  18.8093603  26.5240312  83.6495495  87.4862303  63.1590366  84.0289021
  87.9528608  63.9290953  84.3537045  86.5789427  63.4499025  83.9369202
   2.6550251  63.5720396  49.8057747   2.5747165  63.0911875  48.9820242
   2.4272805  64.4738817  49.5798492  59.4786252  64.2277299   0.2740211
  59.3668736  63.8145893   1.1302108  59.9177612  63.5633563  -0.2570134
  69.5996846 107.8804069  27.3185748  70.4948009 108.2005124  27.4305171
  69.0473784 108.6182790  27.5768966  79.6713176   4.0821033   6.2228030
  79.0437190   3.6795335   5.6225699  80.5260982   3.9035850   5.8307475
  94.8436942  28.1682020  13.5689658  94.2579975  27.4597936  13.3018702
  95.5661192  27.7263265  14.0151423  47.7798856  75.1796584   2.4728698
  47.7760668  74.4257705   3.0626697  48.4939064  75.0013142   1.8608207
  19.5889689  71.4244227  12.5429458  18.8208903  71.7152362  13.0345839
  19.4801093  70.4764466  12.4673003   6.2243229  23.5502982  71.2793589
   5.7960057  24.3146682  71.6647339   5.9380853  23.5504818  70.3659630
 112.9443299  84.6469879  75.8711243 113.1599765  85.1570892  76.6518450
 113.7078898  84.7453213  75.3023195  17.0425595  83.4052758  19.6761626
  16.5621270  83.6233835  20.4748172  17.6819576  84.1112070  19.5809478
   1.2743971  90.4496765  51.0414743   0.6419519  90.1003265  51.6693306
   1.7559791  89.6816635  50.7341051 100.2852454  48.3168554  83.3230686
 100.9055259  47.6228523  83.0998039  99.5357897  48.1623507  82.7480221
   4.2784005  73.0120182  84.8336220   4.6988475  73.7536097  85.2689362
   3.6547872  73.4121466  84.2276192   1.2865026  91.5741730  72.1719122
   1.8983003  92.3099422  72.1961927   0.6592229  91.7611313  72.8703403
  91.1566556 108.8693398  61.0616159  91.8441070 108.6633569  60.4281998
  91.5936519 108.8254579  61.9121075 113.3453413  49.0436888  86.9853020
 113.0754068  48.2684612  86.4929676 112.6613679  49.1586208  87.6450062
   6.5329176  34.2124653  70.8106470   6.0419190  34.0544724  71.6169882
   6.8746990  33.3525014  70.5659437  61.7619111   3.1612306   5.4843921
  62.3824789   2.5470548   5.8767241  61.6610994   2.8565841   4.5825786
  40.7008992  96.3022380   4.5190543  40.9021867  96.8996100   5.2393741
  40.6413346  95.4407077   4.9319095  10.3098273  27.7948308  75.3462601
  10.2681339  28.6507010  74.9196672  10.9780657  27.8972697  76.0238981
   3.8540041  22.3569250  70.6187344   3.8576576  22.5540900  69.6820641
   4.4441450  21.6086292  70.7082844  84.8758402   5.8650690   1.8669719
  84.2797687   6.4107996   1.3540286  84.5853128   4.9688154   1.6979903
  24.9379277  83.1932163  76.7554426  25.6856990  83.7604237  76.5674353
  24.1879749  83.7873268  76.7844343  26.5601397  66.6498423  90.5129719
  26.3904500  66.9317341  91.4118481  26.3856864  67.4265289  89.9814129
  97.3250379  22.4964738  92.6147270  96.5292492  22.1720099  92.1932125
  97.4551394  23.3683991  92.2418308  23.2917309  41.0362673  89.6125412
  22.5274348  40.4627562  89.6688461  23.0771852  41.6532421  88.9128685
  43.0888796  74.4915438  94.9467850  43.5544252  75.2830410  94.6765423
  42.3540115  74.8125744  95.4694176  58.3381536   2.6059251  21.8911571
  58.0058780   3.4931570  21.7546195  58.4090581   2.5203949  22.8418941
 114.9960831  22.6293063  85.5035686 114.0893655  22.8913236  85.6630707
 115.2516661  23.1158543  84.7198677  74.2416709  18.9518409   2.3489589
  74.5671000  19.3236929   1.5291709  74.8803552  18.2758337   2.5755137
 110.2734663  53.0869913  89.8629093 110.7576855  53.3911324  89.0952778
 109.9724480  52.2102404  89.6243095  84.2749419  62.8250694  82.4757767
  84.5429649  62.2792530  81.7365265  83.3547344  62.6023722  82.6166916
  84.0943040  60.2714872  53.8765717  83.8680186  60.7651329  54.6648216
  85.0330295  60.4197598  53.7623549  16.8306077  29.3789506  90.6885910
  16.5410101  29.2596722  91.5930939  17.3848760  30.1588845  90.7154369
   2.1799189  55.5216265  87.9590988   2.3151086  54.5826197  88.0864811
   2.2056888  55.6406975  87.0096874  37.1554041  55.7996798  93.9960670
  37.3254299  55.8565140  94.9363232  37.6977396  56.4888763  93.6125088
  14.6458424  96.5406041   4.4428748  15.3665317  96.1263089   3.9683265
  13.8841380  96.4179044   3.8763160  81.2651791  61.4932775  90.1902103
  80.6569686  61.0568380  89.5936966  80.7018079  61.9595718  90.8078003
  50.5649449 107.8204350   2.7980441  50.2521599 108.6930757   3.0365771
  51.2313105 107.9792981   2.1295089  15.0237834  39.3880224  84.3279362
  14.1581106  38.9840150  84.2677689  15.0869215  39.6850157  85.2357006
  21.6119266  33.0032635  91.9657707  21.1314178  33.7176633  92.3840714
  21.2652302  32.2100210  92.3741817  28.9858456 102.1923785   7.6696033
  29.5099021 102.2484307   6.8705768  29.1114635 103.0389409   8.0983085
 101.3251140  13.6315065  10.5394763 101.9865873  13.5156875   9.8573703
 101.8198922  13.6122900  11.3586539   5.8947927  58.3196211  71.2642288
   5.7588947  58.4228134  72.2060966   5.3600305  59.0077162  70.8682728
   0.3641850  60.6388664  74.5428514   0.0982240  59.7470808  74.7669363
   1.3183111  60.6305408  74.6190500  12.5266826  21.6336303  17.6387137
  12.9868496  20.8472734  17.3452586  12.5682962  22.2288519  16.8902415
 102.5054254  57.1215248  74.4145775 102.8880384  56.2568855  74.2654371
 102.5262167  57.2319126  75.3651619  83.8141014  13.5347372  11.1200446
  83.0659451  13.3539062  11.6890735  83.9323273  14.4830757  11.1739558
  20.6201458  67.7354383  53.6760759  19.9727297  67.0320320  53.6280394
  20.5022502  68.2254505  52.8623056 101.8436625  51.0084629  90.7562160
 101.4124789  51.0658407  91.6088676 101.3183179  51.5677977  90.1840305
 108.4815325  12.9142070  91.2923241 109.2334785  12.3286951  91.2029648
 107.7199670  12.3426580  91.1944294  99.6840384  18.2616954  -0.0166112
  99.7733548  17.5706630  -0.6729108 100.2504589  17.9832178   0.7030028
  44.4103057  95.6786923  15.8341521  44.8671068  94.8375850  15.8240718
  44.4386710  95.9775596  14.9252433 104.1889228  33.7314224  40.7187891
 103.3369329  34.0272617  40.3981304 104.0729239  33.6483216  41.6652918
  12.1529162  70.6249428  92.2353268  12.6423800  70.1600456  92.9139519
  12.2420812  71.5495014  92.4665737 108.6552044  42.3473740  86.6370106
 108.3722343  42.9255390  85.9285736 109.2541852  42.8822756  87.1579170
  21.3129425  40.8756781  85.2546692  21.0152197  41.5947485  85.8119202
  22.2237349  41.0902214  85.0530243  25.8943452 108.9330487   8.6784381
  24.9712480 109.1725116   8.7607879  26.0581793 108.9315181   7.7353686
  19.8485756  55.9031963  84.0007401  19.3068123  56.3744593  83.3677864
  20.3108191  55.2472496  83.4789181   2.4617183   0.5101257   8.1547183
   2.3883522   1.4603906   8.0661506   1.5744961   0.2201276   8.3667773
  69.1378392  93.4620433   3.2340354  69.7344507  92.7852802   2.9142302
  68.9428509  93.2032852   4.1347331  20.9751201  68.0817413  84.9612427
  20.6174374  67.6496172  84.1856289  20.5779958  68.9526510  84.9547482
  92.7975191 100.2680068   4.8101634  92.3133625 101.0112386   4.4503993
  92.1927847  99.5297389   4.7360629 101.6229906  40.1156521  82.6315212
 101.0825219  40.8702183  82.8655148 102.1155192  40.4030132  81.8627071
  36.3825392  90.0845604   1.1266631  37.1395275  90.2625518   0.5685252
  36.7526689  89.9649029   2.0012588 110.9991480 105.1205745  71.1807871
 111.0527874 105.6957647  70.4175615 111.4399625 104.3165165  70.9061861
   3.7104052  45.3872156  56.6987896   4.6555421  45.5385208  56.6913748
   3.5631302  44.8293924  57.4625778  14.6328771  68.0112600  69.7275877
  13.9401984  68.6623096  69.6154928  14.1813564  67.2362900  70.0619268
  60.1110926  12.4079328  19.5182246  59.6308687  12.2029310  20.3204745
  60.3230157  11.5540510  19.1411132   9.7067392  59.3206453  91.0205746
   9.4021958  58.8309050  91.7845440   9.2491406  58.9201784  90.2813530
  58.3863462 104.6396403   7.1727771  59.0092720 103.9908509   7.5002974
  58.9138831 105.2254348   6.6298408  69.0705622  73.4659355   4.1548652
  69.4435490  73.1941586   3.3162612  69.8294486  73.6934380   4.6920508
  14.2350806 105.2982812   2.0770186  13.9732112 104.5286374   2.5822944
  15.1377357 105.1170735   1.8150825 109.6413942  46.4236212  86.4762592
 108.7109937  46.2052059  86.5299320 110.0702359  45.7870483  87.0481873
  22.6868820  53.1767416  93.3822536  22.5617623  53.9498234  93.9326382
  23.3793831  53.4275246  92.7708817  30.5944300  46.6168261  85.1636314
  30.9601712  45.9807158  84.5489502  30.2364182  46.0847378  85.8742237
  43.8279057  56.0697269  91.2182045  43.5958242  55.1903057  90.9198952
  43.0426502  56.5925837  91.0562801   1.8862927  56.5590334  65.6524944
   1.6892110  57.3581982  65.1638985   2.8287220  56.4354420  65.5394268
  20.5505323  43.7485266  76.7118502  20.6534052  42.8999710  77.1426678
  20.0179935  44.2623806  77.3189688  51.8475294  45.2836990  92.9085541
  51.6941452  45.0506115  93.8241863  52.7938271  45.1959038  92.7943420
  78.1424441  54.3632126  49.1609049  79.0661039  54.6129513  49.1341305
  77.8042998  54.7807693  49.9530792   5.5477452  72.6913977  93.7448311
   5.5402523  72.1041679  94.5006943   4.6398121  72.9818869  93.6581993
  74.0754045  54.9452951   3.9946670  74.5763720  55.3501605   4.7027225
  73.2294143  55.3927005   4.0136069  27.4554278  97.9506736   2.8556937
  27.5516773  97.3169332   3.5665626  26.9896628  98.6867814   3.2524795
 108.3494236  33.0415988  80.0382519 109.2455294  33.2176065  80.3250408
 107.8959658  33.8781238  80.1423454 110.4128154  47.5502396  67.5781345
 110.6195118  47.6834393  68.5032129 109.9198552  46.7299747  67.5585604
  98.1443813  47.6742654   2.8418082  98.8481667  47.3378378   2.2870749
  97.7032664  46.8909364   3.1705111  33.3802439 109.4564113  75.4025459
  33.1236387 109.8206963  76.2497091  34.0371347 108.7936771  75.6158781
   7.7441663  60.5739212  41.1134720   6.9323170  60.5351782  40.6078720
   7.5049007  60.2371025  41.9769192   6.8538618  87.6848698  91.0630894
   7.2239977  88.4640884  90.6482983   7.6135343  87.1420193  91.2738991
   7.5477362  77.1919203  62.3726416   8.1322700  76.4501143  62.2168255
   6.8130130  76.8195963  62.8602743 115.6562749  78.3013868  67.6461887
 114.7560643  78.4542656  67.9333830 115.8168178  78.9796162  66.9900942
   8.4294891  62.5443602  61.2775183   9.0997678  61.9742393  60.9007978
   8.4569281  62.3585558  62.2161102  52.0563507  71.8641376  74.2901850
  52.3382378  72.4002171  73.5489798  52.2107887  70.9630728  74.0065241
   3.0077693  65.7775021  59.4646597   2.8903395  65.5670547  58.5382938
   2.4019612  66.5011501  59.6245432   9.5901823  46.9070816  61.1908674
   8.8664931  46.5253735  61.6876650   9.2846203  46.9063997  60.2837515
  22.6195955  47.6622772  85.1309109  23.0233359  47.7190161  84.2648792
  21.7479038  48.0400562  85.0139999   2.3002531  41.1998463  81.1026382
   2.2786304  40.6734896  81.9018364   1.6047764  40.8340740  80.5560589
  31.4889026  55.3227949  76.7998219  31.7438316  55.9357119  77.4894428
  32.3138833  54.9367905  76.5054798  34.3279386  75.9902716  68.0472088
  34.3957210  76.8707275  68.4165812  33.3911610  75.7944345  68.0652428
  39.8924184  79.7924662  93.9241123  39.1211963  79.9506760  93.3796787
  39.5514131  79.3439531  94.6979237  22.5404572  72.2042322  68.9575529
  22.1232915  73.0004215  68.6284876  22.0643401  71.4910364  68.5322332
  66.3591469 103.5495286   1.3170260  66.5361394 104.4461780   1.0325545
  66.3076867 103.6066966   2.2711295  69.5221056 105.3878837   2.1508235
  70.1758088 106.0637240   1.9715518  69.5411338 104.8249536   1.3768882
   1.9203819 105.1022010  14.4322986   1.8515886 104.3426948  13.8537997
   1.2753547 104.9384408  15.1203078  22.7425551  89.7643757  84.7450352
  23.6964321  89.8392200  84.7724533  22.5789261  88.8280773  84.6318722
 110.8217271  87.4772072  77.1662092 110.3976448  86.6895008  76.8257618
 110.5239918  88.1788254  76.5871382  48.5072113  96.0654836  25.6594295
  47.7021838  95.5890040  25.4566211  48.6319948  96.6530423  24.9141520
  93.7820139  65.5759478  57.7290201  94.6055283  65.6237268  57.2434568
  93.7431206  64.6737480  58.0464363  12.3374152  62.8734207  42.1923351
  12.0655727  61.9688892  42.3477697  12.6644337  62.8740120  41.2927294
  31.2102246  90.5061817  67.5019789  31.5829921  89.6484852  67.2979307
  30.5973101  90.6772137  66.7869186  95.6051531  12.0328098  15.1171607
  95.2795269  12.6032358  14.4208831  94.8519423  11.9048076  15.6938094
  59.9112905  79.4478302   0.9585494  60.5147256  79.7093110   1.6540545
  59.0649213  79.8034196   1.2295646  11.7580259  74.2466688  69.0982628
  10.8265305  74.4649076  69.0679169  12.1045148  74.5588350  68.2623625
  96.1091389  57.8706264  81.3780880  96.4612212  58.7371969  81.1748219
  95.5088439  57.6808357  80.6570816  22.8941464  37.0583558  81.6787338
  23.2887769  37.6232719  81.0143757  23.6034703  36.4754534  81.9495106
 106.4778807  18.5885530  10.7225055 105.9853818  19.3524795  10.4223460
 106.7903020  18.1738907   9.9183387 104.2360070  24.4419676   6.6970080
 105.1336791  24.7535425   6.5815371 103.7574675  25.2049738   7.0211143
  29.0661097  83.9113712  68.1407690  28.6103892  83.0857468  68.3048010
  28.7097788  84.2202377  67.3077869  84.0393699  78.3287578  39.5960349
  84.6886362  78.2286863  40.2922172  83.5531248  79.1182618  39.8336905
 108.2455053  63.7837076  65.0592422 108.4570958  63.0251789  65.6033850
 107.8411486  63.4110928  64.2757320  84.8041309 103.6081796  21.4960498
  85.7087291 103.8671546  21.3203544  84.8807586 102.8249221  22.0409125
   0.0582588  42.4162965   6.6276664   0.5665434  42.9506593   6.0174674
   0.5948866  42.3810487   7.4195117  36.1570477  70.4145622  68.6801624
  36.0861349  70.2561951  67.7388191  35.5813026  69.7609282  69.0770435
  23.3843851  89.6368027  47.6828623  22.5874329  89.1070175  47.7033281
  23.6180353  89.6822453  46.7557287   0.6172096  85.1527596  88.5040951
   0.5712391  84.5018864  87.8037453  -0.0571952  85.7939434  88.2798290
  97.1819009  38.6079097  90.4974174  96.8012406  38.2761478  89.6842384
  96.5389385  38.3859420  91.1708927  42.7058506  66.2833977  78.0718517
  43.4333706  66.7731047  77.6882792  41.9238758  66.7634535  77.7992725
  26.1930609  51.0656881  73.7248230  26.3252831  50.1317215  73.5621548
  26.1464381  51.4565277  72.8522968  68.7140008  25.6751352   7.8156966
  69.1872849  25.7094961   6.9843978  69.3734898  25.8886724   8.4757728
  11.1413622  21.0787630  66.0442448  11.6342318  21.8715096  66.2560558
  11.3869321  20.8782005  65.1410818  49.2783880  58.2505894  74.0650272
  49.1921997  58.9661503  73.4351254  48.5667133  58.3937025  74.6889400
  19.2582083  27.3941278  36.8401814  19.1056299  28.2801342  37.1687293
  19.4241762  27.5108337  35.9047318  67.6075209  88.4237246   0.5038184
  67.7188243  88.9573150   1.2906665  68.1910218  87.6766329   0.6365508
  69.5428529  28.5954576  10.8247489  69.5286664  28.9369875   9.9306697
  69.3639990  29.3578439  11.3752288   9.6770763  74.2257929  85.0340939
  10.4925656  74.6211529  84.7260380   9.2898142  73.8345528  84.2510223
  52.1808460   6.9737249  42.3372382  52.3731568   6.9183689  43.2732886
  52.9182746   6.5333324  41.9147605   3.3129701  53.1293821  58.3006287
   2.6056626  53.3176517  58.9174747   3.9720237  52.6732254  58.8238907
   6.2563080  42.0619583  70.3462982   5.4394698  41.9040680  70.8196688
   6.0584229  42.7966976  69.7655869  40.5195951  54.5326567  84.9577713
  40.7802248  53.6122036  84.9904156  40.6526995  54.7870302  84.0446377
  81.4267219 102.3376088  17.9988307  80.9096159 103.0782895  18.3154029
  80.9544672 102.0288663  17.2256011   2.9259813  66.7074013  74.4401264
   3.8106072  67.0547342  74.3259859   2.3516583  67.4536514  74.2683983
  19.1083360  62.1498442  77.1406698  18.3219326  62.6754236  76.9938087
  19.6361899  62.6722050  77.7446079   9.7253209  63.1376982  94.6857548
  10.6084192  63.4549189  94.4966984   9.8227757  62.6199532  95.4849243
   6.4807367  34.9568963  76.3569736   5.6028831  35.2768064  76.1489773
   6.3323361  34.1232634  76.8033648   5.2811134  62.4252081  50.9134388
   4.7662461  63.1861687  50.6449556   4.9220279  61.7003965  50.4016352
 113.4285434  46.7707300  91.9611263 113.9462068  47.4931192  91.6055870
 114.0108000  46.0125017  91.9131374 104.1366388  24.2518306  84.8076630
 104.8456003  24.1777682  85.4465008 103.3863165  24.5581651  85.3169823
   1.8969620  12.3037296   2.3907584   1.8826807  13.2289510   2.1458262
   1.3005245  11.8828302   1.7716235  79.5475190   8.5302883  11.0655326
  79.4420207   8.3401876  10.1333446  79.2950400   9.4494777  11.1525935
  17.8267849  39.6899038   6.2333316  17.7597416  38.8466077   5.7854575
  18.0098522  39.4629961   7.1450538 104.7009244  42.4585152  68.3841085
 104.9879410  43.2546234  68.8314009 105.3255357  41.7888308  68.6626959
  29.2317128  61.6644096  82.2027016  29.1680527  62.5250101  82.6168823
  28.3660150  61.5173435  81.8216896  41.2278795  51.8401146  84.7560120
  41.7622805  51.5559435  85.4975510  41.4349794  51.2175751  84.0590286
  92.2018876  49.8862600  85.8976841  92.8543510  50.1576424  86.5433407
  91.5525760  49.3980789  86.4039516   4.7900188  49.9553633  76.6132355
   4.8270658  49.1380930  76.1163187   4.1642559  50.4987383  76.1342812
  42.4365807  90.6325340  42.3049927  43.2668161  90.5037117  41.8463516
  42.3292923  91.5829182  42.3437071  40.3377628  86.8437195  53.8284063
  40.1540661  86.0868931  54.3849182  39.7768831  87.5376320  54.1750002
  23.3114314  29.2218423  69.6686220  23.1011724  29.8122859  70.3920841
  22.4674034  28.8543153  69.4063807  26.7604041  39.9280763  92.2269344
  27.0822096  39.9712992  93.1273842  27.2975731  40.5606937  91.7499828
  61.6878117  68.0238812   4.1227740  61.4287246  68.5355144   3.3564013
  60.8608783  67.7337067   4.5077628  86.2382593  74.8942900  76.6310263
  85.7504334  75.6934357  76.4319754  87.0275631  74.9552011  76.0929585
   1.8361756  45.9249210  68.1100321   2.1196221  45.0413370  67.8751612
   1.7818411  46.3890171  67.2746277  42.1788740  20.1351571  74.8902798
  42.3177624  20.1309347  73.9432192  41.2870073  19.8063898  75.0030279
  44.2349793  92.3120217  21.0590190  43.6445321  91.8141131  20.4936046
  44.3940581  91.7353110  21.8062324  26.5838075  32.3584723  66.6047430
  26.6745567  33.1092143  66.0178995  25.6500220  32.3288012  66.8130541
  28.6669326  78.1120253  75.4312754  27.7494860  78.3832550  75.4622126
  28.9382839  78.0799818  76.3486481  18.9756393  59.5300770  83.2254601
  19.6897626  59.6196556  82.5944042  18.2341909  59.9727917  82.8125572
   0.5899776  76.6310167  72.6569653   0.1184401  75.9644079  72.1574450
   1.4342332  76.2271738  72.8578949  15.1475680  84.3317795  80.8104706
  14.7384501  83.6071205  80.3374767  14.5578671  84.5015812  81.5450859
  13.7839496  63.5168695  71.6094446  13.7557304  63.3746529  70.6632900
  12.9623795  63.1463957  71.9319391  28.9400911  92.5681019  47.9838610
  28.2567239  93.2331753  48.0670071  28.7753630  92.1604156  47.1336269
   2.7920878  53.2608795  74.4338512   2.8312862  54.2156124  74.4902515
   2.2408210  53.0884695  73.6705589 112.8886028  59.6354246  48.9252806
 112.4105399  60.4238796  48.6683178 112.2115686  58.9657688  49.0223074
  26.1949849  30.3989697  90.4439449  25.3193831  30.7219958  90.2313328
  26.2203670  30.3878093  91.4007473  42.2410202  89.2562294  67.5953960
  42.5039673  89.2022324  66.6766024  41.4289045  89.7627258  67.5827360
  10.8363545  61.6836214  90.2326965  10.2641225  62.3808289  90.5531311
  10.4118264  60.8748436  90.5188560   5.0413162  61.0279465  93.3617020
   5.1895130  61.2362766  92.4392796   4.1409528  61.3067579  93.5285568
  46.6335249  44.4756794  92.4706268  46.6561127  43.5436916  92.2535419
  45.7539988  44.6189451  92.8201199  40.8726883  52.4567509  59.2710733
  41.2442207  51.5800095  59.3686628  40.2035666  52.3592806  58.5935688
  33.4370661  20.9066010  64.8582077  32.5252151  20.6727767  65.0316715
  33.4524369  21.8624902  64.9058676  13.8742840  12.9842329  90.2734852
  13.0073380  13.1905627  89.9241066  14.4242895  12.8713727  89.4982529
  22.6282430  51.8749952  78.1306314  22.8507304  51.0133934  77.7779627
  23.1437182  51.9453144  78.9341068   2.3283117  74.2435265  59.0182066
   1.6669010  74.2506647  58.3263159   2.4839760  73.3150387  59.1911745
  13.8845503  60.6419706  65.6970310  14.0430248  60.1449776  66.4995956
  13.0182374  61.0293245  65.8223009   0.6091956  50.7533789  55.1245022
  -0.2981214  50.9244442  54.8720264   0.6513812  49.8038197  55.2375793
  69.9534931 108.5188198  90.2343178  69.8575582 107.6557636  89.8316288
  70.5907669 108.3861732  90.9361076   5.6688052  56.6215277  69.0529490
   5.6252247  57.3376846  69.6865463   4.9816179  56.0151625  69.3292236
  90.8059754  82.6998997  78.6790562  91.5690555  82.8082752  79.2466784
  90.7233181  83.5390568  78.2260561  58.1628181 101.8997865   5.5153293
  58.5036684 101.1522632   5.0241488  58.8645781 102.5497918   5.4798240
  25.4768623 108.6221318  14.8527163  24.9109365 107.8526072  14.9142474
  25.0588740 109.2725759  15.4170150 108.0102416  88.3454990  77.7040195
 107.3394044  88.9282990  78.0597639 108.8332953  88.6848640  78.0556488
  97.2951176  33.9859867  81.3883305  98.2383027  34.1439056  81.4294910
  96.9022002  34.8514509  81.5015507  21.7528176  57.0655823  75.3984690
  21.5879655  57.0049953  76.3394165  22.3519373  56.3424158  75.2132177
  62.5595487  87.0925479  20.1347751  62.9659165  87.4511723  19.3458003
  61.7763318  87.6271992  20.2649802 105.2313783  76.2616062  87.1497631
 105.1140144  75.7450914  87.9470539 105.9818914  75.8596468  86.7122841
 115.2865647  62.7579832  58.7641764 116.1670122  63.1265163  58.6918640
 115.1519697  62.6420069  59.7047424  26.9165611 106.8328285  72.8459454
  27.5907326 106.7179775  72.1762180  26.1032844 106.9362259  72.3518562
  24.9250889  36.6236472  69.4762754  24.5876646  36.5103197  70.3648329
  25.8274364  36.9186831  69.5985508   9.3413192  51.8081236  94.8526478
   9.1197675  52.5629854  95.3979301  10.2958155  51.8332243  94.7852707
  11.2060750  95.3724003  72.7829981  11.0357440  94.7676277  73.5051298
  10.8764374  96.2155533  73.0938959  63.1313515  67.1238041  88.7792397
  64.0765953  67.2058439  88.9057922  62.9204130  67.7816582  88.1166935
   8.7445027  57.9327393  93.1515503   8.7766635  57.0606709  93.5448551
   7.8227651  58.0604744  92.9272366 103.3278420  20.9521537  28.9249534
 102.8026321  21.3119417  29.6397513 103.9992311  21.6151052  28.7638396
  37.5570679  55.8837366  83.4195614  37.9364061  56.5913820  83.9406967
  38.2054663  55.1808834  83.4620571  92.4687066  46.6308165  55.9075451
  91.9706096  46.8870068  55.1313400  93.1940856  46.1085558  55.5650520
  16.7582428  76.3839960  87.9792595  16.4149129  76.4429903  87.0876980
  17.7015412  76.5140390  87.8817558 115.0550226 107.9871802  12.9635638
 115.5010346 107.2944026  12.4763602 114.1588357 107.6675849  13.0681533
  28.9934373  75.2055311  63.1003237  28.5051894  75.2627850  62.2790051
  29.6343541  74.5106459  62.9500151  21.1695385  52.2343397  83.2183838
  20.5675507  51.9877815  83.9205551  21.8440795  52.7559280  83.6533260
  90.9088197  28.1528288  22.5511664  90.7567444  27.7876573  21.6795367
  91.0835113  29.0808874  22.3948974 113.9196291  86.3917160  77.7218103
 114.2462694  86.5622997  78.6052370 113.2551466  87.0654964  77.5778818
  20.6448531  82.4327946  95.2921009  20.1880240  83.1293869  94.8206043
  21.5735531  82.6233292  95.1600170  68.9086535   1.3279348   9.4015426
  67.9920747   1.3484102   9.6766776  68.8733979   1.1311393   8.4654540
  63.2377089 103.1154971  13.7915629  64.0336384 103.2330852  13.2730121
  63.5486973 103.0384831  14.6935576  83.2387127 100.0323539  22.6014823
  82.6567091  99.2873626  22.7514762  82.9558958 100.3917365  21.7605990
 112.7256610   2.3419672  10.5669612 112.5044801   2.9262119  11.2921924
 112.6318195   1.4617973  10.9312839  36.9003034  49.3434620  87.8786659
  37.6864672  49.8079920  88.1657028  36.4997244  49.9263906  87.2337055
  80.4043012   2.7094083   2.4959392  80.2535155   1.8076521   2.2125167
  80.5289211   3.1984430   1.6825789   9.2859018   6.7799431  28.7168426
  10.2081239   6.9004636  28.9431399   9.2994964   6.4806705  27.8077239
  39.3448520  53.0749464  78.1606436  39.1321588  53.7538528  77.5202703
  39.2883587  52.2556877  77.6688623 106.5014287  64.8207188  78.3343601
 106.2370636  63.9267731  78.5516167 106.8993189  64.7486591  77.4667645
   2.2682925  84.0172863  30.8396697   2.9541862  84.6446514  31.0681462
   1.9346437  83.7096977  31.6824603  22.7446795  51.8037367  74.2062998
  23.3073759  51.0514498  74.3897867  22.4957299  51.6983128  73.2880688
   7.6273632  88.1862259  73.0257940   7.4133885  88.6748409  72.2310019
   7.8488088  87.3083973  72.7149582 116.1102770  72.8620434  66.3171768
 115.1695584  72.7070713  66.4024019 116.2116644  73.8033867  66.4579821
  27.0676507  91.4813333   5.3751296  26.9685401  91.3983231   4.4267005
  26.1714364  91.4730983   5.7112330   9.4025266  44.0331841  87.3269653
   8.6456603  44.3536615  87.8175640  10.1495421  44.2038965  87.9006004
 109.1380252  69.1818905  46.9662619 109.5304199  69.7538614  46.3066339
 109.8827185  68.7376356  47.3716021 104.3942692  54.2285442  65.6113291
 103.7628379  53.7264395  66.1265182 104.6599652  53.6324978  64.9110651
  24.3545247  84.3776302  15.1507491  25.1296271  84.4291143  15.7100314
  24.3287612  85.2210717  14.6988887  12.2516203  84.9378204  85.8976650
  11.8432248  85.3905296  85.1597595  11.9624889  84.0294552  85.8110809
 110.0815656  32.1009260  10.7158584 110.7577088  31.5068155  10.3901309
 109.4412711  31.5273100  11.1368293 113.7976160  70.3374243  73.1936598
 112.9291674  70.6421709  72.9306841 114.3941169  71.0203218  72.8869534
 105.1088669   6.2355405  75.6539822 105.8395543   6.4286584  75.0665903
 105.4403963   6.4478266  76.5264845   9.8061842  60.4279709  87.8026676
   9.4691664  59.6236801  88.1973457   9.7628278  61.0761547  88.5056686
  27.3711348  51.0138512  70.6618738  27.3246288  50.1423025  70.2688551
  26.7534184  51.5392065  70.1532888  27.0286679  59.7007561  77.6575565
  26.6310191  58.8329124  77.7279186  26.4325213  60.1922750  77.0925331
  43.7616925 105.1013617  10.1864261  42.9908313 105.6351523  10.3789729
  43.9789851 104.6848350  11.0204047  26.8408728  81.8773556  63.9390326
  27.5815988  81.6335773  64.4941235  27.0831013  81.5670681  63.0665159
   2.6567662  76.4489841  81.3110638   2.0436317  77.1441698  81.0722733
   3.4207433  76.6020298  80.7550526  36.8996143  55.2344799  86.5607929
  37.5628281  55.0540400  85.8945942  37.0142841  56.1619473  86.7678738
 110.4686501  45.6232405  74.1818857 111.1328050  45.9947729  73.6012888
 110.0236656  46.3842916  74.5547390  93.1715765  58.7457657  89.7063351
  93.2524004  59.3345833  88.9560032  92.3782720  59.0376282  90.1554585
  96.9137754  62.3506117  84.5047188  97.6881554  62.8975630  84.3727779
  97.2456541  61.5675020  84.9438381  27.7801108  76.1312675  73.7483549
  28.2102346  75.4950857  74.3197536  27.9285049  76.9751740  74.1750145
  90.8529427  17.1414190   3.4028262  90.2459230  17.8553873   3.2078761
  90.3211465  16.3487297   3.3316154 115.3356140  79.1619492  89.2315578
 115.3212867  80.0188065  89.6579552 115.3234468  79.3601608  88.2951832
   3.5278454 103.6017132  92.5701523   3.3434397 104.5143604  92.3480988
   4.3520635 103.6351871  93.0557156  67.1362903  24.3198543   9.5944137
  66.2110772  24.4073396   9.3651599  67.5965621  24.8391252   8.9350718
  29.9457736  94.3134241  28.5398215  30.4204000  94.0033774  27.7685660
  29.6326150  93.5151916  28.9652461  54.9923576 108.2767348   1.8055457
  55.4244484 107.5670962   2.2808761  54.5542432 108.7885051   2.4855250
  34.0966511  74.9821424  58.7525654  33.4628177  75.2989340  58.1090355
  34.9497032  75.1773214  58.3647013  39.6928303  94.0877418  25.3880424
  38.9668318  94.5955996  25.0257701  40.2286505  93.8602619  24.6281833
  23.5578370  68.0523825  76.5291595  22.8642845  68.6937189  76.3745499
  24.2357111  68.5406208  76.9964314  77.0303501  88.6370568  12.1898478
  76.1722315  88.7196069  12.6058406  77.1457542  89.4593196  11.7136115
  31.8036199  75.0697422  75.3776264  31.7771673  75.8637285  75.9115887
  32.7241564  74.9766397  75.1323128  35.6036210   4.1849747  94.7949982
  35.8213902   4.8553714  95.4425907  34.7351885   4.4320813  94.4771957
  24.0339899  48.4179211  48.4474945  24.2000008  49.2731571  48.0509520
  24.0922165  48.5754871  49.3898392  64.2867901  32.3177915   0.0885028
  63.6812904  31.9854074  -0.5741578  63.7420668  32.8573137   0.6615848
  92.9835596  42.3635679  47.0024795  93.0058124  43.2935339  46.7768878
  92.2209277  42.2739130  47.5739593  12.8503871  74.1580439  56.4730024
  13.4580445  74.4775963  55.8060169  13.0782020  73.2347536  56.5819311
  63.5645331  71.9810407   0.9333819  64.1823782  72.5066178   0.4251784
  62.7129282  72.3852460   0.7671851 103.8766649  27.0863825   7.5593776
 104.4158533  27.7826410   7.9345244 102.9928257  27.4532514   7.5376910
  17.9401493  88.2087135  81.4235020  18.4912896  88.7422848  80.8509827
  17.2934890  88.8218880  81.7728901  51.4333248  48.6575794  94.1477203
  51.6676950  47.8734446  94.6441460  52.2620583  48.9652157  93.7805748
 115.2184703  13.1106573   3.8814849 115.2915504  12.1925932   4.1423625
 114.6366932  13.0981117   3.1214828  19.0698993  67.2576046  79.3093157
  19.8915029  67.7473545  79.3459940  18.6838889  67.5000954  78.4676361
  79.5518697 108.4393029  18.1859035  80.0798858 107.6851134  17.9239291
  79.3353666 108.2730203  19.1033477  47.7927716  70.5502193   3.6137313
  47.0772101  71.1130743   3.9093608  47.5532449  69.6763389   3.9222640
  24.4615579  57.2490501  74.4205475  24.3097782  57.7355814  75.2307796
  25.3473330  56.8984890  74.5140266  11.4671159  50.7288885  76.4195108
  11.3556314  51.5781069  76.8468618  11.6381741  50.1198673  77.1378899
   9.7687447  37.2963214  67.8066444   9.9588227  36.5337229  68.3530378
  10.4021132  37.9565024  68.0881310  31.1941750  76.6388731   4.9972648
  31.3648183  76.0914354   4.2308349  30.3202583  76.9984679   4.8449725
  23.1847548  61.8112612  56.3127136  23.6028314  61.1009407  56.7994261
  22.2654247  61.5515995  56.2524033 112.8702526  84.5667744  69.0864515
 112.7913754  83.6300087  68.9061832 112.7595418  84.6383858  70.0345278
 113.9082124   3.8261228  19.0629500 114.4159796   3.8405185  18.2516593
 113.0147889   3.6272197  18.7828368  13.2839048  31.3756871  52.5092936
  12.3903227  31.6505456  52.3038769  13.2220900  30.4276037  52.6256943
  12.7229536  73.4529924  86.1606026  12.0610964  72.8246641  85.8718491
  13.1056786  73.7874699  85.3495121  17.1840370  83.3222103  83.8576412
  17.8726411  83.0633736  84.4700623  16.5263200  83.7519264  84.4044399
 116.2190626  78.3676720  63.1886005 115.4892562  77.8574085  62.8375387
 115.8325918  78.8821888  63.8972282  28.7133479  48.4735918  44.5144367
  28.0399394  49.1424417  44.3903685  29.3287110  48.8653421  45.1341867
 105.9167292   0.7576757   2.2308082 105.7628705   1.1707740   1.3811511
 106.8436339   0.9159713   2.4097461   3.3701345  70.1519442  87.6262760
   4.0723801  70.4661894  87.0567703   2.5701845  70.2916765  87.1195316
  83.4249248  24.3936306   8.2826156  84.2105057  24.9105507   8.1040496
  82.9639723  24.8854213   8.9622516 100.4059758  49.8297358  71.8944788
 101.2989201  50.1563358  71.7839527  99.9588933  50.0761080  71.0847569
   9.7458237  63.3657551  54.0631247   9.0647149  63.3489799  54.7354650
   9.8360324  64.2913818  53.8366127  52.4467945  64.2322636  84.6981621
  52.5917387  63.4581280  84.1541576  52.7965593  64.9575710  84.1806412
   6.8094045  18.1180584  60.8239269   6.1054069  17.8373456  60.2392721
   6.3583583  18.4430230  61.6031456  40.8938026  60.1996374  66.1591959
  40.2998686  59.9460745  65.4526711  41.4749670  60.8484411  65.7622862
 102.1296467  70.1963377  77.7910185 102.0477285  70.5523300  78.6757708
 101.2398579  70.2221823  77.4391127  26.8294239  63.1899071  54.4893789
  26.9881988  63.6155367  53.6468458  27.6757884  63.2187319  54.9355459
 101.2726428  52.6361084  73.3561039 100.7501437  53.4319592  73.4553719
 101.4186527  52.5615263  72.4130535 107.0575341  61.9822741  75.1596451
 106.4370610  62.5819111  74.7453022 106.5524705  61.1839437  75.3139400
  44.4267316  89.6238046  14.2512435  44.6919872  89.6303062  15.1709384
  43.8059730  88.8980966  14.1861361  87.4125125  40.4788595   0.7590312
  87.9659035  40.8711343   1.4343947  86.6021808  40.9875398   0.7880992
  59.7007240 102.6559167   0.1667613  58.9877118 102.9912858   0.7102508
  60.3989781 102.4497657   0.7881946 103.2847061  66.7088556  84.6046257
 103.8255133  66.5199757  85.3714943 103.0266657  65.8478260  84.2755699
  41.0629511  36.8558788  76.7527103  40.9933472  35.9017706  76.7200899
  40.4119205  37.1214533  77.4022198  14.9881852  91.6273403  77.8139400
  15.4813802  91.0418224  77.2393417  14.4608676  91.0416222  78.3571720
   9.1040218  25.2865320  14.5104522   8.9139307  25.3182226  15.4480475
   9.8673189  24.7132497  14.4400615   7.7209109  73.6613607  90.3613758
   7.0567739  74.2437410  89.9926186   8.5465920  74.1284657  90.2337360
   5.8900440  99.3443298  94.2467117   6.2298590  98.6920547  94.8593235
   6.2234288  99.0678024  93.3931160   9.4923502  80.2447796  65.3709364
   9.1321915  81.1300278  65.4242373   9.2289859  79.9307346  64.5059252
   7.6949298  26.2354994  71.5651083   6.9711316  25.6305361  71.7274857
   7.8663588  26.6378975  72.4165297  39.9208879  65.6248331  81.6787434
  40.2637672  65.3642559  82.5335979  40.6200409  65.4048777  81.0630798
  12.9960275  69.9146223  74.1235924  13.2658863  70.7271385  73.6955452
  13.4384096  69.2248821  73.6288309 109.4377639  81.0992050  93.2671070
 110.0460662  80.6085873  93.8198280 109.1622754  81.8373394  93.8107109
  13.1250811  60.5122423  86.3171005  13.1354237  60.6036472  87.2698689
  12.7953243  59.6266031  86.1650181  17.3285282  81.4658165  94.8132992
  16.6467762  82.1307278  94.7166824  17.8669667  81.5589046  94.0273857
  36.5108737  99.6633725  18.6440581  37.4585561  99.7120671  18.5185260
  36.1452628 100.1245694  17.8891677  18.2000911  65.5769873  69.8095417
  18.3340716  65.7676029  70.7379532  18.3944333  66.4021921  69.3651342
  10.9723353  71.3022709  85.0637722  10.5782032  71.2232780  85.9324837
  11.6633523  70.6399870  85.0531578  38.7942815  80.4269028  56.6030550
  39.3093061  79.9906206  55.9243536  39.3264151  80.3487968  57.3948669
   2.3530424  19.6696126  76.8522644   2.6812714  19.8779738  77.7269554
   1.4721060  20.0434566  76.8316793 102.4900892  28.4085470  13.9031428
 103.1863477  27.7717882  14.0643424 101.6850688  27.8907877  13.9127463
 103.4817579   5.9654241   5.1460952 104.2146947   6.3468557   5.6293601
 102.8427126   6.6750675   5.0807876  48.7643231 107.0816045  11.4566821
  48.0788608 107.6685910  11.7757720  48.6328746 106.2705712  11.9477767
  43.7754250  79.1183329  63.9717579  42.9231119  78.8787222  63.6079216
  43.9861536  78.4070587  64.5766640 105.4505684  14.1374450   1.6052455
 106.3160493  14.1790348   1.1984939 105.2401330  13.2038837   1.6256637
  53.7746143  72.9979706  76.3216352  53.3164787  73.5445118  76.9601011
  53.1115103  72.7925062  75.6626177  90.4643168  63.6380911  89.1340446
  89.5144691  63.7436008  89.0802956  90.6691088  62.9736614  88.4761524
  84.0946796  16.0631662  25.1040763  84.8985877  15.5553632  24.9940700
  84.3824431  16.8833690  25.5049437  37.8381610  74.2752934  69.7137976
  38.5054660  74.9197865  69.4780827  37.5607610  73.9009714  68.8776398
  47.6987476 104.9844747   8.5807055  47.0738001 105.6398921   8.8907069
  47.1531619 104.2715840   8.2485026   1.4092195  68.9444542  73.4151888
   0.7551896  69.1446638  74.0848064   2.0848748  69.6121502  73.5331011
 111.7133477  28.8650518  23.0143565 110.9293630  29.2606645  23.3952636
 111.5227773  27.9272276  22.9942721  42.5113583  54.7780800  80.4293251
  41.8856859  55.5021620  80.4076767  41.9704199  53.9918280  80.3556919
  13.6192822  96.6548157  89.7875404  13.8070416  97.5120354  89.4052505
  12.8352189  96.3541985  89.3280792  35.1663244   3.3956152  28.4602374
  36.0958374   3.5785728  28.5972136  34.7502649   3.6366945  29.2878932
  37.0221186  93.5660648  70.0944853  36.4081502  94.2902470  69.9727297
  37.1224356  93.1876755  69.2209864  76.2281848   7.3768907   1.5612525
  76.9869144   6.8060928   1.4398021  75.9411658   7.5861412   0.6723899
  53.9981270  63.5859156  94.3950653  54.5477247  62.8502560  94.1249180
  53.5206079  63.8317633  93.6027431  33.0563664  69.7009563  75.4028749
  33.1550145  68.8436556  75.8170509  33.8070416  70.2058458  75.7156086
  31.0861773  87.3107724   6.7033690  31.7717386  86.6536026   6.5835208
  30.3274186  86.8126612   7.0073432   0.4387672  70.1785707  48.5987043
   0.0168439  69.3349743  48.7616634   0.9315688  70.3585196  49.3993282
 116.1054273  71.2839699  75.2833748 116.5850616  72.0401001  75.6216812
 115.6293768  71.6220903  74.5249033  11.8051600  29.2643046  84.7992325
  12.6359391  29.3688273  84.3354225  11.7541921  30.0277996  85.3742981
 107.5992801   6.2134176  34.1599101 107.1724679   7.0349127  33.9165896
 107.0926955   5.5376917  33.7093562  30.1397014  58.9696312  94.5254326
  30.8140469  58.3915615  94.8822594  29.6725154  58.4283876  93.8890171
  22.2558475  57.2515202  69.6551418  22.7775717  57.3853397  70.4464245
  21.5737939  56.6341543  69.9195194   6.9160241  71.2101650  91.5532303
   6.3490939  71.4281511  92.2930336   7.1259660  72.0550203  91.1552715
  88.7910738   7.7944570  10.5449885  88.1710257   8.2506042   9.9760360
  89.4388571   7.4243837   9.9452704  51.0253191  54.4187260  90.4371929
  51.9748688  54.4919825  90.3411961  50.7634306  55.2369165  90.8593369
 102.6208522  47.2738552  80.3591919 102.6456298  47.1208239  81.3037586
 103.3285620  46.7320681  80.0101376  51.7291546  18.9807236  87.5782871
  52.2022533  19.6942639  88.0063915  52.4124146  18.4588361  87.1575451
 103.8110402  42.1708112  37.0108050 103.8943174  42.4245744  37.9299849
 104.6056368  41.6694551  36.8278045 110.7966723  51.7369318  58.3225393
 110.1127478  51.0673094  58.3132219 110.4767116  52.4143887  57.7267981
 106.9240280  52.5914145  91.1086082 107.4180325  53.4106874  91.1399651
 106.1706843  52.7439976  91.6790676   0.9825480  43.0424123  19.3487376
   0.8245838  42.3758608  18.6801547   1.1157835  42.5452715  20.1557845
  19.9728573  36.4855581   7.5312919  20.7000053  35.8634573   7.5094527
  19.7141636  36.5193849   8.4522456   8.4555853  64.8833662  19.6111983
   8.5651815  65.0280958  20.5510253   9.3117559  65.0889211  19.2357558
  11.9237161  78.2407999  79.3558836  12.6773691  77.7811956  78.9857435
  12.0405376  79.1508484  79.0831232   2.8351465  99.8806858  93.3496380
   3.5588568 100.2851677  93.8280487   2.0824164  99.9692154  93.9342690
   7.5664866  53.7316751  66.0573196   8.3877182  53.3602762  66.3796139
   7.8368199  54.4455051  65.4797411  31.6828043  99.6065812  28.8593596
  31.0621298  98.9161544  28.6263293  31.8511666  99.4724851  29.7920436
  78.3068567   9.7050148   3.0665893  78.6684270   9.6699434   3.9521808
  79.0725280   9.7899395   2.4984664  10.5310369  55.0087976  75.4001617
   9.7412759  54.8677492  74.8780346  10.8326364  55.8813524  75.1473331
 111.4414813  15.2805572  28.5592765 110.7533386  15.6637340  28.0153293
 111.2147405  14.3521934  28.6136264  37.2452879  70.1967144  90.5897331
  36.2883115  70.2141857  90.6008339  37.5042963  71.0642433  90.9004402
   3.7167376  69.3769646  77.1553564   4.1653797  68.8829756  77.8416014
   2.8083497  69.0785694  77.2003508  53.6849499  71.8459558  82.5697517
  53.4700918  71.0889196  82.0248127  54.6333408  71.7941380  82.6885128
  24.6122527  35.3548050  92.6363659  24.2410898  35.8216691  93.3850288
  24.0629554  35.6136250  91.8964195  35.3969550  66.9021320  85.7643986
  35.0498176  67.7381325  86.0755634  35.8800888  66.5502262  86.5120506
  92.4524178  87.9644966  64.6651649  92.2379913  88.5336018  63.9259958
  92.5033178  87.0873928  64.2852545   1.5421006  80.4390049  85.1634598
   1.2672682  80.6679153  84.2755985   1.7234954  79.5000029  85.1234341
  34.7221589  77.5192022  92.9210949  34.5605230  78.4545612  92.7977371
  34.8630071  77.1817732  92.0364857 110.9989770  76.8673849  59.1633654
 111.5364014  77.6153708  59.4239950 111.4637240  76.4866066  58.4182119
  27.1970487  96.6076469  63.0705690  26.5460539  97.3067570  63.1312943
  27.5326633  96.5147877  63.9621830  50.7115555 100.1803684  76.9565344
  50.0114346  99.7424412  77.4405575  50.3001213 100.9677315  76.6001415
   0.2312744  11.6524368  11.1141509   0.5458176  11.2995296  10.2818316
  -0.7141316  11.5038257  11.0953349  40.0489712  63.1089163  78.2719517
  39.4426727  63.8454247  78.1932735  39.6395659  62.4066210  77.7665758
  43.8919210  72.9610300  88.9634800  43.3705282  73.3998871  89.6356201
  43.4230566  73.1324291  88.1467628  48.0665302  85.0851917  63.6436749
  47.7419376  85.9848404  63.6824799  48.3797455  84.9051285  64.5300722
 112.9400399  41.7589479  15.6308383 112.1526291  42.3015123  15.5879230
 113.2251766  41.8223005  16.5423793  77.4824858  79.2032337  93.8050747
  78.3181572  79.5597267  94.1064072  77.4674559  79.3889713  92.8661919
  14.2319679  47.3409510  74.1773462  15.0926816  46.9331264  74.0820408
  13.6642730  46.6335249  74.4831324   1.4127773  63.2515335  77.9008865
   1.9054197  63.6042023  77.1598291   0.6432082  62.8431988  77.5043297
  62.5547041  90.9244256  21.5696258  61.7586840  90.6811051  21.0969943
  62.2397937  91.2984710  22.3925132  40.9734201  83.7904930  84.5409012
  40.4697084  83.0192471  84.8010921  41.1026239  84.2778587  85.3545475
  95.8954301  46.1568642  83.0848789  96.6362443  45.7352400  83.5203743
  95.3810300  45.4313135  82.7310371  21.1295938  47.2276258  74.2259979
  20.5009818  47.8152943  74.6451998  20.5900431  46.5453482  73.8264799
  24.6882486 106.3012314  80.5526733  24.8058033 106.4919186  79.6220493
  23.9197445 106.8122387  80.8066463  38.4178948  82.6009178  53.8128328
  39.2040992  83.0215168  54.1609907  37.6954722  83.1409359  54.1333294
  43.5691069  76.0181742   7.0004577  42.9307834  76.2066345   7.6883906
  44.1027332  76.8109040   6.9451732  21.0168791  30.1456642  68.2696152
  20.4617357  29.8248339  67.5588989  20.8527136  31.0883427  68.2948780
  64.6748961  92.4235039   0.7978648  63.9299167  91.8865590   0.5278129
  65.3484000  92.2463064   0.1411933  78.9476551   5.2952815  90.9758186
  78.1436003   5.8115531  91.0322952  79.3940748   5.6314898  90.1987076
   4.8340923  54.0634918  43.3070278   4.1113043  54.6889448  43.2558584
   4.6662110  53.5685396  44.1089392  21.0721779  84.0518475  46.9235563
  21.4858866  83.3512115  46.4193821  21.1953878  84.8363686  46.3891649
  50.1891626  72.0039730   3.9999694  49.3423618  71.5869765   3.8409919
  50.2988352  72.6103144   3.2674712  42.0521069  62.4007416  65.7964134
  41.3344240  62.8338909  66.2585258  42.8415203  62.6939058  66.2515116
  29.2724037  91.2818909  75.0153160  28.8158989  90.9430695  74.2452288
  29.5755363  90.5002403  75.4772329  28.8102984  84.2901325  92.6703548
  29.4224191  84.6861076  92.0500755  28.0840993  84.9117279  92.7201366
  54.4325066  73.1380081  87.2132015  53.8073730  72.8996563  87.8977680
  53.8877487  73.3594084  86.4579201  37.2851968  92.8269196  67.5745916
  37.0676851  92.2660255  66.8300629  37.6483274  93.6194801  67.1793509
  72.5543022  78.9759493  67.7722597  73.3186626  79.0584993  68.3424997
  72.8381348  78.3842754  67.0754194  27.2125435  54.9764967  82.8509331
  27.5748277  54.0910625  82.8194237  26.6858768  54.9914932  83.6500835
  12.4767649  96.7417717  84.5651436  11.6090894  96.7733097  84.1621876
  12.3650098  97.1795559  85.4090023  44.8058558  39.1175151  81.6104412
  43.9311647  39.5000267  81.5408897  44.7356606  38.2757735  81.1601353
  85.1014092  14.9684292   4.3727988  85.2642038  15.8834892   4.6016997
  84.5957580  14.6237331   5.1088256  62.2618818  80.4878616  92.0746899
  62.6589489  81.3319016  92.2895432  62.2929668  79.9931669  92.8935528
  16.6424131  61.0960722  65.5403185  17.1849263  60.3120995  65.6257486
  15.7527256  60.7607746  65.4295921  84.4132932  52.8194433   5.5444926
  84.7256561  53.6101537   5.9843177  84.0169110  52.2978788   6.2424010
  48.7759066  59.2081261  69.6818113  48.0473042  59.8288965  69.6858311
  49.2971611  59.4555569  68.9180708  42.8318930  46.1254835  88.8773918
  43.7082291  46.0840988  89.2602158  42.2405005  45.9886694  89.6175003
  14.7858632  64.4143343  59.9538469  14.2401981  63.8823700  59.3746233
  14.9595416  63.8482571  60.7059288  20.4054594  81.9152641  87.7157784
  20.3082347  82.7008915  87.1776581  19.5141029  81.5805721  87.8142357
  21.3918114  84.5579815  57.4641371  21.5617847  84.4198322  56.5323353
  20.4617476  84.3580532  57.5701618  37.1135473  48.3769464  84.1372490
  37.9766273  48.3134747  84.5462704  37.0105767  49.3075895  83.9384270
  34.3079638  28.6474562  65.1651382  34.6328688  28.2967710  64.3358660
  34.2647076  27.8877997  65.7458973  17.2745216  85.8819389  76.4000750
  16.9581389  85.6220245  75.5348730  16.5250337  85.7463932  76.9798422
 102.2763135  34.0495115  21.8862266 103.0338576  34.3075185  22.4113864
 102.1062734  33.1425195  22.1405620  36.9939650  93.2688026   4.3967933
  37.5448501  93.7053137   5.0465697  36.5782274  93.9843349   3.9157409
  22.4424970  16.9145113   0.7809085  22.4338043  16.9678074   1.7365855
  23.3211410  17.2021633   0.5329627   1.1157870  73.5206890  75.6743860
   0.3797336  74.0406752  75.3517866   1.8223764  74.1549969  75.7952929
 104.4074418  88.7270069  70.6658983 104.8268249  88.0677223  70.1130009
 105.1177551  89.0739536  71.2056351  15.6451821  67.0120859  75.2185678
  15.0586784  66.2566280  75.1795292  15.7947409  67.2467709  74.3027115
  35.0276804  72.9177666  75.0179148  35.9594226  73.0439138  74.8385429
  34.6913099  73.8009310  75.1699018  44.4716215  80.5391693  66.5018272
  44.9953175  79.9137020  67.0025921  44.0541553  80.0112534  65.8212042
  14.8454773  53.6858702  75.1003408  14.6128297  52.7617121  75.0106668
  14.8005342  54.0317535  74.2089510  18.4593332  70.8472967  78.0060720
  18.2102954  69.9892426  77.6626205  18.0110276  70.9069204  78.8496923
  41.2616062   3.2792455  93.0220413  41.1082840   3.3197805  93.9660072
  40.9620142   4.1271448  92.6941013 110.3843077  73.4106207  74.7588396
 110.8023061  72.7277565  75.2834415 109.6409955  72.9727507  74.3441248
 112.9864945  53.5739183  72.2050381 113.3585539  54.2462063  71.6342163
 112.6028468  52.9350996  71.6042376  82.7015009  66.2905073  88.7868786
  82.1849408  65.6987858  89.3339252  83.0172076  66.9616985  89.3919086
  44.2348051  78.0253029  81.0900784  44.7541714  77.4021292  81.5981579
  43.7600899  78.5336924  81.7476654   5.9106028  79.2409039  71.2417221
   5.6523412  78.6155796  71.9188499   5.5740303  80.0817966  71.5513277
   4.8054934  87.0986366  89.3893623   4.0293434  86.8303299  89.8811245
   5.3957134  87.4588776  90.0512505  41.7391396  81.3235760  79.2698956
  41.4626169  82.1207809  78.8179731  42.2739840  81.6353703  79.9999380
  21.7635107  80.0027275  61.1613512  21.9387150  80.5156422  60.3723907
  21.6293478  79.1103935  60.8420229  34.1521335  79.2968845  86.6138840
  34.6456814  79.0888834  87.4072170  34.6623468  79.9858236  86.1881161
  16.8412018  43.8420296  63.7434816  16.3273251  43.8208580  64.5507717
  16.3940525  43.2300997  63.1588125  25.7148695  61.4930344  69.7630835
  24.9848795  61.8499899  69.2571878  25.7296610  60.5626774  69.5384693
  31.0889816  43.3939791  84.0236473  31.2686872  42.4647570  84.1667938
  31.9284248  43.8269567  84.1788673  74.9895041  43.9031225   9.2251510
  75.7139402  43.6976724   8.6342067  75.4050129  44.0314775  10.0778598
   8.3237660  85.1523972  62.2225904   8.0018520  86.0263348  62.0016003
   9.0962481  85.0347996  61.6697073  36.2258887  66.2547588  88.4404945
  36.4028883  65.3306055  88.6161232  35.7130146  66.5477562  89.1937160
  27.9254842  32.0243645  79.0388870  27.0125914  31.9051766  78.7768745
  27.9757118  31.6396165  79.9139166  93.3881631  34.4484525   9.1880340
  92.9545882  34.5801264   8.3448810  92.8670564  33.7732130   9.6224612
  50.5398036   1.2167121  66.3083982  50.2510620   1.9524718  65.7684708
  50.9602953   1.6253520  67.0649910  15.9033024  28.0450273  88.7602425
  15.7154214  28.7448168  88.1347656  16.3392007  28.4861517  89.4893742
  18.6445308  53.4912729  46.2030554  18.2580602  52.7356100  45.7605124
  18.7221301  54.1558456  45.5185461 108.3211615  14.3401485   6.4540977
 108.9675405  13.9324194   7.0304507 107.5876143  14.5543438   7.0305175
   9.8360008  86.6406441  80.6601810  10.1840782  85.7719326  80.4591465
   9.6209514  87.0159817  79.8063040  51.2304306  73.7168694  80.9667873
  51.8061256  73.0087519  81.2555313  51.7606449  74.5086336  81.0573864
  34.0139699  81.9185352  80.8123875  33.4154391  82.3337746  80.1914501
  34.1875458  81.0552883  80.4370117 116.2521651  99.4178772  54.4514084
 116.0376225  98.6227512  54.9392319 116.3035194 100.1019287  55.1189947
  86.4076223  91.6315746  88.2949734  86.5417852  91.4175034  89.2182350
  85.5308046  92.0141792  88.2627869  52.1608257  93.5158920  45.5693483
  53.0400372  93.8177490  45.3410816  51.6813087  94.3158627  45.7846212
  26.5278792  90.4350853  91.3183498  27.3512673  89.9752617  91.4821434
  26.5939212  91.2367439  91.8372059  82.7689054  24.7948700  24.7341937
  82.6996078  25.4135137  24.0070647  83.6341872  24.9609094  25.1082915
  84.7843417  24.9603229   2.7468032  85.2102198  25.8169275   2.7798480
  83.8608029  25.1578527   2.5909537  29.8349667  64.4855595  65.6308603
  29.9496984  63.6243629  65.2291059  30.7262802  64.7977161  65.7869101
  43.6034060  67.2588778  83.1090069  43.3843136  66.7146873  82.3526478
  43.6663485  68.1461763  82.7554893  98.6411908  10.0847583  11.2769622
  97.8676631  10.1791197  11.8328208  99.3482854   9.8692661  11.8850821
 115.8649065  17.8834158   2.7158946 115.4414275  17.1113640   3.0911750
 115.6103637  18.6015993   3.2952422  80.4777911  40.2391153  12.8700942
  81.2456920  40.8031755  12.9617328  79.9719652  40.6364542  12.1612281
 116.1366561 102.9059653  14.8921794 115.8385638 103.8134532  14.9541491
 115.4640487 102.4011760  15.3493709  16.8210363  57.1129656  77.2141552
  16.7925847  58.0313110  76.9457054  17.6406729  56.7814875  76.8473434
  22.5683201  23.4299570  15.6873816  22.3268068  23.9923244  14.9514216
  22.1574152  23.8410764  16.4478892  74.9520649 104.3557792  23.0652255
  74.9426926 103.9027648  22.2220630  74.5855607 105.2197652  22.8770083
   2.1866834  66.2349272  48.9890003   2.7150586  66.4028454  48.2087088
   1.3337763  66.6202211  48.7881851  35.4548119 108.2046466  21.0218543
  36.1854167 107.5944381  21.1223144  35.3154109 108.2577853  20.0763434
  30.4013133  98.0662632  78.4033108  29.7428513  98.7596798  78.3606100
  31.2378907  98.5311031  78.4205437  41.5166330  58.8122606  84.5528221
  41.5936470  59.7424364  84.3405247  42.4165249  58.4866619  84.5325661
  22.3096418  86.6969776  83.7874413  23.1472063  86.4247131  84.1623974
  21.6723132  86.0846710  84.1550446  33.6105609  49.3127108  81.4181423
  33.4520411  48.3871365  81.6036606  32.7380633  49.6830988  81.2847519
  23.6974859  92.5989914  59.5709085  23.5191131  91.6626549  59.6585989
  23.8270473  92.9032803  60.4691601  36.1229300  62.2750711  80.4151249
  36.3817239  62.9934454  80.9923553  35.3233647  61.9269085  80.8097267
  14.1750050  82.3191643  79.3032265  13.2676947  82.0370007  79.1874504
  14.6559024  81.5113831  79.4833994  13.3071399  65.5592299  83.7136745
  12.7608168  64.7959757  83.5260487  14.1251624  65.3888655  83.2467175
  38.4397531  73.3909130  65.1421309  38.7889123  74.2821598  65.1441050
  38.0957937  73.2664680  66.0266876  95.6928720  94.0520668  79.9756002
  95.6870451  94.1068268  79.0199852  95.2151360  94.8301315  80.2630138
 115.8317306  31.0570627  18.3928794 115.7360413  31.9817072  18.1646079
 114.9554231  30.6898122  18.2769412  13.9705908 104.4396687  71.3232279
  13.2180715 103.9122868  71.5912151  14.6338892 103.7983704  71.0682726
  17.2505856  68.5133791  69.4889450  17.2690558  69.2444801  68.8713789
  16.3365626  68.2292414  69.4964647  22.9392695  41.0828209  69.4444609
  23.8045406  40.8333445  69.1199636  23.0896950  41.3405037  70.3539705
  73.3761311  80.9246540  74.9451590  73.5321712  80.0343323  75.2601290
  73.7692547  80.9423733  74.0725946  67.3446478 105.7367043   0.5566806
  68.0225028 105.7053428   1.2317771  67.5248755 106.5431600   0.0735873
  20.7547307  60.3624392  79.4504452  19.8676538  60.1159811  79.1885567
  20.7843685  61.3118219  79.3320179  29.0601714  89.4771223   6.1149997
  28.3753647  90.0905900   5.8486766  29.6715892  89.4662313   5.3786010
 113.5879900  60.3485590  31.3332004 112.8182557  60.2151972  30.7800693
 113.2357266  60.6874662  32.1561736  41.4200258  68.0782127  85.8150959
  42.0757675  68.7571764  85.9739876  41.4128542  67.9700470  84.8640537
 115.9708621  50.6618977  62.1675014 116.8229006  50.7817507  61.7480993
 115.4117631  50.3063393  61.4766884  15.1845396  77.0158052  70.1028013
  15.8229578  76.3028669  70.1221085  14.3444967  76.5897560  70.2732182
  36.1602664  89.8586655  35.6711221  36.2534237  89.1590595  36.3177323
  36.9495869  89.7945213  35.1334500 106.3022687  24.3822294   9.1972751
 106.8681457  24.9955517   8.7284011 106.9076040  23.8150173   9.6748466
   5.2601302  86.7205524  84.0538502   5.2757066  86.7265320  85.0109100
   4.3306336  86.7628002  83.8291740  90.7088020   1.6219907   6.9366378
  90.1787581   2.3747640   6.6746921  90.0934865   1.0388475   7.3811168
   9.5494127  83.2006073  68.5024118   8.6138332  83.2467365  68.3054495
   9.8038268  82.3130226  68.2500076 100.2768089  54.6687460  71.3581467
  99.4727411  54.6650171  71.8774652 100.3510835  55.5678034  71.0381413
  51.9194460  60.3995371  85.7828045  52.2196865  60.7850599  84.9597168
  51.6635132  59.5070601  85.5499554  35.6339192  58.1704712  79.7589684
  34.7867894  58.5689926  79.5595026  35.5257559  57.8046799  80.6368828
  98.0936720  43.7518507  16.5726298  97.5974777  43.1357389  16.0337180
  97.5173559  43.9402395  17.3133105  10.4853892  94.0024376  74.9692154
  10.5494213  94.4409561  75.8176470  10.4498374  93.0702114  75.1835108
  75.1250830  11.6188627  16.8539161  75.8691355  11.3771587  16.3023681
  75.0900912  10.9345394  17.5222701  12.6982415  70.0926590  51.0825253
  12.1741927  69.2920256  51.1068535  13.2518435  69.9931192  50.3080273
  16.5709198   9.3041950   7.5141162  16.2678564   9.0183645   6.6523189
  16.3496053   8.5790830   8.0984706 102.7373626  40.5423594  88.1590462
 102.9118933  41.1685991  87.4564838 102.4502959  39.7490191  87.7068996
  93.4871557  11.1884933  27.7662677  92.9873207  11.5005356  27.0119208
  93.9738157  11.9565397  28.0654258  24.8976398  85.4722404  70.0062847
  25.7923603  85.7332611  70.2244043  24.9400997  85.2189159  69.0841913
   3.3448949  79.0015841  60.4583836   2.4810334  78.7545443  60.1283121
   3.8128942  78.1715631  60.5493402  62.8696203  75.2189779  74.9240446
  62.2841072  75.2372694  74.1670322  63.7244606  74.9886322  74.5601511
  18.5333586  96.6574860  84.0419483  18.8386858  97.5626755  84.1022968
  18.5664427  96.3330460  84.9418736  52.4005651  73.3975410  93.8263416
  52.7666330  72.8352404  93.1436634  51.5082026  73.0741024  93.9500713
 108.5468908 108.4944344  86.2502003 109.1530712 107.8160286  85.9526348
 108.7989505 109.2744064  85.7559013 110.0324478  99.3284416  57.7099228
 109.8690935  98.6161423  57.0917177 109.3029722  99.9336147  57.5762463
   6.7010128  31.5015674  91.8288231   6.3065475  31.5215087  90.9569073
   6.1091149  32.0225596  92.3714638 114.2022183  34.0965849  22.7322215
 113.4362271  34.5032697  23.1373137 114.0406921  33.1559377  22.8051871
  43.2666969  72.4083757  65.1209021  43.9185619  73.0739021  65.3408575
  43.6197615  71.5972519  65.4864931  99.7136750  64.4122267  78.5945177
 100.0507571  65.0168848  79.2555761 100.4962637  64.0628147  78.1682587
   1.2598598  47.3387056   1.4484042   0.9718550  46.5484815   1.9053859
   1.2447155  48.0219370   2.1186275   4.8215246  96.0341263  72.5229645
   5.7124823  96.1173916  72.1831226   4.4633007  96.9204998  72.4756002
  21.6883922  36.6370654  84.4429207  21.5352321  35.6950736  84.5165920
  22.1809220  36.7366505  83.6282253  26.9518352  58.9284515  64.2284250
  27.2440839  59.8291636  64.0886545  26.5699339  58.6677790  63.3903122
   6.3822156  94.5230198  59.6398163   6.8985033  95.0447083  59.0253925
   6.8809795  94.5515919  60.4563046  68.9882292   4.4088984  48.8344145
  68.9262761   5.1052905  49.4881964  69.7668542   4.6290446  48.3230352
 101.0646679  28.2232767   7.0540065 101.0338547  28.8307386   6.3149089
 101.2092688  28.7821775   7.8175277  96.5881100  56.5600019  12.3155803
  96.4470830  57.5021749  12.4086207  95.7849600  56.1631590  12.6527709
  99.1729333  56.4810568   9.6709556  98.6539009  55.8748823  10.1995296
  98.8164570  56.3936334   8.7869185  59.4867134 103.5616970  47.1222401
  59.9401331 103.1879711  47.8778648  58.9981127 104.3035030  47.4789190
  46.2610912  98.8856983  75.6353283  46.7588902  99.6577072  75.3661966
  45.9802055  99.0814686  76.5292025  33.3699608  56.7079782  84.1623497
  33.3876204  55.9197807  84.7051716  32.4628091  56.7729712  83.8638783
  14.9184120  13.7461382   1.5883559  14.7501266  13.7210804   2.5303096
  14.0635240  13.9257198   1.1970157  30.3767443  64.9655294  74.2988253
  31.1705208  64.9222374  74.8320007  29.6701932  65.0958586  74.9313068
   3.3136323 103.9658642  51.1233282   2.5612101 103.9482975  51.7147493
   3.7603527 104.7872162  51.3284063  23.0897331  71.2727022  71.4996910
  23.1615138  71.8920422  70.7734013  22.2648859  70.8133268  71.3420963
  48.2733393  70.6467533  85.2682495  48.7075520  69.8003244  85.1622105
  47.3629189  70.4812527  85.0233364  19.4140136 101.0011196  56.3011312
  20.2756000 100.5843258  56.2877512  18.9806998 100.6307697  57.0700932
  53.0453300  59.0283108  88.4638691  53.0802727  59.1326284  87.5130081
  52.4663734  58.2785702  88.6014462  33.4769905  53.9555174   9.6647090
  33.8266218  54.7887235   9.9805469  34.2256916  53.5210710   9.2561263
  17.5289738  67.7463484  85.6485462  17.5905955  66.8431759  85.9595299
  17.8008509  68.2766581  86.3976002  47.8539075  20.0055171  84.1631603
  48.1228406  20.5858279  83.4510231  46.9001580  19.9656440  84.0924263
 111.3547900  44.3722730  24.1141147 110.5144169  44.4740301  24.5609397
 111.2676980  44.8963552  23.3178824   5.1247364  52.0430756  59.7127819
   5.2570295  52.3014641  60.6249046   5.9721702  52.1966076  59.2950344
  51.1454201  78.0250454  88.7737942  50.8697748  78.9142752  88.5512543
  52.0947075  78.0307817  88.6511040   9.6148098 104.9388695  74.5277834
  10.4661489 104.9501514  74.9651909   8.9801919 104.8663807  75.2406883
  42.0000792  86.8155575  84.2555809  41.5191460  87.2916794  83.5786533
  41.5145445  85.9978008  84.3640327 113.3448794  38.8927370  12.0811576
 113.1454399  39.5217329  11.3877505 114.1244485  39.2470174  12.5089282
  32.3234558  89.9750996  76.6150904  32.2640061  90.9032249  76.3886309
  31.4324999  89.7325516  76.8672752  13.8342917  97.4250031  42.4002171
  13.2115388  97.8790283  41.8325281  14.6044457  97.9932594  42.4136829
  20.2432394  52.2761583  92.6260281  20.3946209  51.3391829  92.5019836
  21.0231471  52.5858831  93.0865097  43.2836723  73.0212021  71.3852358
  42.6036072  72.5727701  71.8878841  43.0218792  73.9418364  71.3962698
  39.5969367  98.6226177  75.4675817  39.0635991  98.4312916  74.6961069
  40.4307842  98.1846809  75.2969122 107.9274943  55.8185583  28.7673682
 108.8357999  55.6245523  28.9988250 107.4494126  55.7477098  29.5935935
  46.0021687  63.9027500  65.4594803  45.7640839  64.2214012  64.5888424
  45.1813602  63.9150763  65.9517765  37.3719883  88.4611702  74.2265129
  37.8881049  88.9844513  74.8397303  36.4908171  88.4541225  74.6003056
  34.7833562  79.4773960  83.2719231  35.4337358  80.1774311  83.3283424
  35.1602578  78.7588120  83.7796688  94.5808449  21.0116916  19.3103999
  94.9804904  20.1567417  19.1504592  94.1326299  21.2235027  18.4915751
 100.0620439  19.5529514   4.0743464  99.1290715  19.6284156   4.2746085
 100.4161003  19.0143448   4.7820014  50.0819911   1.2010623  82.8120613
  49.9971212   1.5591288  83.6956978  50.9871448   0.8934355  82.7642059
  58.5500765  89.9477768  95.1572323  58.8312244  90.0170231  94.2448807
  57.6009607  90.0677013  95.1251411  22.6354873  48.7883669   8.2687587
  22.2702396  48.9003664   7.3911017  22.9266012  49.6647363   8.5206717
  39.7093868  23.6672115  77.5853014  39.1380477  22.9179907  77.7540398
  40.3079414  23.3631063  76.9030333  49.5759870  21.2547446  52.1134567
  49.5505108  22.1931983  51.9267035  48.7377353  20.9235526  51.7911530
  25.0750613  92.7816200  70.9992838  25.0444579  92.2795773  71.8136883
  25.6469774  92.2721386  70.4252005  98.7940801  19.1301013  90.2292156
  98.0155529  19.5790625  89.8997307  98.6713470  18.2167483  89.9704838
  33.5719371  84.7431946  77.0931005  34.1018677  84.9001503  76.3115835
  33.0868769  85.5583763  77.2212601  74.9006224  78.2324409  93.1634998
  75.6051254  78.1030130  92.5285530  75.3330803  78.6167717  93.9260674
  24.1560483  83.4153366  85.1124191  25.0906610  83.5040188  85.2991486
  24.1215229  83.0815411  84.2159748  25.7959175  61.0958862  89.4928551
  26.2843657  60.8908653  90.2901173  24.9110365  61.2951374  89.7986698
  48.9127064  83.2947636  80.5954075  48.8462257  82.6466370  81.2966442
  49.8273468  83.5763168  80.6154060  92.2301211   9.8597770   1.4241427
  92.5418689   9.8511177   0.5191726  92.8904035  10.3634744   1.9001121
  37.1349597  41.0672855  87.5902557  37.5399256  41.9244528  87.4579811
  37.2842383  40.6022596  86.7670250  76.4237373  20.0046306  25.3093451
  75.9316807  20.6495481  24.8012179  77.2475559  19.9022489  24.8328227
  38.6509156  85.9221363  56.2408686  39.5925021  85.9213352  56.4130497
  38.3118081  86.6461945  56.7671537  15.5795431  70.6599283  64.3785763
  15.7859588  70.1798105  63.5766315  16.4282298  70.8020401  64.7978210
  64.3993855  91.2271881  66.9924831  64.2237234  92.1088600  67.3211670
  64.5198917  91.3425446  66.0499334   1.2267904  76.2484455  67.3361206
   1.5132685  76.5010834  66.4584303   0.4764393  76.8150377  67.5155020
  39.7828197  72.0064116  70.2474070  39.9558663  72.9103088  69.9842548
  39.8640037  71.5016413  69.4381809   5.6772745  47.3614126   8.0924815
   6.2796963  47.1920305   8.8167876   6.2129629  47.8034502   7.4337882
  25.1989937  93.6144733  49.5085621  26.1080170  93.8610649  49.6791553
  25.2443528  93.0528450  48.7347746  69.9652876  10.0371981  76.6003180
  69.7875465  10.8375693  77.0943356  69.1482891   9.5406295  76.6468000
   2.9609135  84.5356560  73.4064341   2.1244040  84.5480824  73.8715506
   2.7413860  84.7956371  72.5117540  15.4260373  45.3521633  89.5596886
  15.1543128  46.2517118  89.3774605  15.2430427  45.2307606  90.4913616
  35.7581210  95.5778885  77.2025681  35.7604027  94.6380997  77.3843098
  34.8992729  95.8774090  77.5007248  36.0395658  37.7723795   7.5492019
  35.7288301  36.9487672   7.9251689  36.6676033  38.1062132   8.1897944
 103.1502308  26.9628573  60.3676748 102.2648491  27.2271968  60.1177645
 103.4407009  27.6429892  60.9753656  70.0349188  65.0125694  62.8158331
  69.6138144  64.2635584  63.2376051  70.8012486  64.6415281  62.3784637
  45.4090738  74.6913719  64.2437887  45.1955271  74.0153933  63.6006069
  46.3517046  74.8258877  64.1458941 103.2229092   2.9002481  24.6910304
 103.7449076   2.7153783  25.4717845 103.0020239   3.8286787  24.7649116
  17.1729435 109.4591432  20.0575179  16.2610305 109.3520646  20.3280372
  17.6657523 108.8853745  20.6441802  90.4516792  52.2898769  79.5043993
  89.7628689  52.2239065  80.1657772  90.0139236  52.0758343  78.6805105
  14.0322292   4.8128896  19.5223826  14.4757641   5.5041748  19.0308207
  14.6032083   4.6485477  20.2728576  30.6819708  25.0548220  68.1050730
  31.0874773  25.7843638  67.6364803  30.1374145  24.6212340  67.4480438
 115.8668152  98.5568237  60.5315733 115.5374709  97.7445412  60.9162426
 116.7848746  98.5939217  60.7999420 106.2155594  96.2813568  82.5965691
 105.9852209  95.6859016  83.3097363 105.6165053  96.0485458  81.8872261
  28.5040116  62.8230715  89.6318340  28.0646634  63.0222178  90.4586029
  29.1345310  62.1381903  89.8545742  38.3594465 100.2039814  79.1846514
  38.2103586  99.8092270  80.0438213  37.7388978  99.7604656  78.6063433
  32.6690936  76.4809608  89.3711853  32.3953080  75.5928040  89.6002007
  33.6203551  76.4228535  89.2819881  32.6101303  82.8441525  78.7479496
  32.2157907  82.1879673  78.1733608  33.0477095  83.4522724  78.1521702
  36.5124226  74.3147564  88.1925201  35.9330511  73.5948467  87.9429531
  36.3999176  74.3954086  89.1396618  31.1975217  94.4469261  85.3001499
  30.4301023  93.9825630  84.9659920  31.9172835  93.8241196  85.1987362
  84.7784710 101.4451313  93.3692646  84.0174103 101.0616875  92.9333878
  85.2636623 100.6933784  93.7094021  21.6561770  91.4013767  74.8834944
  21.8147898  90.8349991  75.6386709  20.7034183  91.4833260  74.8414850
  53.9331485   8.8170672  88.2039928  53.0390884   8.8163901  87.8621101
  54.4878377   8.8289595  87.4239922  65.2228928  99.1480637  79.0106583
  64.8666143  99.0878582  78.1242752  64.5242167  99.5556736  79.5224476
  87.7131750  10.7434612   1.0893458  88.4193065  10.5291658   0.4796905
  87.9593172  11.5947300   1.4512652  39.9984193  92.7511787  59.4818115
  39.0986013  92.4318123  59.5493412  40.4865408  92.2282410  60.1178169
  60.3327608 103.1386662  83.4652328  60.0872469 103.3761024  84.3594265
  60.6436539 103.9565182  83.0770397  37.7365661  81.1004639  87.8280354
  37.2165680  81.8455887  88.1290817  38.5585642  81.1702919  88.3135033
  17.1655357 101.7310715  88.4995937  17.1675301 101.6136837  87.5496197
  16.8145370 102.6117897  88.6313629  77.3281765 105.7757473  69.7977257
  76.5795612 106.0581303  70.3231382  77.9518270 106.4991188  69.8611879
  31.8937469  68.0762339  65.4290628  32.0971274  67.3671913  66.0390854
  31.0496974  68.4145975  65.7279348  22.7725792  65.2334309  84.7120476
  22.7881503  64.4246626  85.2237892  22.9687333  65.9223986  85.3469372
  10.9437919  67.1319771  93.3145523  11.8128872  66.7790937  93.5052776
  11.1128008  68.0003691  92.9490948 116.2297156  22.9004722  18.8233966
 116.5285327  23.3099943  18.0114669 115.4440071  22.4151045  18.5717887
  27.3874211  63.8749790  92.0480537  27.7149892  64.7267246  91.7591572
  26.4348197  63.9677858  92.0351315  48.6598391   5.5930758  61.9386625
  48.8493038   6.1722136  62.6768589  47.7163858   5.6797553  61.8022346
 107.9804995  55.4571539   5.0901526 108.8771870  55.7844644   5.1612014
 107.7348330  55.6271368   4.1807670  59.0211535  91.9290161  82.7889919
  59.6714401  91.3984966  82.3286629  59.3987465  92.8084087  82.8069401
   7.7148741  55.3720331  61.9914103   8.2586128  56.1521530  61.8819094
   8.2004124  54.8266077  62.6102781  17.0645821 108.7952042  65.6060076
  17.1282792 107.8952980  65.9259129  17.0695126 108.7113476  64.6525002
  37.8714275  68.2579279  85.1731968  37.0469332  68.3566713  85.6493187
  38.3120012  67.5267696  85.6062508 110.9395768  88.8048553  57.2352934
 111.2089207  89.0379143  58.1237555 110.3335979  89.4999409  56.9786215
  26.3559532  61.6274452  72.6455259  25.8637047  62.3729372  72.9892731
  26.1762381  61.6347504  71.7053747  75.3683615  80.9202290  56.3185835
  76.2739658  80.9628391  56.6256571  75.4204798  80.4569912  55.4825592
  19.0981817  72.2144508  88.2301044  19.2757893  73.0444479  87.7876186
  18.1559408  72.2293711  88.3979988   4.4326484  38.0227476  12.3754329
   4.1038120  38.9177519  12.4594611   3.6731375  37.4702078  12.5600165
  21.5720248  92.7990246  67.2942877  21.9943213  93.5674477  67.6782513
  22.2979188  92.2340584  67.0294952  55.3050327  95.5644703  87.8884602
  55.5469275  95.4099655  86.9753075  54.4131470  95.9092426  87.8449345
  22.7196264  59.5570898  40.2695656  23.5944533  59.9451303  40.2878237
  22.6856804  59.0060091  41.0514736   4.5747194  79.2153263  75.1808929
   4.5802987  80.1109886  74.8432732   3.9498901  79.2364740  75.9057188
  51.5914382  16.3154937  89.2428303  50.9358872  16.9399501  88.9321136
  51.8435241  16.6426612  90.1063442  68.7837781   6.2747527  66.4479303
  69.3656458   6.9832564  66.7230415  68.4349645   6.5649176  65.6050968
  18.3654952  71.9882059  61.8777418  18.3502102  71.1692047  61.3825274
  17.6019955  72.4724483  61.5634012  28.1532955  90.7279873  72.4803925
  28.8323116  91.0396385  71.8820286  27.5935626  90.1717186  71.9386387
 105.9785821  43.2032972  22.6325053 106.7563679  43.6551004  22.9598540
 106.2771490  42.3116689  22.4533576  35.1407480  73.9502144  66.2618828
  35.7562947  73.2665253  66.5262747  35.1993322  74.6067190  66.9560003
  43.7883997  77.6027775  71.6559124  44.5715475  77.7292347  71.1202669
  43.5001469  76.7129850  71.4524078  56.4843035  87.9059124  55.2284098
  57.1778584  87.9630375  54.5711851  56.8393803  87.3252869  55.9014797
 100.1502921  64.7998911  31.7964286  99.7361495  65.2921777  32.5052089
 100.5696680  64.0584284  32.2330016  22.0739007  82.4576759  45.0402975
  21.8472838  82.6311970  44.1266441  22.6832509  81.7205811  45.0001001
  14.8690176  71.7627859  71.6623211  14.6948469  71.9870377  72.5764322
  14.0073168  71.7698383  71.2456036  87.4021437  12.6687151  14.8695678
  87.0116159  11.8328624  14.6144790  86.6540220  13.2325512  15.0661200
  20.9383321  88.8582230  91.7094898  20.8370113  89.1825390  92.6043606
  21.8257332  89.1163254  91.4602280  91.2166347  93.6686039  75.7395363
  90.7607045  94.2694187  75.1501513  91.9814219  93.3792496  75.2419329
 105.4212286   9.5052534  20.2345485 105.6562688   8.9495664  19.4914454
 105.5389907   8.9433723  21.0004825  61.4963688 107.9019837   3.0129642
  61.4104689 106.9502311   3.0678958  60.7829822 108.2385497   3.5552138
  22.8404034   3.9142848  61.3994455  23.7109340   4.2553759  61.1943531
  22.5851239   3.4238387  60.6180811  89.4456257  70.9782553  73.9165735
  88.8621845  70.6436443  74.5976496  88.8595166  71.2403107  73.2066154
  46.1339176  57.2581106  19.7136516  45.9464729  57.4702364  18.7992686
  45.3971374  57.6267915  20.2009505  34.7175527  78.4306908  74.0662193
  34.1899538  78.0848694  73.3463049  35.3728962  78.9825153  73.6393213
  99.4745734  37.6255518   0.5729217  99.8542240  36.8717199   0.1214332
  99.0917876  38.1556135  -0.1261884  13.1829107  61.7927557  25.2243823
  12.6425541  61.1421686  24.7760791  14.0756166  61.6022115  24.9362964
  39.4636607  96.9446850  61.8233347  39.3203855  97.6330948  61.1738729
  40.1221657  96.3744164  61.4265966  73.3322486  15.2092367   0.9655589
  73.9881989  15.8953815   1.0887069  73.7834897  14.5348602   0.4577846
  20.7259297  75.9433603  66.7463112  21.0237598  76.4529610  65.9927607
  20.8658671  75.0319338  66.4894962  86.6134323   3.0946875  92.3778629
  86.7877687   3.5022879  93.2262135  86.7991127   2.1658469  92.5157356
  43.1568718  89.3637180  76.6967249  43.2905817  90.0651264  76.0592365
  43.6697292  88.6303616  76.3570404  42.4652910  79.5097637  87.3656273
  41.8459082  79.2653799  86.6779709  42.1516132  79.0506029  88.1447315
 108.0029061  61.7166620   5.6685561 107.5673034  61.6483026   6.5181464
 107.7060869  62.5547510   5.3139609  25.5473590  54.7180414  54.5549488
  25.1665497  53.8885021  54.2667150  24.8508525  55.1391029  55.0587511
  38.7655735  76.6842794  63.5860348  39.5309424  76.6399908  64.1591692
  38.0398369  76.8996668  64.1718245 105.1222279  41.2753874  19.7413177
 104.7967031  40.7804590  20.4931945 104.3324091  41.5906721  19.3019885
  86.4328840   2.3962408  34.4974154  86.0608538   2.1182066  35.3343886
  85.8340516   3.0731922  34.1821975  71.2210931   5.0382281  91.4819050
  71.4127124   4.8834277  92.4068642  71.9594444   5.5605841  91.1684990
 106.6974547  37.9827505  24.1717929 106.7586710  37.9669862  25.1269073
 107.0491626  37.1365553  23.8952464  15.5800808  30.9082609  32.0538157
  15.1652849  31.5296083  32.6522368  15.3166569  30.0481992  32.3811168
 115.4424183 103.1560040  69.6451330 115.6790464 103.7585258  70.3502607
 114.5314716 103.3695984  69.4431782  19.0731692  67.1007442  93.5742569
  19.0584075  66.5309048  92.8052998  18.6677873  66.5789795  94.2668343
  62.8064251  82.8613949  84.3560219  63.6263180  82.3729706  84.2822170
  62.7333498  83.0673122  85.2879429 111.6717889  62.8228479  16.0803813
 111.6083839  62.8277975  15.1253051 111.2771871  61.9910341  16.3423175
 114.5099738  46.3286215   3.7843913 114.3113902  46.9020849   3.0441684
 114.7186568  45.4845148   3.3841819  66.4275851  34.1397863  14.9048346
  66.2125351  33.5265928  14.2019958  67.2023704  34.6044450  14.5885676
  86.8244102  22.8380685  33.0425948  87.0412865  23.1976038  32.1823997
  87.0089193  21.9020754  32.9644126  31.4422417  77.1356869  65.6368351
  31.3935900  77.6433802  66.4468479  30.8954525  77.6194286  65.0177670
 105.3221943  64.8740106  43.1819648 105.4526641  65.3759866  43.9864654
 105.7290842  64.0260988  43.3600635  39.4560504  81.2690258  60.4024267
  38.9819145  80.7681084  61.0661316  39.9452233  80.6103802  59.9093485
  56.1160278  90.9927368  94.3008995  55.3118420  90.7098579  93.8655758
  56.4612055  91.6865540  93.7390232  77.5368680   1.4339495  83.2538700
  78.3149351   1.1875773  82.7537251  77.4504007   2.3768187  83.1132793
  37.3445702 108.7242889  63.1641960  36.4306021 108.6587334  62.8874397
  37.8418255 108.3424950  62.4408674  28.1031513 106.6598129  84.0103054
  27.7256656 106.2372208  83.2388401  27.9133701 106.0579681  84.7300243
  70.1035833 100.5905342  91.3152695  70.4700470 101.4684868  91.2097073
  70.0762749 100.4546833  92.2623920 115.9293400  74.9721909  79.3569088
 115.2570475  75.3234339  78.7730598 115.6221363  74.0919447  79.5737648
  55.3670883  89.4438076  78.3351564  54.9340916  88.8173103  77.7552891
  55.8312702  88.8999367  78.9715242   9.3134678  34.4704157  26.4866179
  10.1923502  34.3675619  26.1216182   9.0243042  35.3286176  26.1765975
  21.9580054  95.9192753  46.8297052  21.9850373  96.8730164  46.9064140
  22.2718740  95.6018925  47.6764536   6.0461414  26.1121374   5.7198352
   6.8842733  26.1741930   6.1779994   6.0067785  26.9044119   5.1841372
  39.9953294  26.0252619  55.2203083  39.5934010  25.1570201  55.1912594
  40.6189775  26.0249090  54.4941616  24.3537712  76.2853718  69.5639849
  23.6123848  75.7103682  69.7535944  24.9983096  76.0759449  70.2399635
  74.9095440 109.4281769  93.8859653  75.0449896 108.6439133  93.3541679
  73.9870739 109.3898964  94.1385841  71.6655493  89.2908382  80.9906483
  72.4191093  89.2153549  81.5760422  71.9754791  88.9416695  80.1550293
   5.0571948  90.0183296  88.4137440   5.3258878  89.1147804  88.5799503
   4.5231906  89.9674416  87.6209736  34.1248631  82.8035259  55.1203108
  34.7462296  83.5270119  55.0383568  33.4558511  83.1294250  55.7223463
 111.3560470  66.5609264  54.5489550 111.2918248  66.4824343  53.5971451
 110.6620749  65.9928417  54.8834944   2.9252994  25.6708818  11.1441058
   2.8791225  25.3277307  12.0364875   2.1469486  26.2214189  11.0586184
 111.6680529  44.3747526   1.4516276 111.0096743  44.7253042   2.0515269
 112.3064306  43.9452558   2.0210570  13.3781588  94.4327164  81.7069626
  14.0469670  93.9544487  82.1970654  13.5751343  95.3550529  81.8704414
  12.2529447  53.6759668  14.0667933  12.5133550  54.5871835  14.2013473
  12.4213875  53.5132795  13.1386775  16.6178751  97.9049397  39.6735311
  16.2252831  97.4458313  38.9310145  17.5521290  97.9380512  39.4678497
 103.3189227  37.3119837   3.0915851 103.0054238  36.4119058   3.1799430
 103.8870838  37.4433237   3.8506431  57.8247417  19.5683432  80.9149647
  58.6273135  19.7387076  80.4219341  57.4870301  20.4376364  81.1306286
   3.9787063  80.0903225  29.9385214   3.2549968  79.5008755  29.7263241
   3.8272929  80.8617496  29.3924403  10.5244398  66.9235659  82.6156044
  10.6951857  67.7164268  83.1239796  10.7114780  66.2060213  83.2209015
  76.5360403  85.2701187  88.0808735  75.7335997  85.7853889  87.9983044
  76.4998102  84.6518230  87.3510551  12.3092949  72.0195818  70.7120609
  11.4658523  71.5739679  70.7912064  12.1622849  72.6946545  70.0495672
  84.9316009  59.3547731   8.1800193  84.7465869  59.9145799   7.4259490
  85.6697049  59.7788244   8.6177653  71.2209382  73.4219843   6.3756579
  71.3101020  73.4235864   7.3286933  71.1221542  72.4980264   6.1458987
  50.8453894  98.7446785  66.5009928  50.7194853  98.3532810  67.3653889
  50.0674009  99.2861366  66.3676167  48.3919334  79.4306850  86.4112091
  47.8532124  79.0013266  87.0757771  48.3127928  78.8697195  85.6396580
  65.6625260   1.0705996  74.7835588  65.7056059   1.2672473  73.8477659
  66.4455808   1.4807273  75.1507807  34.9968886  90.4695988  84.7361279
  35.7317948  90.4671288  84.1228294  35.1772547  89.7400951  85.3290176
  41.6455412  83.3933830  56.7538929  41.7172241  84.3452740  56.8245745
  42.1678305  83.0590630  57.4830484  96.8429699  13.4998851  18.1192893
  97.2528555  13.2738929  18.9542502  95.9849956  13.0767017  18.1513614
 108.0133893  65.3956699  80.6912708 107.3515775  65.3807306  81.3826561
 107.6154860  64.9106646  79.9683094  41.3442087  94.4275379  80.9511185
  40.9925938  94.5485020  80.0690937  41.9229126  95.1784420  81.0833359
  28.4122205  96.8449211  39.5020866  27.9425645  96.2314415  40.0671434
  27.9244566  97.6647282  39.5810103  24.0132189  40.6834269  63.7732172
  24.9175191  40.9926271  63.8267469  24.0009189  39.8862386  64.3029118
  32.7402806 108.3633518  93.6681271  32.3778534 108.6812019  94.4950771
  33.6887026 108.4149647  93.7867165  57.8877449 102.7476406  71.6275644
  57.0785666 103.0653381  71.2268972  58.1241512 101.9770432  71.1112881
  93.1200387  23.7304168  22.4306792  93.9579608  23.3169132  22.2229976
  92.5303485  22.9986530  22.6123828  28.1551886  96.6394329  85.9526062
  27.5172734  96.0167122  85.6040192  27.6404166  97.4197674  86.1583328
  44.6875000  80.0873184  78.4669065  45.3562546  80.5579472  78.9644051
  43.8712835  80.2665615  78.9337015  33.2267761 107.7478504  41.1268663
  32.4451566 108.1230831  40.7212687  32.9350924 107.4666977  41.9941044
  41.9272518  75.3303766  89.1764545  41.1111689  74.8425293  89.2871189
  41.7805958  76.1519718  89.6451855  66.0970701   7.7804709  91.9587231
  65.3380264   7.9261637  92.5233936  66.2709416   8.6357928  91.5657520
  32.3348546 104.7764683  80.4574490  32.9672694 104.3067455  81.0011768
  32.7496362 104.8260689  79.5962143  21.6400433  96.7563820  76.6320610
  21.6432738  96.9367313  75.6920052  21.5850067  95.8026981  76.6927910
  31.5940118  78.5312271  85.6094933  32.2468090  78.8801622  86.2163925
  31.1667490  77.8265667  86.0964489 108.5275319   8.9413553   1.9243449
 107.6679041   8.5734039   2.1289939 108.4419896   9.2656427   1.0278243
  83.9587518  74.8279958  12.2979373  84.6116724  75.5235105  12.3765677
  83.7734713  74.7783189  11.3601512  38.5460520  71.6320038  57.2010422
  38.5903573  72.3058987  56.5227079  37.6912689  71.7615509  57.6118898
  75.8213090  46.1851507   7.3684329  76.2823906  46.6948991   8.0346126
  75.5853442  45.3700452   7.8113193  15.5224597  77.0822287  56.9732428
  14.8126149  77.6664734  56.7067671  15.3605187  76.2723732  56.4893627
 101.4534094  60.8606058  30.1362723 102.3353603  61.0690122  29.8281116
 101.2430289  61.5621286  30.7525748   0.1362710  72.3415279  36.5958548
   0.0147191  71.5814638  37.1648526   0.3505114  71.9686985  35.7406759
  29.3225050  89.5098019  77.0700121  28.9481473  89.8067856  77.8993988
  29.2678261  88.5550308  77.1107864   1.0265196  72.8901010   2.9201049
   1.0749614  73.6901384   2.3968142   1.2140358  72.1860986   2.2992629
  49.8454762  99.6361160  70.9699011  48.9308262  99.9145889  70.9240675
  50.1959896 100.0902367  71.7361593   2.9900015  66.6002851  18.5836524
   3.4848345  67.1274954  17.9564113   2.1624935  67.0693594  18.6905974
  21.9516730  78.2690954  72.5769424  21.8705893  79.2077351  72.7461052
  21.2807965  78.0854034  71.9193602   8.5528744  41.6402155   9.2640609
   8.1859815  41.1512285  10.0006122   9.4620693  41.3457781   9.2102069
  66.7910112  10.6471778  72.2327137  67.3760976  11.4003230  72.1510363
  67.0705141  10.0503493  71.5385151  43.2232809 104.5548630  90.6613350
  44.0093231 104.2014217  90.2448559  42.4977398 104.1490459  90.1868534
   3.8367441  82.9304504  47.1627378   4.2954859  83.2428169  46.3828564
   3.2408348  83.6436367  47.3918390  56.3265753  96.8340969  74.1605091
  55.7231998  97.2507668  74.7757816  57.1493483  96.7611027  74.6441936
 104.3226030  45.7618433   3.5028094 104.8941281  46.5049177   3.3093375
 103.9309456  45.9750753   4.3497867 107.8066852  53.3980375  22.1011085
 108.6956408  53.1764417  22.3783893 107.4257901  52.5633150  21.8283576
   3.7536800  91.0391045  94.9316597   4.3878406  90.9706211  94.2179489
   3.5680535  90.1321507  95.1749706  67.2888435  17.1609355  92.2361469
  68.2317032  17.0362616  92.1279716  67.1636404  18.1078006  92.1729183
  46.8477917  91.5692425  61.7092276  47.7329350  91.7572689  62.0213223
  46.2917376  92.1932888  62.1757221  17.2342896  95.7633972  68.8862228
  17.9012859  95.1290417  68.6236477  16.4323294  95.2473831  68.9688253
  34.5081067  75.7586098  75.3087759  34.5465994  76.4867830  74.6886873
  35.1540589  75.9806585  75.9793520  46.3701868  92.3186111  91.6386986
  46.8601847  91.5918732  91.2540054  46.8764925  93.0975151  91.4080811
  88.6956657  13.3826400  87.5984383  89.3223919  12.7265502  87.9033756
  88.7640823  13.3538771  86.6441154  32.1689117  47.5431543  16.5905112
  32.7275408  48.1513410  17.0745486  31.2794483  47.8629118  16.7416495
  53.4159184 107.0626545  77.4794722  53.7208700 107.9282093  77.7515888
  52.9072428 106.7427540  78.2245588  89.2959560  12.9126788  92.7030373
  89.1985906  13.4703971  91.9312191  88.9544595  12.0617343  92.4282646
  63.0922998   1.3695765  84.1636181  62.5610150   0.5776263  84.0811920
  62.6298989   1.9018985  84.8109531   5.5493945  95.3993130  51.1059570
   5.8879948  95.6609821  51.9621754   5.9911358  94.5715427  50.9164810
  52.4376535  86.5788651  89.6430492  52.1196222  86.6621876  88.7440777
  52.6190805  85.6448174  89.7473240  42.1862745  82.3293591  75.2021742
  41.7961693  83.1994629  75.1186943  42.0489979  82.0923138  76.1193419
  47.5930357  95.2223015  94.7352600  46.6599417  95.0092030  94.7475529
  47.7073097  95.7522678  93.9463997  68.9074362   3.6722708  65.8642864
  68.8173379   4.5712805  66.1803389  68.0778612   3.2534552  66.0937166
  27.3146605  91.6388702  68.8158369  28.2583690  91.7474174  68.6981010
  27.0343375  91.1351013  68.0517292 113.5222938  38.1215959   7.2697753
 112.9199150  38.5971552   7.8418082 114.1363838  38.7880521   6.9616145
 104.1819442   4.5022059  57.8231049 104.6254266   5.1960135  58.3111429
 103.9628566   4.9033786  56.9821024  59.3434763  85.3984928  90.1166153
  60.2824211  85.2467251  90.0089741  59.2771053  85.9413338  90.9021950
  99.3961313  60.0539404  15.2122802  99.4372227  60.2523809  14.2767734
  99.9144056  60.7439142  15.6264705  47.2631801   1.1020327  65.7699871
  47.2640861   1.0488368  64.8142672  47.3415120   2.0373297  65.9578896
  24.9778545  60.6333070  20.0741405  24.3246925  61.2385660  20.4252452
  25.4994619  61.1657816  19.4736117  71.4433731   4.5242644  74.8569822
  71.0835828   5.3973532  75.0134945  71.3383402   4.3871737  73.9154911
  52.9028702  93.4829903  49.0621948  52.3071098  93.2203674  49.7638559
  52.4294567  94.1678143  48.5898209 109.8897746  32.4251943  13.6393851
 109.5463207  32.0973974  12.8082389 110.3484704  31.6766744  14.0208930
   6.3296068  50.9927755   4.3301124   5.6288374  50.3481203   4.2322749
   6.3921821  51.1370950   5.2742976  95.8293679   7.2224432   8.5122413
  95.8955934   6.6630703   7.7383250  96.6125038   7.7717977   8.4784240
  97.7227189  29.6856123  33.5664672  98.4972408  29.6064859  33.0096168
  97.5699713  28.7984377  33.8917750  63.7561263  10.1739264  81.5343380
  63.7498106   9.9832774  80.5963421  63.3669318  11.0456324  81.6042042
  82.0022596  28.0676032  85.3299904  82.9415334  28.0464411  85.1468277
  81.6294063  28.5774089  84.6107388  64.3373346 100.4895782  82.3846245
  63.4274387 100.6573677  82.1393299  64.2922306  99.7326088  82.9687405
 101.0635818  11.1944342  62.5121117 101.7606462  11.4456607  63.1180954
 100.8241380  10.3064395  62.7773523 110.1442554  61.8756490   2.7451629
 109.7381141  61.7487531   1.8877334 109.5545676  62.4745470   3.2032222
 113.0519832  11.2791396  94.7753716 113.1377662  11.5661574  93.8662624
 112.1498979  11.4959574  95.0108910  10.6950939  58.9639955   1.7804927
  11.0471285  59.8388105   1.9448012  10.9546316  58.4534460   2.5474471
  90.5592658  64.9933820   7.4972743  90.3220227  65.7878214   7.9756278
  90.8617403  64.3876844   8.1739348  32.8890836  69.3442732   9.1402358
  32.1668852  68.8991647   8.6969108  32.5842846  70.2450376   9.2495173
  28.8237023 108.4465218  50.3199959  29.6399021 108.1241989  49.9376917
  28.4740424 107.6983547  50.8039570   7.3538142  92.7976036  65.4124594
   6.9346827  92.1800518  64.8131323   6.8155354  93.5872269  65.3577995
  10.3745735  42.9598909  39.5589084   9.6000898  42.9898267  38.9972133
  10.9488237  43.6424452  39.2116660  58.9709080  64.9979025   6.9207019
  58.4695518  65.7144457   7.3098678  59.6776283  64.8333841   7.5449771
  63.1956053  89.2973709  56.0361338  63.6198378  90.1426792  55.8887672
  63.7326002  88.6718559  55.5497265  41.2680233  39.4726663  17.7922648
  41.1929405  38.7354475  17.1863765  40.4895056  40.0028997  17.6219672
  51.2557888 100.3158665  87.3635101  52.1661997 100.6067848  87.4159718
  51.0163498 100.1140022  88.2680225 104.9746921  53.1685453  18.1214828
 104.7695544  52.2729688  17.8529853 104.5415666  53.7192732  17.4693126
  81.4582981   9.6876670  89.6688843  81.6818012  10.2074099  90.4409790
  80.5345167   9.4669963  89.7879028  74.7169256  84.3896580  73.2429457
  74.4923973  83.4702682  73.0996418  75.6732988  84.4107246  73.2091570
  44.1511059 107.4171066  72.4129725  43.2619190 107.0868874  72.5415230
  44.0441132 108.1764603  71.8401098  39.2172766  86.2948513  92.4193001
  40.1205015  86.0519505  92.6227951  39.2726851  87.2075462  92.1361923
  32.1547103  86.8860722  86.9036961  32.7725148  87.5076199  87.2886848
  31.3519669  86.9999790  87.4124813   9.2399824  78.1324964   9.9011630
   9.9650133  77.7627283   9.3973369   8.6557043  78.5059267   9.2413157
  18.4050822  89.1513157  55.6286430  18.3782077  90.1069927  55.6753778
  18.4973586  88.9596558  54.6953821  24.4695926  93.8623047  66.8437767
  24.2708087  92.9332733  66.7270708  25.0123525  93.8939857  67.6315880
  30.4746044  31.2103563   1.7070693  31.0090244  31.3117700   0.9194488
  30.0042713  30.3875261   1.5730685  50.3908014 105.6885719  90.7103348
  51.1918211 106.1353302  90.4364586  49.8880005 106.3597584  91.1717701
  91.4228786  27.8034449  45.5817890  90.9579195  27.1842910  45.0190306
  91.9052995  28.3638812  44.9739981  50.0560284  89.1051674  52.2030354
  49.7790289  88.6683750  53.0084705  49.7295618  90.0005913  52.2917080
 102.8475239  84.5250893  53.6374664 102.8719594  83.5735416  53.7384558
 102.8550293  84.6657276  52.6906824  15.0069117  10.6238223  83.5654449
  14.9329924  10.8260203  84.4981194  14.3947481  11.2248088  83.1408310
  69.7569466 108.4180164  95.4236126  69.6900463 107.9784012  94.5759773
  69.3659544 109.2795181  95.2781391  35.4351115 106.0569191  46.9074392
  35.6840062 106.9805145  46.9428921  35.3510451 105.7961464  47.8245878
  24.9891686  88.3793831  62.5926113  25.3791595  89.2481995  62.6890945
  25.7253003  87.7747059  62.6859331  68.0153931   0.6048156  88.7121868
  68.7001766   0.8550120  88.0919361  67.2420634   0.4561473  88.1680489
  33.3024287  96.8785858  77.7154922  33.0690551  96.4826775  78.5551500
  32.7976894  96.3847160  77.0693016  56.6588163 104.1185474  45.3552103
  56.6432047 104.7042084  44.5982504  56.5406179 104.6973610  46.1083555
  65.0605167   7.6622058  77.4648333  64.4412960   6.9987536  77.7691698
  65.1252378   7.5145388  76.5213060  12.7932394 104.1032887  53.1569290
  13.7436450 103.9903450  53.1712580  12.6066244 104.4522572  52.2853613
  10.3404510 102.6731491  88.4484005   9.6527994 102.2630215  87.9238510
  11.1311626 102.5876141  87.9157734   9.6290445 107.3574162  56.6203403
   9.9135846 107.2457123  55.7132626   9.9627578 106.5829277  57.0731449
  11.4180172  65.2116781   3.5385531  12.3256719  65.5033117   3.4528560
  10.9706581  65.5963808   2.7848262  60.6924905   9.3616725  90.9867001
  59.7791995   9.3598414  91.2732792  60.6564392   9.6467162  90.0736427
  59.0590442  35.9469939  89.5025730  59.2309893  36.5135718  90.2546692
  58.3124663  35.4117728  89.7716331  84.0531921  77.0863390  68.8046837
  83.3192825  77.3693419  68.2592392  84.8043346  77.5746584  68.4676886
  45.5948050   1.2635470  62.0874786  46.4779330   0.9012461  62.1585894
  45.6293912   2.0788432  62.5877953  87.7076306  31.8873316   3.1177920
  87.8462913  31.7712122   4.0577430  88.5673895  31.7298608   2.7275962
  90.5859626   6.0451651  89.6868515  91.0813202   6.0778952  88.8684559
  90.9346117   5.2819491  90.1474953  44.3544753  12.4051905  91.1949253
  44.8192609  11.8649054  90.5559444  43.4301699  12.3022223  90.9684563
  14.7934234  47.7046972   3.7585658  15.1333559  48.4084421   4.3112010
  14.9500692  48.0060297   2.8636378  11.3475168  88.4800911  82.1843052
  10.7608223  87.8846073  81.7180252  12.0905137  87.9332352  82.4395180
  32.2988224  99.9285507  36.7059636  32.2577119  99.6707630  35.7850480
  31.8631864  99.2161083  37.1737957 102.5460126  46.7429643   5.7277984
 101.8150356  47.3525434   5.8293647 103.3033469  47.2180372   6.0698241
  30.7908559 106.4401913  84.7724152  29.8930287 106.7311573  84.6127892
  30.7856226 106.1335468  85.6791496  60.8902264  33.1736112  81.6886234
  60.5477047  33.8822174  81.1438370  60.5638695  32.3744059  81.2751102
  11.6304517 101.0229015  53.9142275  11.8925440 101.2273407  53.0165958
  11.9501507 101.7622185  54.4313622  82.2161388 102.3616791  88.3157349
  82.0863914 101.4554882  88.0360699  82.9094315 102.3123074  88.9738655
  28.2705868  95.0182253   3.0709189  28.9247120  95.6305128   3.4077472
  28.4667480  94.9481683   2.1366614  17.8457487  52.0004850   1.3366908
  17.5997103  51.8405443   0.4255790  17.5773037  52.9042440   1.5021628
  73.9874901   4.7940493  79.0408230  73.5588564   4.6001864  79.8744392
  74.6186246   5.4825068  79.2504311  31.4090967  88.3691216  79.1279459
  30.4935789  88.1720638  79.3260002  31.7305613  88.8223743  79.9073458
  77.7021922  10.1171351  60.5148363  78.0598391  10.3833628  61.3618565
  78.1133641   9.2713690  60.3363895  78.9919347  35.4617124  31.3737220
  78.4156469  36.0891538  31.8101138  78.9077311  35.6666475  30.4425162
  95.5723919  30.0266505  71.6673040  95.2151598  30.2441645  72.5282907
  96.4529766  29.6985007  71.8492889  13.0528200  33.8986784   5.5486125
  12.3097265  34.3733030   5.1760978  13.2626045  34.3747335   6.3521022
  27.0183063  86.7552662  62.7970505  27.4972320  86.6547871  61.9743919
  27.5997066  87.2766781  63.3505249  13.4924734  86.2527948   6.1045665
  12.6575363  85.7987028   6.2182349  13.2580936  87.1802431   6.0710258
  10.6232822  51.9121462  10.3987903  11.1446321  51.1772161  10.7217521
  10.1008690  52.1849542  11.1530322   6.7099321  47.7030855  44.5258159
   6.6553104  46.8138796  44.8759097   6.1991585  48.2331758  45.1376552
  34.1940928  66.5306616  90.8449841  33.7036753  66.2167597  90.0852585
  34.4485354  65.7344913  91.3114643  87.7375044  24.2166281  64.5013475
  87.4861778  24.2647410  63.5789871  88.4295477  23.5558272  64.5268726
  50.4147625  96.0969830  75.0218821  51.1676073  95.7878017  74.5180225
  49.8739386  96.5619564  74.3834972 102.7625539  53.2471185   3.5196895
 103.3343007  52.6668935   4.0223521 101.8793728  52.9199320   3.6904830
 114.2361643  61.0297399   1.3779372 113.7060382  61.4904123   0.7275695
 115.1191523  61.0264974   1.0084075 100.8015754  32.1860033   2.3289222
 100.5334904  32.9140764   2.8895110 101.7497256  32.2858720   2.2436732
 110.7307246  21.0819488  14.1553611 110.3101041  21.5413004  14.8822040
 110.6218173  21.6680914  13.4064883  37.9127355  18.6257315  73.8730574
  38.4002805  19.3626166  74.2411995  37.4073748  18.2811404  74.6093321
  50.9543037 100.8753395  57.4098015  51.0185909 101.7572975  57.7762079
  51.7843008 100.4586315  57.6415157  87.6811327   0.4093695  50.9070969
  86.9275869   0.1166106  50.3945541  87.3469604   1.1388732  51.4290047
  35.1435757  94.3890381  51.4909458  35.8229613  94.5676327  50.8407354
  35.0143814  95.2253628  51.9382715 115.3719380  47.5518614   6.0845679
 115.0021698  47.0273977   5.3743190 116.3188841  47.4928861   5.9579009
  68.7847281 105.3923225  63.5776377  68.4078979 106.0434341  62.9857826
  69.2193747 105.9087181  64.2563534  85.4309906  25.2934314  83.2630062
  85.7277788  25.9098674  82.5935650  84.4867767  25.4393721  83.3212566
   4.2903316  66.0866552  10.4898185   5.1407755  66.0913091  10.9290713
   4.4853533  66.3401514   9.5876330 114.1197551   6.8697596  88.4715652
 114.0467132   7.7854396  88.2024479 113.2295908   6.5261031  88.3957672
  70.0175322  24.2697478  87.3707771  69.3643893  24.8033286  87.8234673
  70.5521644  24.9019862  86.8904877  68.7574185  14.0232993  82.3445797
  68.0450643  14.5049811  81.9241428  68.3458246  13.5925818  83.0937862
  74.5490866  42.9917055   4.4351119  74.0913656  42.5717836   5.1633948
  74.4198357  42.3970800   3.6962337  98.4755566  41.0866171  25.3903121
  98.0998161  41.8712431  24.9910468  99.1461327  41.4191538  25.9869498
  37.7393198 102.5343227  91.3802910  38.6090732 102.1346474  91.3850689
  37.3595595 102.2916031  92.2247505  27.3585916  92.9743671  92.8828526
  28.2531691  93.3141041  92.9060364  26.8695450  93.6219025  92.3751545
  99.2529119  11.8283129  82.0122719 100.1501478  12.1556235  81.9484711
  99.3396963  10.8772898  81.9471073  61.4445782  77.6957035  78.2642794
  60.7046175  77.7952766  78.8632584  61.0493994  77.4087906  77.4410295
   4.0070331  53.0382448   6.1440867   3.4188974  52.5186639   6.6921443
   4.6872270  53.3430200   6.7446536  51.9668008  -0.0127649  60.6718206
  52.7954198   0.2943278  60.3039694  51.4522232   0.7839347  60.8010530
   4.2022312  24.4548374   7.6085872   4.6432960  24.8435598   6.8532199
   4.5681894  23.5726171   7.6717872 112.7137282  57.5224500  22.7407855
 113.2117107  56.7570215  22.4538058 112.4387433  57.9476267  21.9284743
  62.6429309   8.3356238  45.4682636  63.3960999   8.8771773  45.2322817
  62.0228614   8.9475013  45.8649397   3.6168054  99.5139408  47.2691250
   3.5027573 100.0968361  46.5184927   4.5648634  99.4627953  47.3907900
  49.3935537  83.0441284  57.7249575  49.1826248  82.6474285  58.5701656
  48.6606693  82.8038788  57.1580458  33.4083605  63.5560989  80.3601551
  34.2815137  63.9465857  80.3233147  33.2311916  63.2803011  79.4608307
  80.9278454  27.4154807  59.6077919  81.3913931  27.0203448  60.3461838
  81.0661234  28.3566523  59.7141457  55.1704062   0.3079653  81.7788601
  55.6683851   0.8824301  82.3604488  54.4278337   0.8407164  81.4942646
 115.0527861  60.0786310   4.8890799 114.3507364  60.6682115   4.6138400
 115.7970502  60.6557851   5.0599402  12.5769472 101.7104244  71.2508917
  11.7585897 101.2153435  71.2133169  13.0803585 101.3984489  70.4989052
  92.3854377  26.3369661   5.2698249  93.3007576  26.6033655   5.3561706
  91.8861630  27.1336847   5.4492492  31.5031183  74.5704466  12.9873198
  30.6576002  74.1375356  12.8693217  32.0385397  73.9275461  13.4523314
  14.3659735  74.2307472  84.0494061  15.3113163  74.0924692  83.9907551
  14.0225005  73.8910341  83.2230568  91.9652427  23.5419512  81.3906670
  92.7152790  23.0253840  81.6853523  92.1813358  24.4409037  81.6384983
  44.4189072  69.8284101  59.2151213  43.4770298  69.6720505  59.1469383
  44.5164919  70.7696486  59.0709686  77.5388384 101.9554710  54.5611143
  78.1460428 101.9771481  55.3007507  77.6205349 101.0687160  54.2100716
  84.2039407   3.3518935  72.5114536  84.0387548   2.5164939  72.9485369
  84.5955099   3.1098128  71.6722250  10.8892369 107.2007847  47.9943562
  10.5275524 107.0461559  47.1217155  10.1874888 106.9454479  48.5931778
  74.0564383  10.8335067  58.3877611  73.2384123  11.2082530  58.7143040
  74.7399343  11.3950110  58.7535191  67.8311539  95.7365417  65.3541327
  67.8790808  95.6624222  64.4010067  68.1415510  96.6224384  65.5413866
 100.1873877  26.5166956  12.9620379 100.1024964  25.9345632  12.2069568
 100.5448058  25.9605413  13.6542624  31.2540841 101.7533779  79.6413040
  32.0454860 102.2485733  79.4298935  30.7870173 101.6814709  78.8088942
  18.4041452 103.8382530  86.8806362  17.6815927 103.4179688  86.4142609
  17.9820263 104.3204880  87.5916195   8.1481695  89.1015911  79.4187546
   8.5070628  89.9025345  79.0367699   7.6339495  89.4029713  80.1677418
  38.8671530  17.8116661  13.2158965  38.7602222  17.3770242  12.3697967
  39.7582853  17.5915485  13.4873122 102.3832048  25.1362372  89.0453815
 102.7712787  25.9808589  88.8167953 101.5542663  25.3601599  89.4684029
  19.0355909  46.4746576  21.4805144  19.3047512  47.2842031  21.0464400
  19.4022310  45.7777601  20.9363193   2.8596294  68.6007982  27.7579802
   3.4082306  68.9365774  28.4668750   2.8361595  69.3107992  27.1164340
  37.5496650 108.5544491  78.6985302  37.7384329 109.4838428  78.8282537
  37.9137635 108.3541775  77.8362370  85.7951327   4.7872215  23.9600295
  86.1679592   4.3845850  24.7443217  86.1363842   5.6815153  23.9645976
  23.1558931 102.1685510   5.3645343  23.2272947 103.1112104   5.5146331
  22.2146309 102.0068651   5.3003711  25.9371065   6.4811087  94.8696136
  26.7254042   6.2827826  95.3750706  25.7903647   5.6987906  94.3379402
  29.3641174  65.9515482  10.7127017  29.7676647  65.1420789  11.0259646
  28.4476316  65.8812433  10.9798163   8.3354694  99.6264553  66.3619566
   8.0137783  98.9182758  65.8040810   8.3848047 100.3855133  65.7809019
  69.6033382  80.4572964  85.9839535  69.0874958  80.9132385  86.6489792
  70.4543257  80.8952808  85.9990215  30.6861520  83.4717655  73.3806992
  30.8743978  84.0167236  74.1447783  30.0573707  82.8235054  73.6979198
  34.6266866 106.6942024  68.7425375  34.1040444 106.1061001  69.2877150
  35.4969501 106.6798973  69.1408730  27.5042439 102.9075050  74.0892553
  28.2368994 103.5190487  74.0153313  27.7942181 102.1279430  73.6155128
  16.0151362 104.3352509  88.8285446  15.9039271 104.8558044  89.6240902
  15.5052316 104.7999668  88.1650066   8.3147806 109.3993664  84.2519474
   8.2106608 108.6053753  84.7763252   8.8903177 109.9577999  84.7745800
  41.1640358 107.6767731  84.8157883  41.3729525 108.1212616  85.6373882
  41.7858696 108.0372238  84.1836262 104.3697895  15.7535601  59.2230940
 104.3012251  16.7071105  59.1754341 103.8528503  15.5144072  59.9923897
 104.1064228   6.9209147  61.3271093 104.7261013   6.7012740  60.6314135
 104.4906439   6.5430213  62.1181870  51.6109408   0.4897166  35.7687688
  51.8146564  -0.4319047  35.6095409  51.3183333   0.5164004  36.6797566
  22.7188349  88.0761147  79.5881748  22.0651150  88.2235241  80.2716637
  22.4229121  87.2833920  79.1406822  99.1159881   8.6842395  74.1646147
  99.5940221   8.1337310  73.5444117  99.7978367   9.0871859  74.7021532
  83.0268669  86.3934517  74.6089840  83.7082100  86.0296917  75.1743889
  82.5720501  87.0296669  75.1608992 111.4392044   5.3199630  32.5396842
 112.1604993   5.2789312  31.9117660 111.6356327   6.0849624  33.0804461
 105.4446938  15.7034975  18.8173121 105.2273037  14.9442535  18.2764644
 104.6087243  15.9745985  19.1966456  40.0498343  81.9196987  71.7582560
  40.3659773  81.8488312  70.8575535  40.8300877  82.1335030  72.2698402
  37.6210880 102.3046970  58.4143639  38.4662223 101.8897057  58.2418537
  37.4154830 102.0630169  59.3174410 105.0866320  43.1462579  11.1180419
 105.1762273  42.1935659  11.1423224 104.1708925  43.2947736  10.8822459
  86.4347328   0.3079463  82.2732639  85.9516109   1.1318351  82.2097588
  85.9542049  -0.2018117  82.9255390  63.8357592 102.9063034  83.8375473
  64.2111063 102.2248650  83.2798862  64.5222759 103.5704899  83.8991165
  33.4114671  94.4895649  83.1407166  34.0439653  94.1883659  82.4884510
  33.2848358  93.7360954  83.7173367  53.7846947  88.5502911  61.7079306
  53.0151510  89.1195202  61.7050076  53.9293814  88.3478737  62.6322269
  51.1497784  96.9378185  80.4153347  50.6185627  97.4621010  79.8160315
  50.5120897  96.4884949  80.9700394  37.0187831  71.5320349  70.9987402
  37.9550385  71.6259098  70.8231115  36.6480660  71.2334824  70.1682806
  60.9328985  77.5730515  90.1090717  61.8877506  77.5680161  90.0422096
  60.7457685  78.1869411  90.8192444  19.4649649  78.8358688  85.8390713
  19.1515088  78.6234713  84.9599457  20.4177475  78.7687731  85.7763386
  13.5981167  19.2796760  16.3817424  14.4451654  18.8388258  16.4480514
  13.3395803  19.1654258  15.4672259 108.6949804  60.8865076   0.4459018
 108.1288888  61.5011793  -0.0209600 108.6789896  60.0927072  -0.0887567
  27.6558531  68.7190347   8.8768882  26.7445886  68.4887415   8.6958045
  28.1492698  67.9255968   8.6690062 102.9443505   7.2304826  26.2563056
 103.0730059   7.4901443  27.1685904 103.7048604   6.6860490  26.0527152
  83.7513924 103.5784435  68.2421112  84.3577194 104.1000080  67.7162075
  83.7502003 104.0045357  69.0992451  94.3847122  23.7732273   6.1506576
  93.6539569  23.6614996   5.5425853  94.8995867  24.4886738   5.7774657
  90.4128088  28.3334971  59.5228195  90.1853574  27.4353266  59.7631788
  90.9097875  28.6632491  60.2714920  66.2714757  19.9786330  86.4554691
  66.3720406  20.8968497  86.7064667  66.3102544  19.9861384  85.4990864
  68.5361862  84.9484539  92.7448845  67.6566982  84.7324371  93.0548191
  68.7318754  84.2763424  92.0920372  80.9510387  28.6585379  62.6262712
  80.8901943  29.1858912  61.8297672  81.8891824  28.6092807  62.8098297
  21.3631380  11.3618665  11.5567988  20.6967914  12.0411449  11.6606826
  21.5931070  11.1130434  12.4520320   6.8173158  44.2605596   6.3580150
   7.0533693  45.0839143   5.9307212   7.4866474  44.1397577   7.0315474
 103.0091646  28.4852319  36.3771838 102.6004245  27.9223734  37.0347136
 103.0919769  27.9282098  35.6031627   6.1826074  32.4961763  11.9558448
   6.8701208  33.0093485  12.3803443   5.5833948  32.2650724  12.6656074
 105.9070839   8.9699889  81.4275074 106.8509020   8.8646937  81.3076973
 105.7618822   8.7890578  82.3561764  65.0575972  99.7449970  74.8805189
  65.0512075 100.3166389  74.1127825  65.8551025  99.2243671  74.7848511
  34.9843359  98.4497166  56.5541601  35.9311557  98.3100224  56.5698862
  34.8835182  99.3947315  56.4401054  63.1919861 103.9262581  72.5913763
  63.8151407 104.4752598  72.1154404  62.4213266 103.8921452  72.0246792
  67.0429897 104.6569252  74.7618723  67.5700331 103.8966846  75.0078201
  66.2511921 104.5818806  75.2944708  90.2532734   3.3039618  24.4075727
  90.2604164   4.1941691  24.7592878  91.1595977   3.0069972  24.4889498
 115.7724500  77.0626450  33.9943695 115.4881694  77.1198940  33.0821514
 116.4246421  76.3620281  33.9984727  41.6702843 104.2850208  81.7067146
  42.3317719 104.6101570  82.3174191  40.9407377 104.8983765  81.7949772
  11.3212192  40.9518057   9.9234408  11.7550981  40.4007059   9.2720717
  12.0331133  41.4415556  10.3352469  48.5107040  96.1122227  92.3291779
  48.4176922  95.3604603  91.7439938  49.2723751  96.5845776  91.9930649
   7.5810087  46.5500742   5.0058001   7.2447193  46.6094309   4.1115874
   8.1709087  47.2991853   5.0900477  73.2310809  16.9031001  72.4037552
  72.9186166  17.4281550  71.6669273  74.0181030  16.4703418  72.0727730
  66.8048586  11.6765071  76.1789322  67.0128502  11.5546370  77.1052790
  65.9025015  11.3687754  76.0935640  63.1889261  24.4457293  68.2324028
  63.4964169  23.5551882  68.0632019  62.3950614  24.5294142  67.7041960
  25.5728233  47.9719072  14.7165793  24.8703468  47.4345880  15.0827140
  26.3780678  47.5506120  15.0171298 109.3120350  30.0449229  78.7192965
 109.3541158  30.9967757  78.6274672 109.2788042  29.7187663  77.8199911
  87.2946848  22.2276450  74.6901655  86.7741646  23.0299044  74.6492195
  86.9752849  21.6973830  73.9600706  33.4673572 107.4627018  89.0647316
  33.6017847 106.5637112  88.7647915  32.8638101 107.3811054  89.8031807
  91.5582813  23.4957457  72.1343470  90.7032264  23.3150244  72.5248003
  92.0435394  22.6762915  72.2305584  81.9616140  27.7226592  80.8642673
  81.8162979  28.6547995  80.7022858  81.1641658  27.4289370  81.3047504
  70.0529708   3.8616706  93.9646626  69.2206515   3.5854102  93.5810566
  70.7023014   3.2761050  93.5751534  14.2915033   5.7655192  69.2660046
  15.0094866   5.5283881  68.6790562  13.5450434   5.9109545  68.6847448
  33.9101386 107.8676891  81.8407059  33.5018039 107.4675465  82.6084137
  34.8478436 107.7202129  81.9639587  15.2111757  69.5531374   6.5491218
  15.4103267  70.4254347   6.2090224  14.4102991  69.6722131   7.0596618
  16.4846218  39.9032884  22.7860373  15.9461820  39.5374494  22.0842761
  16.2169826  40.8207422  22.8398055  29.3229854  41.0735803  14.9217814
  28.9481676  41.1192041  14.0421981  28.8346517  41.7256551  15.4243392
  54.5568514  77.1034765  67.8678083  54.5419979  77.1741772  68.8222790
  55.1756239  77.7777672  67.5872946 113.4149697  76.5611845  25.1301211
 114.1296174  75.9304338  25.2176589 112.8641822  76.4071375  25.8976668
  91.5081323  10.3143359  62.2039413  92.3424734  10.0107909  62.5616598
  91.3557590  11.1563445  62.6329327  21.4728010  42.3395448  19.6147269
  21.3110864  42.9959970  18.9371222  20.6392467  42.2644525  20.0792426
  50.7600164  92.7461147  67.0247555  50.0769854  93.3800220  66.8059969
  50.4444838  92.3193741  67.8213549  20.4243171  70.9737592  20.3936690
  19.6720398  70.8899694  20.9795779  21.1850536  70.8518701  20.9616965
   9.4278991  84.8889738  24.6933097   8.9503134  85.2852350  25.4220885
   8.7635982  84.3966013  24.2111129  82.2543443   4.2142535  94.2485428
  81.3367428   4.0256930  94.0518570  82.5239052   3.5070372  94.8345661
 112.2532333  13.4043265  85.2073288 112.8918327  12.9291869  85.7389927
 112.7733387  13.8091231  84.5131683   4.8413347  19.8409415  27.8386140
   4.7457670  19.1325522  28.4752369   4.8050951  19.4045306  26.9874573
  83.7343563  26.9818259  56.1123991  83.7576307  26.8111659  55.1708221
  83.7566341  27.9361201  56.1834764 105.2526630   4.3677855  85.7179832
 105.5399622   3.5343314  85.3450871 105.9810938   4.6454383  86.2734318
  57.3164463  79.7813511  70.2699900  57.7313995  80.6065273  70.5212498
  56.9296789  79.4510937  71.0808992  95.8809032  38.8467985  21.0524100
  96.8106761  38.8908582  21.2755984  95.8649840  38.5021501  20.1595515
  35.3902698 101.2637138  65.6173134  34.7014666 101.3341427  64.9563885
  35.2775645 100.3885937  65.9883976  76.0677242 102.2160149  94.2227840
  76.7798948 102.8108215  94.4578362  75.6963873 101.9435978  95.0619125
  93.4046568  58.9642859  56.0569477  92.9728330  58.7109900  56.8727922
  93.1648411  58.2768203  55.4355621 113.3116354  19.0626860  84.6568489
 114.1410030  19.0698004  84.1790104 113.4500040  19.6674300  85.3857994
  96.1350980  42.5206953  24.2467040  95.2430692  42.2556215  24.0225238
  96.0852291  42.7738577  25.1684684  89.8598827  22.5399447  73.8118744
  90.0341524  23.3676577  74.2599201  88.9053501  22.4692107  73.8021183
  10.3598856  47.4569178  81.9430161  10.0060534  48.3447314  81.8899059
   9.6330237  46.9287348  82.2730637  84.0674318  12.3423720  76.7945766
  83.7022890  12.6403094  75.9614277  84.9337257  12.0035029  76.5689039
  29.3101728  72.6193529  14.1723937  29.1753376  73.4816843  13.7794131
  28.9730156  72.7070718  15.0639457  76.9388021  18.4902430  89.9805260
  77.6523293  18.2281161  89.3988132  77.3132671  19.1864730  90.5202198
  14.3136680  28.9537912  30.3426856  14.9705732  28.5870176  29.7509116
  14.6663845  29.8079115  30.5922622  81.2646354   5.6875659  84.4897366
  81.0448374   5.1000262  85.2127266  80.4186643   5.9344722  84.1161060
  18.3791244  84.1518121  15.5893821  17.9713333  84.9864679  15.3585547
  18.8477552  84.3315035  16.4044494 113.6378111  14.3598605  55.1855183
 113.6724247  15.2107096  54.7483730 114.3096412  13.8377715  54.7469997
  61.9491196  89.6665478  87.0245838  62.0204020  90.5463886  86.6544247
  61.0126686  89.5489788  87.1841717  61.6912664  15.1858664  69.8304272
  61.5148510  14.6650840  70.6139374  61.0558976  15.9007025  69.8698997
  12.5609625  91.1806970   5.4635447  12.1023691  91.6576009   4.7718257
  13.0570305  90.5055338   5.0006122  61.2577820  73.8114691  93.7237167
  61.3684130  73.4681749  92.8370762  61.3603449  74.7583771  93.6284637
  31.8700552  90.0080872  92.4545574  31.4418912  90.2255344  93.2825851
  32.2691131  90.8296871  92.1682739  79.5586694  21.6290713  75.6784391
  79.2908586  22.5378371  75.8150148  80.5101503  21.6416026  75.7821560
 101.8077816  14.3889857  86.2628078 102.3957361  15.0593425  86.6109085
 100.9417595  14.6395255  86.5844727  48.8106966  88.4024715  84.8617458
  48.6019564  89.3227482  84.7012615  47.9649401  87.9555321  84.8274899
  92.9485000   3.4278155  84.2251873  93.6023439   3.8472892  84.7844410
  92.1489061   3.9334632  84.3708134  32.3691821  95.5053902  62.4595404
  32.8767848  96.3168621  62.4690533  31.6896439  95.6556416  61.8023586
  66.7033685  10.2051402  90.9873104  66.4042534  11.0887004  90.7726288
  67.6583613  10.2699710  90.9914494  10.2772033  85.0149637  33.6417598
  10.4969156  85.6911569  33.0008906  10.0980985  85.4984480  34.4482345
  60.6037235  84.5659161  84.8683929  60.2916384  83.8806820  85.4593945
  61.1669493  84.1066647  84.2454147  77.8634262 109.4884205  82.7454281
  77.1912241 108.8515091  82.9877377  77.6123381 110.2887917  83.2065010
 114.3222573  83.2080274  15.4061622 113.5483172  82.7954012  15.7895488
 114.6093895  83.8386541  16.0665339  52.1538925  94.0206242  83.1202507
  51.3010311  94.4321918  82.9806805  52.4164963  94.3046570  83.9958000
  51.3252258 109.1773605  91.8083000  52.1669245 108.7361622  91.6937542
  50.7337236 108.4893608  92.1132755  14.3589676  64.3666559   6.7268771
  14.4001091  64.0958982   5.8096904  13.6484850  63.8443094   7.0991630
  96.0784353  38.1375266  79.4725466  96.4149917  38.9858771  79.7610950
  96.1927522  37.5641490  80.2304459   8.6900686  31.3849498  78.8634825
   8.8721441  31.7227030  77.9865551   8.8300489  30.4408694  78.7903690
  17.8240049  77.5164800  28.3181018  17.7921045  76.6782098  28.7791079
  16.9636715  77.9070478  28.4714622  16.2730778 104.2966943  28.9424724
  16.5452326 103.5348135  29.4540423  16.3764990 104.0226751  28.0311889
  44.3057335  58.4789282  14.6128005  44.0287674  57.7136427  14.1089457
  43.4941376  58.9530283  14.7938460   3.8744234  43.8875628  59.1171169
   3.3142828  44.1288710  59.8548508   3.5743021  43.0145694  58.8640308
  95.7808174   5.4701091  94.4975471  96.1553920   4.9794722  95.2291203
  94.9209560   5.7495547  94.8118401  58.1201077 106.0754013  68.9349890
  57.4421549 106.0507107  68.2597065  58.7886286 105.4641438  68.6256742
  35.7355535  12.8348404  22.8815097  36.2217415  12.0103222  22.8856868
  34.9261940  12.6332622  22.4118918  21.8299806  71.7789560  11.1704463
  21.3954580  72.3161035  10.5079478  21.1518705  71.6104894  11.8246764
  53.1158972  89.5282078  93.7856770  52.6623154  90.0765896  94.4258118
  53.3204556  90.1222992  93.0635548  19.8056114  54.9962907   8.5491485
  19.6178901  55.7613187   9.0929622  18.9606512  54.5566374   8.4543914
   2.6146292   5.3117324  62.7023363   3.4135889   5.1729537  63.2109118
   2.8819155   5.1728774  61.7937613  98.6287930  58.5208135  23.2138938
  99.4857862  58.9332777  23.1058520  98.1659248  59.0882021  23.8303775
  65.9204721  97.6738071  88.3738422  66.7340851  97.4964714  88.8458729
  66.1825848  97.7220154  87.4544907 114.1993263  76.3792520   5.0823993
 115.1322939  76.1779218   5.1549739 114.1494443  77.3282247   5.1972407
 115.1288236   1.7324877  92.0784283 115.8088173   2.3946715  92.2023392
 115.5850996   0.8977938  92.1849060 112.3143686  45.9217406  88.7198639
 112.7041830  45.2525092  88.1573582 112.6467241  45.7222796  89.5950699
 105.9474291   8.0773402  32.1842360 105.0938905   7.8460932  31.8178678
 105.8543504   8.9923907  32.4492908 113.3245290  29.9418307  91.9126701
 112.4929393  30.3452540  92.1615505 113.9739956  30.6331874  92.0409012
  86.9125271  92.8191948  79.9375868  86.7506790  91.9255543  79.6352053
  86.0985088  93.2866001  79.7501278  35.8153618  32.3627668   7.7374858
  35.4118240  31.8991953   8.4713191  35.2657116  32.1443945   6.9848746
  75.1047624   8.4453631  67.4501324  74.2729725   8.8807631  67.6366377
  75.3124274   7.9707576  68.2550240  32.8581131  63.4114080   5.5051345
  32.8192032  62.4656969   5.6478042  32.1885383  63.5814195   4.8425693
  59.9416007   9.6326400  61.0157394  59.4792665   9.7244025  60.1826382
  59.3388737   9.9946452  61.6652822 100.5314649  16.5865660  77.4950409
 100.9172500  15.7913542  77.8625107 100.9548153  17.3005343  77.9717588
  74.1396178  14.5013571  68.7334776  74.2425216  15.3163386  69.2248583
  74.3355693  14.7413684  67.8278112 100.0239433   3.2005263  92.6119518
  99.8377050   3.4505320  93.5169601  99.3319858   2.5781584  92.3881626
  50.4879082  70.1778989   7.6866454  50.0543487  69.4911009   7.1801299
  49.9144066  70.3180795   8.4400958  78.9083923  13.3112670  75.5122280
  78.0070890  13.0795718  75.7362938  79.4459737  12.7444125  76.0653257
  80.2722168  83.5353851  88.0608177  80.8137608  82.7628613  88.2225704
  79.6388292  83.5384178  88.7784767  89.1659654  15.6798888  66.3618660
  89.4610084  16.0959960  65.5519056  88.5444463  16.3028289  66.7385483
  48.2063103  94.4280338  75.6861353  47.4306297  94.9864197  75.6335974
  48.9427376  95.0307465  75.5829859  24.3339753  82.8396702  82.3204517
  24.8801422  82.8001976  81.5353489  23.7645125  83.5958004  82.1782875
  22.4893034  71.8362528   0.7897395  22.9175079  71.8583589   1.6455382
  21.6135490  72.1873861   0.9509677  78.6644745 104.3388653  71.8766689
  79.4394159 103.7814808  71.9475269  78.7660408 104.7844791  71.0356331
  77.2671318  54.2098904  42.1246099  76.7477703  54.1103649  42.9224777
  77.6947641  55.0607252  42.2217655 100.5510082  27.7486897  82.3951340
  99.9605920  27.0461845  82.1228790 100.0333180  28.5478950  82.2976780
  73.3695353  84.0354567   5.7376689  73.3263887  84.9073749   6.1302585
  73.8544215  84.1636066   4.9223823 107.2006824  68.9509201  43.9892101
 106.6043999  69.3519163  43.3568525 106.6593035  68.7942457  44.7629023
  24.7740841  23.9343667  93.5970306  24.2094660  23.8613296  92.8275490
  25.6191540  24.2176795  93.2479954   0.7000607  31.4539075  42.9522419
   0.9593494  30.6056190  43.3119726   1.5206568  31.8515539  42.6611567
  38.6196347  79.0540724   6.3865298  39.0932550  78.5204105   7.0245856
  37.9153259  79.4614487   6.8907374 113.6224257  21.6110373  63.6775637
 114.3437832  20.9999681  63.5276699 112.9988407  21.4220905  62.9763699
  84.4513459 106.8819099  48.5086107  85.0040830 107.0441171  49.2730713
  84.5485897 105.9452256  48.3371496  23.2827353  36.2980342  87.2009659
  23.5110235  37.2134256  87.0391846  23.4278822  35.8629060  86.3608360
   5.5479819  17.0599556  65.7530117   6.4535528  17.2068501  65.4798889
   5.0409806  17.1192467  64.9432802  56.8493332  72.2858231  14.4042605
  57.4234654  71.6750317  13.9421576  57.0764996  73.1445508  14.0475863
 104.0504756  28.0040884  46.5436745 103.4749474  27.6986122  47.2448778
 104.9220290  28.0202436  46.9391060  18.2607698  37.9625726  79.3527126
  18.6778486  38.5992837  79.9331236  17.6999152  38.4891129  78.7831259
  49.7050155  87.3452573   2.7092952  50.4635550  87.5180130   2.1516150
  49.0015448  87.1300487   2.0968837 104.8156383  15.3752351  46.4858198
 105.2803149  15.3427804  45.6496048 105.4031052  15.8574235  47.0677185
  26.7856216  41.8954372  63.0474997  26.3498735  42.7436686  63.1303310
  26.5849066  41.6090536  62.1564722   4.4442067  34.1193151  68.3786631
   3.6488572  33.7922764  67.9583120   4.4338736  33.7246609  69.2506599
   1.8526705  36.8121386  61.7339373   1.5881905  35.9943604  62.1552706
   2.7801985  36.6886139  61.5322828  17.6157988  77.6408391  25.1490516
  17.4179352  76.9372206  24.5309848  17.8785433  77.1885948  25.9507197
  12.6580453  20.2854037  70.3345156  12.3441577  20.5008197  71.2127542
  13.5714114  20.0293589  70.4627180  31.7580914  37.9334354  65.4543447
  32.3849773  37.3982668  64.9676800  32.2331929  38.7412667  65.6490755
  52.5065852 108.7013201  71.9658661  52.0851160 109.3035632  71.3527632
  53.4431935 108.8049965  71.7977858  31.5200330  51.0214882   8.2264441
  30.8404763  50.7056265   7.6309031  31.2607230  51.9199531   8.4307784
 104.6500756  11.3745236  80.7269573 105.4087581  11.9378483  80.5743313
 105.0240745  10.5101204  80.8977413  37.2510151  82.0971017  13.6396808
  36.6392396  81.3635497  13.7018508  37.0960596  82.4651461  12.7697677
  18.3992946  58.0607748  63.8656139  18.1926501  57.8783464  64.7822618
  18.0970001  57.2852135  63.3930063  75.5516090  12.2460699  48.6239243
  76.1336555  13.0043292  48.6738825  75.8914508  11.6395080  49.2818165
 112.8708725  19.0825415  70.7004976 112.7910932  19.7652686  71.3666439
 113.2550978  19.5282495  69.9455500 110.6218841  41.8291664  60.9483147
 111.2350096  41.7521858  61.6793299 111.1634918  41.7109537  60.1679802
   0.0938384  22.2996521  30.8997750   0.0191507  21.6820669  30.1722860
   0.9715124  22.1504831  31.2514424  17.6837325  13.9350700  94.2806339
  17.8617775  13.0048811  94.1417789  17.2869587  14.2280471  93.4602833
  20.3347111  48.9443827  65.4157591  20.8696175  48.3635426  64.8747110
  20.1565886  48.4372663  66.2078047   8.6330765  23.1772280  85.5966949
   8.0442965  22.4226546  85.5830097   9.4980037  22.8031254  85.7645607
   5.4224938  49.5416117  92.0103550   6.2995303  49.8801517  91.8302727
   5.2240843  48.9798737  91.2611389   4.2613667  25.7167315  71.6776657
   3.9386690  26.4210820  72.2397947   3.5274673  25.5194783  71.0956764
  33.0254197  39.2862439  75.1250029  33.5175800  39.4426823  74.3190622
  33.5363317  39.7233129  75.8063030  82.2200145  25.0845361  93.4438419
  81.8311753  25.7484007  92.8743553  81.6045680  24.3520784  93.4127998
  84.4292082  24.1820025  60.4439545  84.4535102  24.3762040  59.5069742
  83.6340656  23.6619425  60.5602217  87.9452266  28.6549401  50.4261684
  88.3405819  28.8874888  51.2663174  88.6708130  28.6878562  49.8027325
  28.7326431  34.2520571  23.6745238  29.6717000  34.2475963  23.8599586
  28.5261703  35.1713872  23.5058999  19.0063894   8.4165388  72.4535036
  19.5959830   7.8006166  72.0184755  19.5805740   9.1122741  72.7736568
 101.6212799  58.1599855  79.7888517 101.6859235  58.7293482  79.0221167
 101.3643756  57.3088551  79.4341612  94.0757527  53.1362534  52.8433228
  94.7015967  52.4859762  53.1622219  93.9455571  53.7272167  53.5849714
  12.6855744  46.6024165   9.5475310  13.5032238  46.1053972   9.5731181
  12.2200001  46.3386338  10.3411883 106.2773718  51.2998724  52.1187735
 106.7071452  51.5212488  51.2926245 106.8163212  50.6010008  52.4893761
  23.6237645  23.5709929  47.6484060  23.2702923  24.4595528  47.6902580
  23.6898279  23.3833623  46.7121029  26.6087389  30.0723624  93.0828857
  27.1945596  29.6799016  93.7302113  26.6668963  31.0136342  93.2467651
 112.8097273 103.3409815  82.8638840 112.2207762 103.5805451  83.5794163
 113.0615688 104.1766977  82.4709702 114.6375394  24.1930151  31.7415810
 115.1408035  24.0487862  32.5429273 115.0340096  23.6032224  31.1003423
   8.2306629  48.9886951  72.6424885   8.0598557  48.1661987  73.1013536
   8.8296068  49.4642067  73.2181549  37.5652690 104.7495370   0.2961654
  37.9452870 105.0057321   1.1365146  37.7789116 105.4725032  -0.2936631
  19.7502327  21.0253358  85.8510303  19.3212259  20.9128428  85.0027752
  20.2065825  21.8636870  85.7793236  99.7987189  46.1823606  89.3978691
 100.7508125  46.2472200  89.3234062  99.5510878  45.5302000  88.7424374
  28.7499046  28.5228944  67.4463940  29.5110941  28.0540395  67.1043444
  28.2296705  28.7330437  66.6708803  13.5258389  38.4073114  59.1405344
  13.3958805  37.4953699  58.8803387  13.6986077  38.3657289  60.0810957
  -0.0050110  47.3218822  76.4390850   0.6669462  47.5102043  77.0942497
   0.3987128  47.5637245  75.6055689  23.5341454  16.5175343  30.6403375
  23.7933135  16.0379207  29.8535490  24.3121505  16.5015793  31.1977291
  97.0324912  59.5029020  51.3727951  96.5146758  59.1439152  50.6522226
  96.6797700  59.0794230  52.1554089   0.6387094   7.5304121  69.8472691
   0.7678145   6.7645299  69.2878151   0.5416819   7.1696466  70.7285547
  51.1742319  85.1049881  10.0021476  51.1026097  85.9530597   9.5641154
  50.2680160  84.8335962  10.1482791 107.4597897  44.3063164  65.8660793
 106.9757142  43.5335779  65.5749130 108.0018499  44.5465803  65.1146317
  27.7310371  19.9201095  52.3914337  28.2105947  20.7428455  52.4881840
  27.3999095  19.9400508  51.4935541  82.7816547  66.3210957  29.9848098
  82.4126304  65.7914131  29.2780704  82.0500005  66.8583481  30.2885837
  95.1319982  91.9526648  90.9717560  95.1040710  91.2031650  90.3770256
  94.3953789  92.5007390  90.7011318  41.9624816  93.4686594  11.8046874
  42.8421197  93.8459735  11.8148345  42.0790143  92.5803165  12.1415824
  26.1666369   7.8621256  85.7007885  25.6928349   8.3615756  85.0357437
  26.8945837   8.4300280  85.9533978   4.2145568   9.9748665  55.6965733
   4.2535815   9.3984765  54.9333668   4.5938873  10.7997441  55.3933907
 110.1398601  45.8313322  59.3421268 110.9848263  46.2730122  59.2573690
 110.2373155  45.2739811  60.1141977  11.8200052  41.0691166  66.2070894
  12.0249319  41.9917965  66.3584185  11.0147715  41.0843277  65.6897879
  18.7989259  55.9027910  75.4863358  18.9127398  56.5252781  74.7681522
  18.8507688  55.0430965  75.0686359  58.0752611  13.7088549  38.4862351
  58.7567520  13.0367649  38.4764266  58.1976843  14.1860831  37.6655674
   3.8825557  36.8519330  72.7165604   2.9928622  37.1998119  72.6560783
   4.1681802  36.7652631  71.8070889  37.0084810  40.8147955  76.5433741
  37.3267126  40.0306797  76.0960245  37.7350616  41.0804749  77.1070480
  34.2924432  67.9338067   6.9499034  33.8349498  68.5631816   7.5074214
  33.7970830  67.1208804   7.0499057  80.5960945 104.1634386  50.0421333
  80.2170731 103.5226887  49.4404554  81.5077285 103.8889556  50.1412010
  98.4095765 107.3835629  48.4080315  97.5040806 107.6251962  48.2132912
  98.6227203 106.7116278  47.7604961  24.5580125  19.9888861  91.0761929
  25.5106425  19.9024153  91.0408688  24.2293048  19.1412616  90.7766628
  12.1483363  82.8026657  11.0312003  12.1184934  83.5052304  10.3817767
  13.0766977  82.7158337  11.2476176  93.1883802  16.5861905  89.7189999
  93.2822408  17.1080744  90.5159092  93.0784621  17.2321498  89.0212250
 110.4070427  30.4511523  71.4861727 109.5656910  30.0462747  71.2753820
 111.0231443  30.0593948  70.8671618   1.8901394  44.1543436  93.1460953
   1.4872956  44.1765213  92.2780704   2.6160082  44.7757196  93.0892181
  21.2349176  12.5718403  67.1343708  22.1679711  12.7654672  67.2246552
  21.1354828  12.2911477  66.2246704  10.8855975  24.1560245  77.8928709
  10.1206207  24.6112871  78.2446957  11.2556148  24.7667766  77.2554541
   2.6309813  68.3778005   2.2498626   2.8040208  67.9979973   3.1112784
   1.7617382  68.7702398   2.3313540 104.4619562  34.9746561  61.1084127
 104.9408021  35.7536411  60.8253622 103.9469566  34.7188687  60.3431797
 113.0530890  28.5847855  78.7427139 112.8066977  29.4994402  78.8803005
 112.8997525  28.4331107  77.8101301   5.8009648  56.4353991  81.6583538
   4.8936409  56.5901089  81.9211483   6.2494117  57.2592163  81.8492699
 108.6947467  68.5044718  75.5022335 109.6071740  68.3029079  75.7097960
 108.3463808  68.8918257  76.3052464  19.9155307  19.7112238  32.0475698
  20.1931739  19.0387237  31.4255643  19.9812365  20.5314946  31.5586209
 111.2296625  18.6416388  86.9829178 111.9967492  18.6502957  86.4104366
 111.5454768  18.2573891  87.8007507   7.3957425  51.9954920  52.5584984
   7.8790987  52.2942543  51.7882156   6.6974771  51.4448071  52.2043753
  13.1779575  66.2985134  71.0033941  13.3317864  65.3675175  71.1640501
  12.2387242  66.4143753  71.1470938   6.4879757  81.0825920  83.4184837
   5.6832314  81.1429214  83.9332485   7.1783900  81.3620377  84.0197182
   1.8159427  33.7278748  84.9347878   0.9064861  33.6284709  84.6532917
   1.9458453  33.0293465  85.5762100  21.0741758  27.9572606  50.7451582
  21.7685366  28.3180213  51.2964725  20.4660583  28.6855602  50.6186485
  12.8946579  45.3580713  54.2923784  11.9928753  45.2775383  53.9816809
  13.3780456  44.6953535  53.7990475  39.9927664  30.6164479  73.9384651
  40.0767565  31.1760712  73.1664515  39.3349814  29.9660563  73.6924076
  26.3897133  46.1745596  17.9924870  27.1229196  46.1915159  17.3773813
  25.8303642  45.4639244  17.6788723 101.6757609  41.4901590  73.1097031
 102.3908164  41.3802814  73.7364864 101.3999202  40.5973816  72.9021120
  21.7527771  37.6571703  93.7110806  21.2394333  38.1662345  93.0837345
  22.6495910  37.9721880  93.5982990  25.2420259  44.8000479  73.2044554
  24.9414158  44.8406029  74.1123199  24.6679640  44.1555023  72.7906370
   0.6591778  18.9372218  86.4778614   0.4754692  19.8733640  86.5561104
   1.4421371  18.8918352  85.9290981   4.2507386  61.1478996  71.4191628
   4.1169143  61.1924839  72.3659086   4.0747151  60.2340746  71.1951590
  59.5513810  92.4514084   1.4160270  58.8646711  93.1120114   1.3251227
  59.9505390  92.3997860   0.5475539  27.8157306  11.9883382  53.5021353
  27.0268440  11.4546931  53.5975838  27.5064516  12.8902555  53.5865307
 115.4659492  21.3628483  55.2366686 115.2377458  20.5702209  54.7509766
 115.0264925  22.0689607  54.7628355 110.2010365  12.4779618  83.2807541
 110.8698769  12.2011244  83.9070415 110.6327428  12.4207067  82.4283504
  12.0777106  32.3064470  75.4954290  12.4713087  32.1665359  74.6341896
  12.8129661  32.2543979  76.1061049  75.9252251  77.9825716  15.1163978
  75.9430827  78.8529592  14.7184772  75.8402384  77.3822789  14.3756885
  26.8624568  35.7125998  54.8536873  27.3899412  35.6723356  54.0559626
  27.4665236  36.0310864  55.5244350  17.8347337  23.3940673  72.1455288
  17.3120761  22.5945616  72.0834637  17.9892337  23.6504006  71.2363243
 110.0376089  59.4413948  71.4191246 109.8448386  60.2110052  71.9546318
 110.3721162  58.7948275  72.0406485  27.3351288  14.8727953  86.4192867
  27.4128819  14.3446982  87.2138309  27.4425340  14.2461550  85.7037258
  29.6179104  42.9080009  76.0836935  29.3301105  43.0770206  75.1865673
  29.0827465  43.4920979  76.6209650 111.6414820  28.3981800  68.7605810
 112.4036943  28.1957102  69.3030500 111.7995577  27.9296708  67.9409790
  40.8807993  33.0050993  83.9476204  41.5469456  32.3417354  84.1277027
  40.0803471  32.5042582  83.7905502 112.3952370  46.0286903  72.4462700
 113.2021396  45.6667328  72.8125095 112.5337960  46.0127878  71.4992857
  65.6601633  50.2651094  19.8136252  65.8606113  50.1646726  18.8830585
  65.9414090  49.4402825  20.2096004  41.4239315  85.4222422   5.4271144
  41.7368920  85.3686099   6.3301105  41.8018050  86.2347369   5.0905150
  44.6125555  23.3064485  40.2972460  44.6634960  23.8661289  39.5223951
  44.6177769  23.9169693  41.0344505   9.8018157  62.6196623  44.9518538
   9.3771499  63.1401587  44.2699575   9.4589019  61.7348671  44.8262501
  36.9883299 103.0886703   7.5171966  36.3192959 102.4524217   7.2645873
  37.6203079 103.0697923   6.7985362  11.6161168  55.6859350  63.9056396
  12.5499487  55.7438803  63.7035751  11.2670767  56.5465927  63.6739588
  15.3565454  43.8899183  65.9478760  15.2400720  44.6947145  66.4528131
  14.5969141  43.8600349  65.3662395   6.4302605  28.2418394  52.9702091
   5.9638858  27.9572701  53.7561750   5.7471371  28.5979962  52.4021196
 110.2913876  22.6599765  80.7738781 109.8866095  21.9728780  80.2444649
 110.2904185  22.3082733  81.6641235   6.2057739  30.0580907  79.1588688
   5.4122519  30.0221634  79.6929693   5.9843320  29.5670843  78.3676004
  84.2416300  88.5285072  14.8849029  84.4056905  89.1113834  14.1435737
  83.5389341  87.9517751  14.5851821 101.3431992  62.2192097  75.5440903
 101.5472808  62.5412226  74.6660852 100.4533817  61.8739271  75.4717445
  16.6278982  23.6318278  65.9969568  16.0949230  22.8399777  66.0686827
  17.5306380  23.3190894  66.0560036 112.8429510  36.5139723  72.4146366
 112.0744832  36.1808753  72.8780317 113.5587223  35.9450889  72.6979589
  64.1175831  89.4790482  89.0210056  63.6060096  89.4714069  88.2120228
  63.9287353  90.3303539  89.4157791   1.8442489  26.5045953  59.1991663
   1.1918249  26.1208677  58.6132240   2.4456850  25.7852960  59.3918228
 108.7948318  64.8114300  73.4087706 108.9902486  64.4708490  74.2817259
 107.8412720  64.7631502  73.3407688  70.9325851  75.2085905  28.9840430
  71.2377895  75.2354484  29.8908919  71.6615237  74.8239427  28.4972972
  17.4066257  35.7197857  56.1675501  16.9601119  35.7818508  57.0119476
  16.7192817  35.4671264  55.5511475  22.9831600  52.8265715  35.6287646
  22.1881485  52.7219057  35.1060510  22.6714206  53.1341410  36.4799118
  12.5133574  25.2268624  59.4587374  11.7030883  24.8381495  59.1291952
  13.1217790  25.1732302  58.7217331  72.1529331  14.9404049  76.8407488
  71.2321367  14.9233282  76.5798426  72.2793188  15.8117020  77.2163820
   9.8384130  96.4764309  51.7727041   9.6787959  97.2598171  51.2463379
   9.9824041  96.8085098  52.6588297  12.4689174  66.3547945  86.6160583
  13.3461547  66.7279148  86.7024803  12.5162995  65.8110809  85.8296967
  20.6553578  67.3448753  88.4541035  19.9945891  67.7851868  88.9886475
  20.3300881  67.4246788  87.5574017  28.8060713  26.7337656  47.4754333
  29.5604706  26.8038821  48.0604076  29.0117836  27.3207593  46.7478704
   8.4596837  26.6586041  61.4273405   9.3018985  27.1106720  61.3769531
   7.9391247  27.1885610  62.0309925   7.2714472   1.8676974  61.7912722
   6.6903085   1.1375967  62.0044899   7.8544748   1.9383779  62.5471258
  39.7011471  61.2979317  70.3717613  39.4042563  61.1665678  69.4712973
  38.9010000  61.2598753  70.8957338  75.4509439  19.7177529  50.1322508
  75.3368988  19.1527784  49.3680334  76.3785782  19.9534667  50.1195526
   7.7872539  52.5123215  86.2544250   8.3014256  52.1648884  85.5256176
   7.0975822  53.0280590  85.8365726  79.1921867  78.3522158  12.0743865
  78.7622870  77.8174262  11.4069957  79.9515165  77.8350954  12.3431605
 105.9788897   5.6106704  37.4363351 106.4761653   4.8679942  37.0937252
 105.4296245   5.8895713  36.7036986  17.4172592  43.5073137  45.9315538
  17.8264213  44.0939093  45.2953768  17.0062959  42.8260136  45.3994131
  99.6024921  35.8651018  58.5017872  99.6176400  34.9105692  58.4319878
  99.2450144  36.1608362  57.6645422   6.7067242  65.1139498  44.6948624
   7.3523420  64.5272350  44.3009424   7.1025229  65.3838539  45.5235529
  20.3925037  79.6108007  33.2723570  20.8167434  79.8014021  32.4357462
  19.7359991  78.9466763  33.0621767   6.6203201  18.8147867  45.4984331
   7.0531446  18.0400324  45.8571100   5.6957078  18.6943221  45.7147932
  87.0666672 102.3893445  67.3707199  88.0162598 102.5097667  67.3727083
  86.9138719 101.7010980  66.7232656  39.0161991  50.8922338  47.6718187
  38.8043833  51.2740993  46.8200302  38.1721687  50.6102896  48.0244589
 110.6902375  26.8717384  48.9880896 111.3710119  26.3270354  49.3831539
 110.7190212  26.6530466  48.0566502 112.0215576  30.0871754  82.3368168
 112.8431108  29.7987652  81.9392014 112.2902932  30.6799650  83.0386829
  31.3731623  28.8961768  59.2039871  30.9230566  28.8094306  58.3636808
  30.7943630  29.4481444  59.7298717   2.9026726   6.5691149  51.4880514
   2.4950428   7.0361447  50.7587004   2.1684755   6.1819977  51.9648409
 106.3017108  28.6049032  78.1951809 106.8225332  28.2952118  78.9361715
 106.7498918  28.2557225  77.4248314   6.6304761  84.2362404  57.9663467
   7.2376537  83.9683437  57.2765684   6.7423064  83.5784149  58.6526394
 112.3130800  26.8611813  51.8700361 112.3707595  27.7489066  51.5166903
 112.2464733  26.9841599  52.8169632  13.5944736  57.0635176  79.6333694
  12.8699064  56.5084791  79.9217558  13.7024283  56.8536568  78.7057209
 108.9842810  53.0795908  70.2583027 108.7857248  54.0158224  70.2418089
 109.9356928  53.0348110  70.1632118  90.2727546  49.7271490  83.9813042
  90.3726353  49.0091991  83.3561611  91.0216989  49.6375322  84.5706081
  88.9656534  43.1203175  43.5028553  89.8771109  43.3174515  43.7187624
  88.9923730  42.8336096  42.5899935  25.2760434  31.6349006  51.2219810
  25.6075406  31.1997557  50.4364920  24.3661690  31.8461299  51.0128403
  15.6154621  43.7258291  83.2993221  14.8219430  44.1719103  83.0033875
  16.1407661  44.4155025  83.7050724  37.9249048  53.9931536  89.2798710
  37.3572421  53.8613605  88.5205173  38.4965968  54.7185612  89.0285110
  34.1792274  55.5665874  93.6483002  34.2799163  54.7380543  93.1796551
  35.0506234  55.7508612  93.9989281 100.7572331  51.3025188  93.2587051
 100.9070196  52.1210766  93.7317371  99.8421182  51.0863876  93.4378242
   9.0999734  53.8425016  79.8267412   8.5041481  54.4059610  80.3204346
   9.9331075  53.9076281  80.2935123  94.9379267   8.8868594  74.3625736
  95.5788817   8.3643240  73.8805246  95.0006570   9.7599185  73.9751911
  21.0396481  18.4785211  74.3330860  21.0296464  18.0079305  73.4996128
  20.2808905  18.1399941  74.8083973 115.4520899  70.3403187  93.2361221
 115.2314984  71.1378431  93.7172985 116.1499115  69.9351931  93.7510490
  31.0421014  25.0845671  92.2732830  30.7568145  24.5138621  92.9868221
  31.7467022  24.5984864  91.8449211 106.2429847  35.6736946  84.2489529
 106.3984134  34.8409009  83.8033867 106.3747217  35.4773188  85.1764870
  94.7031929  15.7241588  21.9997996  95.3253677  16.3048416  22.4379081
  94.1099944  16.3149887  21.5358275  36.5849876  53.0791759  42.7107573
  36.3855696  53.6811018  41.9937134  37.5368547  53.1223297  42.8019857
  27.6520658  27.3467040  76.2812281  27.2014380  28.1376386  76.5771770
  28.1579065  27.6300263  75.5195951 102.4436977  25.0009727  57.3310089
 102.5192203  25.5335188  56.5392208 101.8427279  25.4906011  57.8925514
  17.7191591  34.3024850  59.8441219  17.5800824  34.1699648  58.9063978
  17.4932253  35.2207518  59.9923515  65.7297256  20.2419859  10.1802749
  65.3910711  20.3311449   9.2894381  66.5064242  20.8011347  10.1983279
  95.1898541  19.6435452  55.0364637  95.3990259  19.4106984  54.1318893
  95.6269540  20.4838252  55.1746893 106.3601114  49.9868250  91.4214039
 105.7987573  49.7565508  92.1617317 106.3039674  50.9407663  91.3658714
  35.4389477  37.0360327  44.3377972  34.5983195  36.8116856  44.7368479
  35.5260491  37.9790521  44.4769335  13.0047631  30.3820372  58.6806440
  13.8737404  29.9888372  58.7612915  12.4015069  29.6398807  58.7195826
  19.4851553  44.7695684  64.2098188  19.7289276  44.6222162  65.1236582
  18.5465264  44.5843983  64.1794729  37.1462151  78.8981180  18.9126033
  37.9306322  79.1569953  19.3962401  37.1701875  77.9412179  18.9118880
  28.3796000   7.8438979  44.9864197  28.1067705   8.1408000  44.1182899
  27.7137637   7.2052133  45.2413273  29.4921446  55.6513262  71.8472433
  28.6177635  55.5548000  72.2245646  29.3701363  55.4808283  70.9132862
  57.3467565  92.5125241  76.5036345  56.6534806  93.1408679  76.3016844
  57.9438139  92.9912185  77.0786190  51.3526773  57.0170736  88.7348938
  50.4346275  57.0386744  88.4648132  51.6936111  56.2050438  88.3599281
  13.5187423  48.5963106  85.9177494  13.9916456  49.2982197  86.3648796
  14.1369009  48.2696724  85.2639771  61.4953279  20.1412559  88.3527756
  61.8724775  19.2654419  88.4360695  61.0483265  20.1300454  87.5064373
  25.6488681  45.0678205  66.0207939  25.6487083  45.0215387  65.0647116
  26.1416554  44.2954159  66.2978935  24.4007850  40.8668327  53.1329584
  23.6967063  40.2209711  53.1909561  24.8020649  40.7076359  52.2786379
  37.0787287  32.2357225  78.7192583  37.0774317  31.5481520  78.0533218
  37.5454688  31.8501639  79.4606972 100.7568516  26.4815378  65.5343294
 100.9480443  27.1380305  66.2041759 101.5919413  26.3459611  65.0865841
  22.3552513  41.0276318  92.8550720  22.8238249  41.4134979  93.5951900
  22.9698563  40.3926468  92.4872494   6.3458586   5.3210700  61.0868120
   7.1434414   5.0031328  61.5099049   5.8005500   4.5407984  60.9865761
 100.2359225  60.4234505  55.6720209 100.4810001  59.5064640  55.7957315
  99.4826831  60.3925753  55.0821829 103.3901872  51.8031931  83.6606693
 102.5710656  51.5505219  83.2347202 104.0746262  51.4552927  83.0890560
  22.5948453  16.0628414  65.9237623  23.2928276  16.1353719  65.2727699
  22.7437401  16.7986870  66.5175581  55.7896007  87.0115786  12.4767131
  55.9914459  86.2309365  11.9608802  55.9696020  86.7542963  13.3809489
  96.3551106  38.1676555  87.7944660  96.2113299  37.9640865  86.8702793
  95.5439629  38.5911179  88.0754471 109.9532028  15.9344256  65.3482628
 110.5088623  15.3925908  65.9085226 109.4585403  16.4813066  65.9585619
  31.3284540  51.9495726  64.2713404  31.1181259  52.2355604  63.3824062
  30.5480909  51.4775991  64.5620394   1.4250259  29.1988611  70.1442528
   0.5728190  28.9866781  70.5249786   1.2951396  30.0497890  69.7255802
  48.2464123  61.4633894  93.7834072  47.6423454  60.8478928  93.3680725
  49.0549612  61.3838625  93.2772923  15.6186938  30.0075150  25.2516103
  15.1663303  30.3009677  26.0424852  14.9410713  29.5694232  24.7366953
  18.3642495  50.0386906  86.8307877  19.2273569  50.4398918  86.7292309
  18.5269904  49.2469311  87.3434925 113.7858315  26.8080306  69.9140215
 114.1472923  26.9217634  70.7930231 112.9093509  26.4519525  70.0597000
   5.2878271 108.2463279  62.9441261   5.9531866 107.6320394  63.2542562
   5.7104145 108.7133724  62.2233486  36.6915969 109.5721297  16.0332984
  37.3124431 109.5108943  15.3073329  36.0671861 110.2435546  15.7584781
  14.5859635  46.4075470  59.0755844  14.2431867  46.5902567  58.2007360
  13.8065434  46.3077593  59.6221876 105.8861222  42.2465944  65.0728941
 105.7455947  41.5840149  64.3965244 105.0639238  42.7357578  65.1034832
  13.9060628  37.2075057  49.7476339  13.8539326  36.3294053  50.1250648
  14.6396172  37.1614766  49.1344357  56.3678492  67.6276689  12.5072307
  56.2369050  66.7129521  12.7569789  56.4591039  68.0923693  13.3390635
  11.6932392  32.8585172  84.1222286  11.1011040  32.3219204  83.5952854
  11.5066600  32.6041794  85.0259590  49.9689652  80.0231414  11.9789905
  49.6012880  80.8162980  11.5891856  50.4087974  79.5810847  11.2527865
 101.9071604  89.2152643  45.3892088 102.2079111  88.5270190  45.9825897
 102.2998882  88.9923381  44.5452309  16.9612420  46.5091658  62.6085424
  17.6335394  45.9277964  62.2532129  16.4127755  45.9395647  63.1479645
  40.7784939  28.6530328  85.3965092  40.6366444  28.6325312  86.3429165
  41.6476917  28.2705808  85.2762604  61.0235275 105.5058148  82.5195217
  61.4368952 105.9203341  83.2768345  61.5620733 105.7751279  81.7754269
  26.5436006  26.5280271  67.9846239  27.1492171  27.0365238  68.5239697
  27.0881462  25.8464980  67.5906420  11.9176710  40.8196115  92.0331192
  11.3344431  40.1402187  91.6947269  12.3928177  41.1325693  91.2633610
 111.4816793  49.9675322  72.4771595 112.3034229  49.8651075  72.9572392
 110.8943876  50.3999329  73.0971193  20.0670910  10.5118692  69.3724251
  19.3320763  11.1003971  69.5445347  20.6171227  10.9905958  68.7523317
  28.8460374  14.3652797  69.3256998  28.4358931  14.9723339  69.9417353
  29.5211339  13.9221847  69.8396492  26.8277955  73.1282902  88.9185333
  26.6908050  72.4958467  88.2132149  25.9541893  73.4723139  89.1047764
 105.2323248  46.5244722  90.6677628 105.7066526  47.1636963  90.1361275
 105.8088138  46.3583660  91.4136219  11.0246158  50.5571365  63.2200527
  10.8023238  50.0459242  63.9981794  11.6387916  51.2197590  63.5362005
  37.9269814  35.6572294  76.3802862  37.7530956  34.7523975  76.1209154
  37.5556660  35.7299280  77.2595310  24.4555783  27.7364230  63.7789536
  25.1083422  28.3542967  63.4497738  24.1717482  28.1097841  64.6133804
  88.2425155  54.7773886  64.6969032  88.0448856  55.1830959  63.8527584
  88.2265749  55.5030060  65.3209639 115.7113932  53.4115934  94.6575737
 116.4582845  52.8843784  94.3739700 116.0395704  54.3107748  94.6586704
  20.3545785  40.0085163  39.2979741  20.6806612  39.1339993  39.5103931
  19.4220567  39.8806858  39.1239262  87.3392882  64.4447613  71.2050867
  87.4768390  63.5893011  70.7982731  87.1306195  65.0267172  70.4743242
   4.9369383  52.2525406  70.3551865   5.4171640  52.2860289  69.5278454
   4.0240479  52.4007416  70.1084089   0.8512145  42.2276783  94.9888706
  -0.0751776  42.1111345  94.7780514   1.1318495  42.9590797  94.4388485
  24.9065185  46.1538029  55.5380726  25.6195426  45.8725023  54.9647522
  24.1099048  45.9052324  55.0691938  13.3405781  43.2235289  92.7989769
  13.1224620  42.6652765  92.0526505  12.5143397  43.3254480  93.2713985
 107.9174854  47.5590992  39.8546863 107.1743323  47.8061628  40.4050636
 108.1626703  48.3682728  39.4059587   8.8432574  36.9669461  81.5037632
   9.3587673  37.1733284  80.7240868   7.9341888  37.0025945  81.2061787
  30.4333305  39.9661398  59.4673443  30.4940033  39.9964094  58.5125494
  30.1662540  40.8503437  59.7185183  21.5479827   1.2051968  80.2939701
  21.5810180   1.6543427  79.4493294  22.1400690   0.4599934  80.1922798
  30.6723738  24.1317225  72.6774168  30.8414435  23.3579254  73.2148981
  30.3643537  23.7804127  71.8419886   1.6527428  12.4492157  71.9304132
   1.7334887  11.9868183  71.0962105   0.7524887  12.7743602  71.9378757
 115.4264995  33.4792376  25.9057188 115.3485277  32.7391815  25.3036666
 114.6143804  33.9716434  25.7864189  90.2086129  20.5807638  55.2868509
  89.4309797  20.2524781  55.7382345  90.6543913  19.7934616  54.9743271
  58.8902677  68.1568806   1.9901675  58.3885945  67.3519473   2.1191520
  58.6262573  68.7225299   2.7158183   8.2784587  43.3079672  66.5315151
   7.8446633  44.0035772  66.0373735   8.5609972  42.6813602  65.8653593
  69.5523514  91.2593512  12.1259994  69.5966781  90.6253533  12.8417605
  69.0041698  90.8364325  11.4650363  74.2175425  72.0318501  15.1210803
  73.4917725  72.6550345  15.1547164  74.7980083  72.3766117  14.4425220
  92.2509279  40.2426910  93.4525871  92.1644249  39.4522262  92.9197502
  91.3936915  40.6647778  93.3958530 110.8627381  44.0952730  54.9073267
 109.9462064  44.1148520  55.1826763 110.8248075  44.0278673  53.9532566
  41.4482307  31.0806346  80.6774998  40.9958267  30.6381583  81.3956738
  42.2776270  31.3690901  81.0584641  12.4632847  21.9208312  93.7543011
  11.5762413  22.2771621  93.8034248  13.0299497  22.6918006  93.7273407
   6.6318512   8.9179522  78.6231089   7.1690398   9.6802473  78.8389015
   7.1992940   8.3711380  78.0797529  22.4400783  55.2433300  72.6997471
  23.0488372  55.9107208  73.0163383  21.8240881  55.1191616  73.4218073
  25.1355267  56.6567087  93.8880253  25.1655602  55.9133101  93.2857800
  24.7648501  57.3705244  93.3690834 106.3491585  58.1908274  73.3590984
 106.4985766  58.6281443  72.5208521 105.4355707  58.3832884  73.5701609
  23.8462973  65.7475710  74.7241831  24.1552448  66.6479969  74.8242807
  22.8990269  65.8040380  74.8495817   9.5812827  63.9006042  25.7900190
   9.4191319  62.9632854  25.6833720   9.0303606  64.1563272  26.5298319
  18.1508040  27.8821278  52.3553514  17.2572649  28.0979753  52.0884609
  18.0838108  27.0027757  52.7274847  65.1410497 100.9697288  38.0465341
  65.2360202 101.0871881  38.9917397  65.8028854 100.3168433  37.8186178
  27.2297072  48.9558506  68.7152052  26.7053843  48.1781769  68.5240555
  28.0858302  48.7680006  68.3304977  20.5184150  35.4065657  74.9741411
  19.5784569  35.5795813  75.0268507  20.6713319  34.7158241  75.6189060
  64.7856749 109.4730848  60.8951569  64.4424284 109.5516690  60.0050783
  64.1482616 108.9225240  61.3499308 112.6095044  27.4627471  76.2520075
 112.8736090  26.5902281  75.9601259 112.9417916  28.0524850  75.5752277
  98.5826494  61.8083906  75.4697800  98.4187033  61.0058308  75.9650040
  98.1559171  62.4963617  75.9804916  20.0240112  79.5882301   4.0230674
  20.4532231  79.9984984   3.2722777  20.6991197  79.5641499   4.7012156
 106.9439389  59.9065065  71.4553452 106.5888079  60.6257725  70.9330702
 107.5954862  60.3204536  72.0213556  87.6720371  14.4703174  21.2362337
  88.5488572  14.1465700  21.0298133  87.1696987  13.6833501  21.4473557
  89.0720048  52.1056318  77.0651388  88.3053245  51.8187857  76.5690041
  89.5415845  52.6859856  76.4660406 105.5930414  37.1852374  59.9189234
 106.2231400  37.8931236  60.0534821 104.7411360  37.6215720  59.9088860
  99.7289207  55.1686573  44.3284845 100.5567255  54.9688911  43.8913727
  99.9229707  55.0788832  45.2614975 106.2113835  41.2290907  62.2280550
 105.8343317  41.4126301  61.3676023 106.9110479  41.8749762  62.3256731
   0.2881503  50.7569695  64.7173452   0.9201369  51.4750433  64.6828127
  -0.1093613  50.7456779  63.8466597 105.1085117  62.8457785  15.0643730
 105.8419492  63.4294176  14.8703015 105.3340640  62.0243502  14.6277821
  27.6084782  88.3774786   8.1742782  28.1869806  87.7749877   8.6417979
  28.1789113  88.8156776   7.5427646  25.5554056  27.2240233  83.5635376
  25.6211352  26.8749905  84.4524002  24.7812438  26.7979908  83.1955624
  99.7850371 107.3546922  83.7033272 100.2859975 108.1365656  83.4710693
  99.0801741 107.3209744  83.0565929  91.0376348  13.7844396  16.5726757
  91.7356958  13.4581757  17.1405613  90.5098881  14.3460858  17.1403635
  95.4235854  20.9222937  43.0100822  95.0596203  21.0937476  43.8786221
  96.0803737  20.2413845  43.1557655  35.7785559  37.6708364  85.9577751
  36.3313341  36.9422221  85.6753063  35.0562096  37.2549987  86.4284420
   1.7758910   1.8019800  73.3410835   1.3712656   1.1100269  72.8179073
   2.2273344   1.3368061  74.0453863  48.6158991  74.6744633  73.9119482
  47.7517033  74.3116856  74.1063643  48.9225006  75.0243616  74.7484875
   2.5273767   7.0354009  29.2066455   2.4046433   7.6089281  29.9631071
   1.7075604   6.5455568  29.1419482 104.8582508  31.5340781  76.6865301
 105.1914611  31.6725135  77.5731182 105.4167595  30.8456159  76.3255358
   7.6803666  68.5740089  75.5556965   7.7984256  69.4920063  75.3116226
   8.0435205  68.5124683  76.4391947  68.1498612  74.6645813  28.7984485
  69.0337743  74.6374445  29.1647738  68.2286466  74.2281716  27.9501647
 106.0023143  18.0034494  85.7950878 106.0674085  18.4457111  86.6414928
 105.1543798  18.2779813  85.4459858   6.2120897  67.7483177  69.4780397
   5.8157027  68.1501102  70.2511311   5.5774945  67.0881939  69.1991901
  68.5076512  93.0937366   8.7755889  69.4072593  93.3401971   8.5606593
  68.2205404  93.7579398   9.4021911 115.2198078  42.7700138  70.6055641
 115.3549766  43.6731720  70.3187370 114.8124731  42.8510189  71.4679718
   0.0832875  83.3458900  81.1224556   0.2981092  82.6035690  80.5576229
   0.9324397  83.7090588  81.3740158  22.9270363  80.6977081  70.5027723
  23.6687827  80.1146507  70.6643009  22.3107791  80.5025005  71.2087154
  44.6437263  57.7892494  39.5566010  44.8853397  57.1236753  38.9125013
  44.7964716  58.6217546  39.1095757  34.2489481  30.5977583  66.9679213
  34.3253398  29.8403263  66.3876677  33.3780313  30.5150223  67.3563671
  44.6729088  50.4596710  92.1807289  44.5096731  50.0310516  93.0208969
  45.0676203  51.3001156  92.4133015  52.6462889  24.8016524  58.5375881
  52.8014088  23.8660169  58.4081507  52.8554296  24.9538660  59.4591761
  18.0211866  42.5927925  87.7178574  17.8595686  42.3599100  86.8035889
  18.5863554  41.8937683  88.0467606  97.9107740   6.9798618   0.2817744
  97.8438094   6.9433265   1.2359256  97.9945900   6.0651880   0.0123614
  15.8175981  59.0010786  79.8666811  15.1057386  58.3616972  79.8927307
  16.4100862  58.7285423  80.5673313  33.6348057  21.0949516  49.0848923
  34.4441628  20.7439518  49.4563389  33.7118316  22.0426297  49.1953659
 115.6483546  67.1603489  78.8204908 115.4619670  66.7751789  77.9642582
 116.5098258  66.8157387  79.0557384  44.4938421  47.2406101  62.4492645
  45.4190207  47.4861097  62.4524164  44.0314054  48.0521441  62.2399855
  18.2222223   5.1265448  85.1376343  18.2971001   5.6768316  85.9172630
  17.8648448   4.2997262  85.4614925   7.0950949  77.7079916  75.2640963
   7.0698512  76.9794846  75.8844709   6.2659657  78.1667328  75.3995085
  47.2637272  58.6639547  75.9961367  47.9109526  58.3136177  76.6081810
  47.0056200  59.5040655  76.3753748  47.0967340  12.8226483  64.6004200
  46.7312241  13.7064099  64.5604181  46.8478060  12.4225712  63.7672281
  49.1352320  30.8054686  58.7727499  49.3877459  30.0197196  58.2879066
  48.8704586  30.4810381  59.6334887   8.1167251  99.5654774  69.1476107
   8.1394398  99.7638416  68.2114649   7.6340139  98.7409782  69.2060900
  22.6795530  47.0700884  79.3810415  22.9034162  46.1758757  79.1231632
  21.8229246  47.2266197  78.9836502  38.5088372  53.7381458  61.0582542
  39.1875863  53.4089422  60.4690552  38.2821727  54.5986128  60.7054710
   7.8972805  52.7335548  58.1771660   8.1259525  51.8418074  58.4393311
   7.7074558  52.6668549  57.2413540  23.8196468  38.7302232  44.5046282
  24.4958663  38.8649797  45.1685572  23.7283254  39.5828462  44.0792751
  21.8770599  54.5867395  58.9636326  21.9376731  55.4608870  59.3488979
  21.4392877  54.0600872  59.6323776  15.5454111  17.7324593  63.4322023
  14.9780846  17.4767399  62.7048922  16.1871779  17.0251000  63.4955263
  43.6839533  38.5127044  72.5186682  43.2479477  37.8065014  72.9955435
  42.9939461  39.1572428  72.3615360  61.8257761  16.8812644  58.3664036
  61.9646215  17.5620461  57.7080059  60.9722900  16.5071154  58.1477594
  47.5803328  53.0770874  84.2082024  47.8537273  52.1995068  84.4753075
  47.6948261  53.6128855  84.9930859  31.1440539  47.8748035  78.6990309
  31.5593362  47.5490475  77.9004955  31.3320112  47.2054338  79.3569422
  14.7530401  23.1066322  52.9918957  14.2898929  22.6701641  52.2769022
  14.7993875  24.0239787  52.7225256   6.2766951  21.6167927  65.3554201
   6.3768429  22.5396419  65.5889797   5.5918407  21.2944055  65.9413147
   5.8933645  71.3291740  76.9667959   6.1665612  71.3167238  77.8840971
   5.1681310  70.7059002  76.9244051 112.2071790  27.1765566  56.6025829
 112.3319732  26.4144373  56.0370493 111.8656017  27.8542852  56.0192823
  81.8200799   4.5284181   0.3748912  81.4082202   5.1966386   0.9227008
  82.1587276   5.0118261  -0.3786737  27.0681953  56.6505814  88.3548260
  27.8159142  56.4397097  87.7956486  27.3994660  57.3174429  88.9563084
  37.5523400  86.9276648   0.7437057  37.6998900  87.1736984   1.6569060
  36.6834606  87.2736578   0.5398292  17.4331117  53.3074951  92.3650074
  17.9104102  53.8929796  91.7771149  18.0512345  52.6013851  92.5536060
  38.1579661  54.0436602  72.4657059  37.2231317  54.0462637  72.6714039
  38.2630324  54.7422314  71.8198013  32.5074434  64.9179220  66.5906715
  33.1267333  65.2691078  65.9508419  32.9406714  65.0401926  67.4354172
  19.0807056  22.6700068  78.7314415  19.1643238  23.5613966  78.3928204
  18.8866436  22.1378875  77.9598045   4.9971583  49.2975807  80.3859234
   5.1540649  50.0881672  79.8696041   5.5014819  49.4315672  81.1883831
  38.5651159  62.0754290  75.9313202  38.7154818  62.7286100  75.2479649
  37.6728892  62.2457170  76.2332535  56.9859838  82.5647354  87.9067326
  56.4612579  81.8090820  87.6424026  57.2906828  82.3482990  88.7879467
  20.0508738  59.6095371  90.1363182  20.5070567  59.5539427  89.2966461
  20.4814625  60.3305960  90.5955505  22.5478435  38.8611174  58.8225508
  21.5951109  38.8313365  58.9099836  22.8598833  38.1259871  59.3502283
  15.7927895  48.8322496  46.2769270  16.3409984  48.2659483  45.7337856
  15.9373963  48.5203028  47.1702385  97.7089574  38.5646635  16.6667384
  98.4429862  37.9915624  16.4454097  98.0986121  39.2581373  17.1991843
   4.6787897   5.7066548  73.8390255   4.7883147   5.2109641  74.6505260
   3.9669374   5.2606416  73.3801460   3.4122822  89.3982697  81.6435337
   4.1766492  89.3567181  81.0688686   3.4253454  90.2883148  81.9954967
  13.8143897  37.6619220  41.1619091  13.3508539  38.2252169  40.5421782
  13.7694490  36.7889142  40.7719517  39.0029216  35.6517863  68.7029314
  38.6063838  35.8170485  69.5583153  39.6455741  34.9614453  68.8662100
  30.5700779  42.8552723  91.0780621  31.0453987  43.6860609  91.0874939
  29.9783134  42.9263878  90.3290653  11.3186872  66.2489700  54.9461842
  10.7624650  66.7478991  55.5444479  11.8249798  66.9137383  54.4792986
  41.8032265  17.5387013  73.2929182  41.3268089  17.2475457  74.0704107
  42.5646544  16.9603932  73.2480574  36.9662738  43.5770988  57.8381300
  36.4185739  43.1097603  58.4688854  36.9867873  44.4782686  58.1601667
 111.6086068  53.4956264  53.7667465 111.0848512  54.1324997  53.2806301
 111.5458568  52.6910973  53.2519388  23.9923048  31.3509488  67.6811075
  23.3855343  30.6375551  67.8789186  24.5703030  31.3919616  68.4429932
  25.3817797  54.5286655  67.0879602  24.6197200  54.1884136  66.6192102
  25.0612450  55.3172207  67.5257635  22.8092742  27.5424290  61.3032675
  23.4516525  27.6678157  62.0017385  23.1867123  27.9920173  60.5471992
 106.4181116  47.9437833   3.2828158 106.4873721  48.5639291   2.5569648
 107.2627523  48.0023962   3.7293357  36.6136742  10.0230360  54.8199701
  36.3812137  10.1984441  53.9081430  36.5372181  10.8725810  55.2543163
  66.5454758  78.4003143  20.4895038  65.7836498  77.9001694  20.7822627
  66.3948883  79.2842131  20.8245868 111.2595048  14.1037941  66.7032576
 112.1730348  14.1901886  66.4308023 110.8397867  13.6279893  65.9865427
  48.9334488  38.6784172  30.1265407  48.4787369  38.5752416  29.2905831
  49.2264700  39.5896626  30.1289368 112.2040345  66.9257879  58.4134579
 112.8754868  66.9093561  59.0954494 112.4556117  66.2243319  57.8127050
  38.5519171  59.6558142  64.4697237  38.0769491  60.4138803  64.8102713
  38.3265400  59.6299267  63.5397959  21.2489557  20.9437370  90.3139782
  21.4468503  20.0933599  90.7063198  21.1754179  20.7638025  89.3767262
   5.3528416  46.9027853  65.5776167   5.1050407  46.9069958  66.5021753
   4.7753632  46.2524557  65.1778364  25.0090265  16.6164625  79.3291807
  25.5662131  17.3193395  78.9949083  25.6174016  15.9080184  79.5394611
  15.9230077  37.6268721  63.7850094  16.1295831  37.9106617  64.6755314
  15.2602053  36.9456482  63.8984060   6.5374595  64.7076559  14.8256528
   6.1251891  63.9872026  15.3023183   5.8304596  65.0833321  14.3010068
  42.1600771  33.2135868  50.0768042  42.3267460  34.1485977  50.1959896
  43.0295944  32.8133774  50.0769281 111.9416233  55.8355045  69.5898962
 111.2366988  55.3599119  69.1504288 111.8735375  56.7291307  69.2537069
  26.8099451  66.5934277  73.1484365  26.3133073  65.7803249  73.2403278
  27.7255344  66.3146067  73.1347895  73.5738624  88.9299469   3.0265922
  73.2269324  88.3559566   2.3436564  72.9497565  88.8485222   3.7477702
  30.4854989  38.3454895  53.3672810  30.8617663  37.6459861  52.8330946
  31.2002182  38.9723158  53.4790754   6.2753510  47.3288536  57.3110867
   6.2018526  48.2405758  57.5932121   6.7587745  47.3716688  56.4860439
  29.2924094  61.6588306  62.1385431  28.4977913  61.7005014  62.6705980
  29.1739464  62.3407221  61.4773178  28.3007455  31.3187027  63.1589127
  28.7593389  32.1315002  62.9461098  27.3725510  31.5432310  63.0935526
   5.7670861  83.2344818  88.9904594   6.7046851  83.3924198  88.8800240
   5.6212109  83.3083344  89.9335861  84.6893133 106.3265996  30.5952853
  84.3054546 105.4516797  30.6536025  85.4065145 106.3162188  31.2291163
   2.5078529  25.9286213  43.4905386   3.3138287  26.3460732  43.1866121
   2.4216449  25.1477480  42.9436970   9.0788341  57.5923729  60.9287262
   9.4935983  58.4165955  61.1834049   9.7966206  56.9594622  60.9078693
  45.3410625  22.8110600  84.4958496  45.2822065  22.0444846  83.9256382
  44.5661688  22.7538133  85.0548553  26.9554305  62.0179367  63.7923717
  27.2232151  61.9458103  64.7085142  26.7466831  62.9448366  63.6761189
  16.0767412  43.6014128  52.8135777  15.9065902  43.1571054  53.6441612
  16.1387873  42.8939342  52.1718121   0.6546298  45.2326059  44.8575544
   0.0501788  44.5234728  44.6384668   0.0882255  45.9824848  45.0394917
   8.7769979  49.6028042  65.5666208   9.1987371  48.8971281  65.0763226
   8.0370539  49.8657465  65.0192881 108.3512576  17.6836240  70.3219986
 107.7998390  16.9268858  70.1232100 107.7539315  18.3175766  70.7189083
  33.9313221  59.0095758  60.2276516  33.8667727  59.9363995  60.4580116
  33.2276106  58.5901546  60.7227325  25.4671288  61.7650318  76.8847656
  25.0284243  61.9734287  77.7095938  24.9964571  62.2770739  76.2271118
  49.2097950  60.8158302  73.0017948  50.1040077  61.1323833  73.1299210
  49.1311264  60.6969166  72.0552731  16.0976100  53.5865116  80.4731750
  15.1911485  53.6591721  80.1743793  16.4469802  54.4743681  80.3964710
  24.9041414  43.5325909  77.9566431  24.3356824  43.1069613  78.5984564
  25.2263117  42.8161621  77.4096775  43.6721277  66.2109995  80.5483246
  44.5030880  66.6173506  80.3021336  43.1551552  66.2159109  79.7427559
  31.5406656  77.6595116  61.4341831  32.0617628  76.8571711  61.4648581
  31.2000060  77.7579975  62.3232698  16.3813090  19.2112899  58.8410997
  15.7530963  19.9276483  58.9328051  16.9195402  19.4594753  58.0894756
 111.6256039  78.3241129  77.2416019 111.9590511  77.4649191  77.5001192
 112.0858272  78.5243082  76.4265251 112.3524289 100.8134747  75.6928349
 111.4564021 100.9749317  75.9883022 112.7014752 100.1811314  76.3209581
   4.8136321  42.0277834  66.8064594   5.2097481  41.9607258  65.9376526
   5.1867825  41.2954140  67.2969961  66.7598714   8.7453128  67.4712992
  66.2858213   8.1188632  66.9244289  67.6128305   8.8365699  67.0466089
   3.9111477  67.5552273  88.4757805   4.7348505  67.7047062  88.9398956
   3.7446445  68.3763313  88.0128574  25.0088525  59.6812773  67.6946974
  24.2215037  60.2225304  67.7526331  24.7998548  58.8990259  68.2052231
  29.5399976  44.4852257  81.5186405  29.9793267  44.3070126  82.3501873
  30.1785183  44.2331648  80.8515644  18.0114174  32.5999260  64.1915321
  18.3261907  33.5036159  64.2137289  18.7009072  32.1172714  63.7355900
  74.3373393  20.9625822  20.4996413  73.8576233  20.1758819  20.7588881
  74.1786941  21.5846973  21.2096042  17.6771915  28.2544374  64.7976160
  17.8673625  28.9572692  65.4189825  17.0539498  27.6911974  65.2564859
  39.0407348  39.4476438  55.5757713  39.8804450  39.8456359  55.8053875
  38.5055447  39.5464897  56.3631916  28.2073951  53.3233786  94.1211700
  27.9547834  53.5926199  93.2380390  28.6948037  54.0701485  94.4690228
  16.8827426  51.8021536  78.6151123  16.6573846  50.9319401  78.9440060
  16.9377911  52.3478460  79.3995953 107.3710765  55.5936337  55.9572124
 107.5106504  54.6610689  56.1217785 107.3929979  55.9959698  56.8254709
  20.3132677  55.4288483  69.7851419  20.2868295  54.7650242  69.0960312
  20.9088159  55.0684500  70.4421568  14.2330861  47.6728535  92.3337841
  15.0805151  48.0354214  92.0756435  14.3682086  46.7252350  92.3345184
   8.7489116  46.4214611  77.8314924   8.2904005  47.2394228  78.0236816
   8.0502790  45.7887363  77.6647520  36.1743808  58.4103632  69.2967081
  35.9422159  57.4850273  69.3746758  35.6008935  58.7438679  68.6066961
  34.6091509  56.0249615  69.5101643  35.1784372  55.2919865  69.2758656
  33.8572121  55.9411526  68.9238214  77.5740401  24.7787862   4.1346950
  77.7209476  25.2332025   3.3051414  76.6440273  24.5526033   4.1224593
 109.9894907  32.7993178  72.6147556 109.9011000  31.8513060  72.5162840
 109.2183097  33.0607963  73.1178808  13.3535790  26.1190629  86.7878246
  13.6242092  25.7178354  87.6136684  13.1257498  25.3788924  86.2252712
 114.5298291 107.0931693  71.7556190 114.1190554 106.7712515  70.9532070
 114.1095115 106.5947776  72.4564505  26.8979335  74.2011070  65.0963593
  26.2505651  74.0296602  64.4124365  27.5962281  74.6804523  64.6504354
 113.1649004  49.5273924  74.5739889 112.9787748  48.7342596  75.0765133
 113.0602183  50.2402687  75.2041340   0.2050274  19.4630468  68.9406538
   0.4420246  18.6500657  69.3868876   0.9128430  20.0700688  69.1568804
  43.5692692  65.0009727  93.3057785  42.9977179  64.4840622  92.7380085
  43.1043291  65.8293581  93.4234333  24.2324615  57.5447798  88.5808945
  25.1720762  57.3781061  88.6555672  24.1274714  57.9408836  87.7158451
   5.8350623  21.2540388  83.2143879   6.3112479  20.7827163  83.8980103
   5.3274155  21.9134951  83.6872959  28.5029936  73.3063412  91.4016724
  28.5331202  74.0848541  91.9577694  27.8406501  73.5093164  90.7411194
  68.2947696   9.5885897  37.6561666  67.8267993  10.4106093  37.5094485
  68.2021369   9.4244624  38.5946274  30.2904177  53.4697962  79.6102619
  29.4505358  53.2553339  80.0162697  30.6370234  54.1867828  80.1413250
 114.4527223   3.5809236   6.3385791 114.0234735   4.3258482   6.7593783
 114.6143391   2.9633814   7.0518512  36.5969372  62.8621101  92.8604031
  35.6888294  62.8799105  92.5583172  36.6873121  63.6515093  93.3941746
  81.4845263   1.2568432   9.7315616  81.5561118   1.1868005  10.6835097
  80.9454980   2.0347982   9.5885009  38.8336134  33.4155488  66.5882444
  38.1414843  32.7918410  66.8077421  39.4184637  33.4007382  67.3458481
  27.9980397   8.4247965  92.7066612  28.3055234   8.6889929  93.5737705
  28.0007482   7.4679583  92.7328396 111.4995750  77.0349455  48.5919952
 112.3684551  77.1177149  48.1990242 111.6298415  76.4532089  49.3408918
  36.6865659  47.7748442  65.9546852  36.7568564  48.1225348  65.0656414
  36.8599463  48.5271931  66.5205002 100.1839556  43.3464241  74.2550755
 100.7224288  42.6628304  73.8563585 100.5212750  43.4271431  75.1472282
 114.7084894  47.1744490  85.5656910 114.9331931  47.4063540  86.4667797
 114.9870280  47.9295015  85.0474834  26.6041112  75.5630302  67.4821758
  26.5167451  74.9928427  66.7183113  25.7648516  75.4857969  67.9359484
  31.9474006  55.5084848  80.4368687  31.7303753  56.1826468  79.7929382
  32.7356124  55.0907087  80.0898552 113.2045721  75.1828718  68.2765913
 112.6451879  74.4808817  67.9441309 113.7465148  75.4321384  67.5279951
  19.7281897  28.5751152  86.4555359  18.9018810  28.4436297  85.9906101
  19.8201931  27.7969003  87.0052242  20.3865314  52.4812794  76.8300962
  20.5147314  53.2836485  76.3241291  21.2656474  52.2381449  77.1203899
  45.0913715  73.6975908  68.2408237  45.1689482  73.2179356  67.4161148
  45.3065491  73.0523586  68.9143276   3.1977928  69.7727060  47.6972961
   3.6719728  70.5095577  47.3120213   2.2838031  70.0567389  47.7106762
 103.4511306  18.8492113  40.5755156 104.3454625  18.8047176  40.2372474
 103.4907057  18.3957201  41.4175433 105.8525660  26.0133862  72.0266771
 105.1154627  25.4910469  72.3430204 105.9741106  26.6863871  72.6963997
  42.5006914  22.6487017  91.6900253  43.0201626  22.6618814  92.4938965
  43.0686903  22.2278094  91.0446835 114.9972828  49.3766356  80.1305199
 114.0863242  49.4420052  80.4170704 114.9520377  49.4249153  79.1756058
  86.4040365  54.9094439  54.0996552  86.9395842  55.6902885  54.2400169
  85.5078449  55.2001047  54.2687368  18.3095062  60.2525806  78.9758825
  18.2479727  60.9208298  78.2933187  17.4064910  59.9660873  79.1126871
  76.0720361 103.5433679  11.8756026  76.0780753 104.3892388  12.3235911
  76.5570391 103.6981730  11.0650176   5.8345097  46.3451672  42.1785736
   5.5923635  46.7858934  42.9930401   5.1230735  46.5532875  41.5729523
  28.6803389  42.8085709  89.1635704  27.9475474  43.2353210  89.6075726
  28.4461355  41.8805265  89.1526699  54.5419121  53.7457943  92.3747540
  54.0235806  54.2685366  91.7629528  55.3321886  54.2649889  92.5235558
  16.1070836  59.7378588  76.7301464  16.4413249  60.1322794  75.9245729
  15.1631713  59.8938084  76.6994572  59.7382964  83.0700879   0.3079623
  60.6228174  82.8214960   0.0395316  59.7998704  84.0062098   0.4980105
  52.8255224  92.2740650  72.0403862  53.7227249  91.9965935  71.8552828
  52.4581528  92.4850464  71.1820412 108.7378653  45.1314449  63.5526228
 107.8510775  45.2340269  63.2072020 109.1962292  45.9246302  63.2751608
 100.4273882  76.5186501  74.2674112 100.2028408  76.9241142  75.1049137
 101.1522379  77.0465088  73.9324570  30.9973335  46.1861944  60.1952267
  30.7739496  45.2955103  59.9250078  31.9340849  46.2635565  60.0142622
  57.9608011  18.4842896  72.1193981  57.2003984  18.2799244  71.5751076
  58.0214548  19.4393110  72.0972872 114.3870146  35.8186865  56.8828869
 113.9442803  35.9375215  56.0425901 115.0444200  36.5139818  56.9076729
  18.6082900  57.5557137  70.1120377  18.0054712  56.9893789  70.5938101
  19.1931391  56.9503212  69.6563148  14.3557668  57.2009325  54.9420166
  14.0262961  56.3110256  54.8165464  14.2052901  57.3834944  55.8695221
  22.2477770  48.0261040  40.1128292  22.9815817  48.1978226  40.7029772
  21.6621327  47.4611807  40.6169271  56.7880882  62.5973712   6.7228335
  56.5694846  63.3663224   6.1963672  56.8469168  62.9293047   7.6187057
 111.5103917  35.5344272  90.8948708 111.7435505  34.8268008  91.4958096
 111.0794159  35.0942421  90.1622486  24.2520785  55.2112055  78.0170822
  23.8123751  54.9105787  78.8123941  24.0537834  54.5390177  77.3651028
 113.0364766  58.0049896  86.0623741 112.2646593  58.5671711  85.9954643
 112.8019216  57.3538733  86.7236328   9.1531956  65.4273367  90.1585865
   9.3779135  65.8676338  90.9782696   9.9524885  65.4751015  89.6341038
  61.0674715  21.4002037  61.6313696  60.7148457  20.7631326  61.0100603
  61.8671894  20.9928560  61.9641638  35.1103354  75.0611830  63.6275816
  34.9870634  74.7705126  64.5312119  35.7201505  74.4257355  63.2526588
  33.7361956  59.3729067  67.8845835  33.7798238  59.1787148  66.9483042
  33.6711359  60.3268814  67.9285479  47.2925663  36.8735051  91.3435555
  48.0278969  36.6546941  90.7711601  47.0464277  37.7625275  91.0880375
  35.1769376  36.3722157  56.8442297  34.7088218  36.9212151  56.2151814
  34.8702788  36.6731930  57.6995659  39.9560905  26.2938070  89.4796944
  39.7939110  27.0233607  90.0777531  40.8001328  25.9386730  89.7584438
 107.1532430   5.5764568  19.5712590 107.3135903   4.8543954  20.1788330
 107.8026672   5.4553276  18.8785768  29.5310736  61.2611675  76.4315939
  29.6829724  61.8723917  75.7107878  28.7870073  61.6312075  76.9066381
 113.6243533   0.8845245  50.1815319 114.5358399   0.5946174  50.1444149
 113.4634822   1.0506209  51.1103868  27.4712014  51.5908623  91.3997173
  27.7456021  51.0894871  92.1675396  27.3011994  50.9288406  90.7295990
  39.3988705  64.1005754  65.5394697  39.0341568  64.8879719  65.9434748
  39.3007684  64.2467260  64.5985937  52.5426245  16.3088596  77.5373411
  53.1840229  16.0232842  78.1879473  52.5640583  15.6279349  76.8649483
 108.3220055  83.4758949  76.7078114 108.1392272  84.1265678  77.3856354
 108.2603689  82.6347256  77.1604443  99.6592691  11.9694191  14.3610972
  99.4628384  12.2909170  13.4811610  99.8331048  11.0357385  14.2416972
  91.5438237  30.6456685  85.9283161  91.0410847  31.1236262  85.2687454
  91.4053573  31.1374164  86.7377853  45.1226473  34.9453139  71.9829607
  45.8348179  34.5374107  72.4755621  44.4168520  35.0463462  72.6216125
  34.3788981  47.5613260  21.8200326  33.7225771  48.2019949  21.5461397
  35.0560427  48.0818987  22.2521377  21.6194439  73.2167625  66.4505911
  22.3788190  73.1827784  65.8688498  21.1042905  72.4444628  66.2173462
 103.2779672  34.9858766  17.6913852 104.1008665  35.4726797  17.7371711
 103.3499362  34.4687277  16.8891257  47.7796602  31.8645716  49.7072172
  48.5079575  32.3519635  50.0922585  48.0626059  30.9505272  49.7336245
   2.7202365  87.0758057  83.2874489   2.9642659  87.8750229  82.8206158
   1.8109603  86.9181347  83.0333042  27.6643920  45.6855345  73.7570381
  27.9725552  44.8394442  73.4323883  26.7310047  45.5529690  73.9227104
  31.8448353  36.7632437  51.3556671  32.7449417  36.4796829  51.1955595
  31.5930128  37.2242117  50.5554628  41.7182446  52.2948217  74.7570181
  41.0803556  51.6056108  74.9422598  41.1883354  53.0780077  74.6085310
 103.6751284  22.0783997  64.8853636 104.1058030  22.1965027  65.7320070
 102.7407851  22.1529698  65.0794601  44.6923590  36.6250062  51.9770432
  44.6614265  35.8078384  52.4745464  44.2932701  37.2736716  52.5568628
  17.8196073  14.4206786  80.3705311  18.6396265  14.8855722  80.2041721
  18.0923629  13.5501993  80.6605339   0.8365168  83.5011196  61.1619568
   0.8058621  82.5953388  61.4699316   1.7425615  83.6278439  60.8804274
 110.7842877  67.7250385  31.1982441 110.6112572  68.6609411  31.0963869
 111.2853845  67.6612043  32.0112991  40.7023191  47.3477936  93.0759716
  40.0419474  47.2964668  93.7669945  40.3654480  48.0090237  92.4713802
  19.5233393  76.3538837  88.0931664  20.4480410  76.4215851  87.8553200
  19.3783259  77.0798779  88.6999130  26.5613270  57.9893541  61.4731693
  26.2433243  58.8130665  61.1035728  27.5075841  58.0124140  61.3307047
 104.2244782  60.5324936  95.3793240 104.6982469  61.3029432  95.0659847
 104.2728045  59.9101019  94.6537018  16.7800021 104.4259357  63.6255550
  16.1206424 105.0276661  63.2800102  17.2588313 104.1259289  62.8529310
 113.3243521  40.3117800  86.2997055 113.7513312  40.7122040  87.0570564
 113.3885404  40.9734201  85.6109810 107.0040121 100.6160259  48.2226562
 106.3702669 100.4152775  47.5339603 107.8495141 100.6277752  47.7740812
 103.3052292  29.4500875  75.8717203 102.3908486  29.4950318  75.5922174
 103.4837474  30.3125262  76.2466335 106.6082492  40.3050280  56.7257977
 105.7076337  40.5457258  56.9430208 106.6208216  39.3495202  56.7812824
  39.2721701  67.8327465  93.5696411  38.7862492  67.8565884  92.7452946
  40.1714277  68.0500078  93.3239555 114.9165056  53.8269281  76.2008333
 115.3161653  53.0224466  76.5314627 113.9743998  53.6696625  76.2635803
  47.1093416  38.0908966  59.0029192  46.3643122  37.8967452  59.5716572
  47.4589396  37.2322655  58.7646627  26.8627095  36.2961340  72.2383547
  27.3551607  36.4968014  73.0342531  26.9156885  35.3438163  72.1576262
  52.2508764  88.2417107  75.6315470  52.5101995  89.1550159  75.5097008
  52.0757675  88.1655407  76.5695047  25.1578593   8.7824875  83.3965874
  25.3606939   9.6895301  83.1677628  24.2430854   8.8051629  83.6775017
 111.5054586   1.5889221   2.1603030 112.3454907   1.6064840   1.7017573
 111.5931322   2.2507816   2.8462333  54.3887377  97.6178455  68.5057974
  54.4434690  97.2898674  69.4033861  53.6733389  98.2534695  68.5262585
  26.4516425  54.4464445  75.7154417  27.2132015  54.3240547  76.2822580
  26.0450387  53.5810661  75.6704187  13.4670186  68.6913967  44.3451595
  12.9533732  69.4195747  44.6946716  13.8666821  69.0407848  43.5486507
   2.4726820  52.4626923  14.3210351   1.5643436  52.6906347  14.1230524
   2.9171363  52.4921513  13.4737897  20.2762008  43.6332083  66.8982458
  19.9632001  42.7353764  66.7879629  21.2303209  43.5568476  66.8908072
  31.6937518  38.3731151  39.4552112  32.5361538  38.4756494  39.0124035
  31.3881493  37.5054431  39.1906619  17.5623167   6.1806064   1.6790027
  17.5987375   7.1368557   1.6567725  17.3241318   5.9291797   0.7866591
  20.5872011  81.6741467  82.4997902  21.4566612  81.2889004  82.6086330
  20.5982566  82.0448875  81.6173649  16.0124707  53.1607056  58.6141968
  15.2049637  52.7697134  58.2805920  16.7091382  52.7334166  58.1158876
  17.5040901  68.2727432  76.8778563  16.8542218  67.5965548  76.6863489
  18.2369995  68.0722761  76.2957096  54.4411135  74.6132898  73.0070543
  54.6810389  74.2318773  73.8515615  55.2644062  74.6551037  72.5205660
  24.4608402  42.5813007  91.7468739  23.9123106  42.6911497  92.5235844
  23.9809418  41.9585657  91.2008572  27.9984593  64.7833157  80.2521610
  28.9237714  64.5400524  80.2813339  27.5734711  64.1826344  80.8643723
  50.8583069  82.7734661  84.6515369  50.6842947  83.4892845  85.2627277
  49.9943209  82.5215149  84.3255234  97.4425902   4.5600897   9.9951762
  97.2279313   4.2864233  10.8869475  97.4462523   5.5165535  10.0324840
  45.7928896  47.2191048  46.2031746  45.4481983  48.0459070  46.5405464
  45.7414055  46.6173363  46.9457769  65.8002199 107.3293500   9.7181624
  65.6616629 108.2507281   9.4988746  66.3858451 107.0056825   9.0336818
  13.7897491  59.4326544  40.1941681  14.5315051  59.2047119  40.7545900
  14.1195846  60.1356077  39.6344376  14.1498268  50.9349442  79.8754692
  13.7143934  51.0564232  80.7191944  14.3909657  51.8196201  79.6008205
  56.0074186  78.1906986  89.6025944  55.2066278  77.6900959  89.4464970
  56.6507387  77.5353718  89.8726368  23.1812561  29.5696550   9.8127574
  23.4572208  29.9820429   8.9942187  22.6100719  28.8520914   9.5387668
  76.3025988  98.1926970  11.1809749  75.6672515  97.9010634  11.8348235
  76.3057030  99.1467147  11.2588805   6.1536443   5.4988056  16.9403666
   6.5708864   6.3319212  16.7211360   6.2255466   4.9772506  16.1409682
   8.2622868  96.3819408  67.2899008   7.5425518  96.9508362  67.5629807
   9.0416467  96.7776585  67.6800728  41.0481739  46.9173908  73.3847237
  40.9083939  47.7115583  73.9004707  41.6577339  47.1831274  72.6962090
  68.0565394   6.8203498  63.9011097  67.3283995   7.3950434  64.1372824
  67.9573072   6.6828395  62.9590511  49.6298695  89.6992588  78.9903212
  49.7997761  89.2575932  78.1582785  49.0475416  90.4239082  78.7622833
   1.4116706  83.1634235  64.3684292   2.0824185  83.0098820  63.7030315
   1.6951068  82.6415348  65.1191139  14.4790733  24.1167074   6.8058795
  14.6163404  23.2499510   6.4236182  13.9276588  24.5739084   6.1709422
 113.7494807  56.5767479  58.2028008 113.5886585  56.5491390  57.2596121
 113.2927593  55.8088255  58.5462236  18.6355913  11.1794620  26.0180873
  19.3026054  11.7724662  26.3640231  18.5102022  11.4623123  25.1122684
 110.9854711 107.7756886  15.0545997 111.0987772 107.8201203  14.1051692
 111.7644514 108.2043414  15.4090995  45.1883173  73.1677198  61.7153978
  45.9151459  72.6347065  61.3931322  44.5075464  72.5335360  61.9403172
  11.6543829  36.3420844  45.1893473  12.3712945  35.9554005  45.6920862
  12.0796168  36.9838905  44.6205807  15.9613466  45.3662682  74.1957283
  15.6140995  44.4830561  74.3205643  16.2836421  45.3717422  73.2944393
  45.2502346  68.1264448  86.6596317  45.7670736  67.4051237  86.3007355
  45.2668428  68.7962914  85.9760666  32.0538855  78.6168003  79.9633360
  31.7934632  77.7043819  80.0894547  31.9811463  79.0090942  80.8334160
  22.5434041  45.2777100  75.5995941  22.2196913  45.9347534  74.9833632
  21.7634487  44.9888659  76.0733747  16.6724408  60.8461857  81.9081497
  15.8725750  60.7042170  81.4019012  16.3764989  60.8853531  82.8176117
  39.4961476  41.3678932  94.4602299  40.1619387  40.7087612  94.2640114
  39.9061513  41.9355965  95.1127911 114.6279027  20.7510477   9.1207046
 114.5232060  21.5135866   8.5516662 115.2721264  20.2037388   8.6716384
  56.5794563  79.7640228  83.7180328  55.7818842  79.7205687  83.1905746
  56.6734934  78.8841391  84.0829849  32.5222373  94.7637272  52.6272011
  33.3277726  94.3557167  52.3096085  32.6619983  94.8690319  53.5682726
  41.6004515  99.4474316  92.4477577  42.1603632  98.7179661  92.7134800
  42.2089005 100.1660347  92.2756195  50.5978632  74.5052433  85.2660656
  51.3592434  73.9290428  85.1988029  49.9157238  74.0604925  84.7629547
  42.0930481  52.1498346  48.2652044  41.2120104  51.8473387  48.0449915
  42.2852516  52.8230810  47.6124954   1.6392229  66.5978765  79.6812820
   2.5335762  66.5113735  79.3513107   1.6260166  66.0689259  80.4789448
  33.2831430  27.6229119  88.8990402  33.8444781  28.3535147  88.6395073
  32.4963069  28.0388165  89.2513847  41.2238216  81.8282127  69.1247940
  42.1293449  81.9551945  69.4078779  41.2624407  81.8767834  68.1696081
  40.2844286  53.4494209  69.3091345  39.8240852  54.0128231  69.9311447
  40.4077148  52.6245928  69.7789097  72.7903748 108.1615448  67.0455742
  73.2019997 107.4098396  67.4718714  71.9881439 107.8088665  66.6604996
  31.6770458  26.0771918  60.7124805  31.3918471  26.8335795  60.1998711
  32.5857258  25.9364724  60.4465294  43.1207323  46.9812393  67.2287369
  42.9481936  46.8186712  66.3013554  42.8813791  47.8987408  67.3596478
  53.2553720  71.9461203  89.4913769  52.5317240  71.3718414  89.2408562
  53.4606886  71.6938877  90.3916359  18.8988662  70.3735018  45.3207922
  19.0079570  70.1837158  44.3889618  18.0585742  70.8286095  45.3757620
  31.1943412  61.4485121  93.6940098  31.6891217  61.7181158  94.4677925
  30.9310460  60.5472517  93.8801098   2.8207272  94.0352249  72.4136782
   3.4934509  94.7064495  72.5282860   2.0908788  94.4958401  71.9996834
  24.7333574  35.1215267  85.1627541  24.4248700  34.4171882  84.5926857
  25.4811478  34.7443891  85.6262302  32.8361344  75.4676723  56.1721182
  32.2460175  75.1969004  55.4687881  33.6214328  75.7765245  55.7202911
  38.8795366  86.9419579   6.2025756  39.6753061  87.4738865   6.2083549
  39.1930045  86.0430961   6.1024779  32.6593828  36.0091257  75.9688473
  32.9122305  35.2110291  76.4328909  33.4600735  36.5328145  75.9391928
  27.9614282  58.7831497  83.7691784  28.4958243  58.0955219  83.3719158
  28.5952258  59.3748617  84.1746521  26.6933716  82.8467588   3.4367866
  26.5023340  83.7319808   3.1267566  26.8647422  82.3455291   2.6395244
  34.6797670  14.2056323  55.4258776  34.2827023  14.4961024  54.6047831
  33.9990164  14.3460704  56.0839701  47.4356365  32.7533865  69.3049002
  47.0061016  31.9611502  69.6275425  48.2670927  32.4451804  68.9444542
  38.2798171  62.5164938  62.1494341  38.9314580  61.8945980  62.4732351
  38.5610890  62.7148199  61.2562466  16.1043775  75.2883530  44.8815870
  16.1023796  74.7530794  44.0880394  15.1994658  75.2594328  45.1922798
  19.7616327  13.3904839  75.7669592  19.2099190  12.9758036  75.1037169
  19.4021571  13.0878448  76.6008759  48.9356565  74.0853357  68.6175632
  48.1669044  74.1417027  68.0500460  49.6768188  74.2459965  68.0335236
   8.7285584  82.8111649  64.8481798   7.9217285  83.3260727  64.8369741
   9.3499202  83.3502102  65.3376436  86.3752937  93.6533260  58.9128113
  86.4160633  92.6977348  58.8752031  85.5180359  93.8710785  58.5468531
  16.5368414  59.5000124  86.8446636  16.3417399  60.3162146  87.3050785
  16.3540053  58.8135386  87.4861908  36.9772196  77.1324730  61.7250204
  37.5124288  76.7227077  62.4046326  36.2236238  76.5499926  61.6299486
  52.9885197 100.1370907  78.5194492  52.2456121 100.2211571  77.9217386
  53.7532520 100.3414631  77.9812574  27.4688649  61.3752270  80.0997257
  27.2279358  60.7433605  79.4222784  26.7765379  62.0354843  80.0685310
  87.9299940   2.8928996  89.6019936  87.5170149   2.7320719  90.4504108
  88.7009824   3.4217215  89.8073006  10.8039570  72.0533848  61.1637974
  10.9906805  72.6201487  61.9122267  11.6462052  71.9588661  60.7189178
   2.7680886  61.6037178  83.6976528   2.5413224  62.4878407  83.9859867
   3.0522013  61.1571789  84.4952202  36.2684870  63.8952017  63.3490896
  37.0856261  63.4540892  63.1168509  36.5431523  64.7525787  63.6742020
  43.9312315  54.0425110  64.8343468  44.1209364  53.9829683  65.7706690
  44.7773361  54.2351246  64.4303179  23.5429049  49.8380041  91.9224358
  24.0659451  50.5142164  92.3530102  23.5833836  50.0599861  90.9922028
  40.9127522  68.4643030  77.2080421  41.6378212  68.6236048  76.6037846
  40.4959536  69.3196011  77.3128080  20.4082131  93.7400627  93.7390327
  19.6883345  93.2333088  94.1148090  20.2027869  93.7921143  92.8055859
  22.4853992  77.2150469  64.5682621  23.0415511  76.6649294  65.1198959
  22.1136570  76.6112232  63.9252758 109.5424225  59.3830109  76.0000134
 109.2801150  58.4663963  76.0851526 109.1847326  59.8078966  76.7796040
  22.4607825  99.0512753  56.8274117  22.1089506  98.2580757  57.2314882
  22.6922941  99.6140289  57.5662899  43.3321524  34.9052048  82.9044819
  44.1147184  34.8091412  83.4472466  42.8420305  34.0951681  83.0453777
  37.5479770  65.8087969  67.8066778  37.5473166  66.7505598  67.9778719
  36.6712379  65.5189228  68.0587339  17.8923059  29.6714878  76.9689751
  17.3426199  29.6558213  76.1854982  17.6176465  28.9033008  77.4696541
 102.8960588  63.6282969  37.8874540 102.3235037  63.4368706  38.6302662
 103.5990872  64.1617298  38.2581735 107.8418162  31.0117536  11.5526694
 107.2859695  31.3003736  10.8288211 107.3513081  30.2988249  11.9617862
 115.7905533  86.7065811  75.7090807 115.0703282  86.7606544  76.3372421
 116.2088034  87.5666142  75.7496309  34.1323829  55.7900095  74.3430138
  34.7455907  55.7065105  73.6127853  33.8532972  54.8927069  74.5252132
  40.8690214  41.6126871  65.2018166  40.2570295  41.6893530  64.4698143
  41.3876247  40.8339071  64.9998665  74.4456255  48.8115125   5.0780982
  74.3942189  47.9537111   4.6564788  74.5204260  48.6152845   6.0119742
  17.9016256  55.2498960  63.4263706  18.8549769  55.1651669  63.4131956
  17.5957382  54.6145916  62.7790260  30.5331302  58.6066961  76.3140345
  30.1495647  59.4591093  76.1078691  30.7944775  58.2500172  75.4650879
  92.8222669   0.5535556  58.1513453  91.8728603   0.6514025  58.2240772
  93.1661953   1.4335585  58.3047438  48.3749580  76.4431047  69.8067522
  48.8556147  76.5911341  70.6211758  48.4367609  75.4991913  69.6603441
 115.3415658  12.1255975  14.3870563 116.2803175  12.1014982  14.5725173
 115.2140357  12.9410940  13.9023704  64.7360563  76.6063643  62.8135920
  65.5321884  76.0780573  62.7561188  64.1440821  76.2183428  62.1692038
  49.5384312  72.0076704  62.8489113  49.4007921  72.9538870  62.8046894
  48.7648392  71.6740894  63.3033466  22.3075747  42.2957087  65.5530071
  22.3544693  42.9381847  64.8450136  22.9932356  41.6606903  65.3459883
 105.1187136   5.8991676  16.3308066 105.4308965   5.2578169  15.6924933
 104.7760799   6.6182047  15.7999438  27.3918629  80.0416470  91.6325474
  28.0077147  79.3209219  91.5001774  26.7019725  79.8888254  90.9868431
  29.7812462  81.3759804  58.2714224  30.2665591  80.6314468  58.6269283
  28.9940071  81.4294910  58.8132954  37.5911117  59.5849085  61.9206190
  37.5677347  58.6433077  62.0911312  36.8763661  59.9416351  62.4479866
 106.1482289  18.5694795   4.9437446 106.9241431  18.0886322   5.2318019
 105.9330251  19.1406923   5.6810683  10.6391418  31.6097474  51.8601608
  10.1543665  32.1794629  51.2629604  10.3490698  31.8752956  52.7328444
  47.1101570  96.5119267  71.8202448  46.1721373  96.4059067  71.6617823
  47.5239611  95.8618069  71.2524986  15.8651555  69.8576069  75.4748774
  16.7482400  69.6514225  75.7812738  15.4802823  69.0070534  75.2635288
 111.7604997  27.4263578  20.1540679 112.3717286  26.7038541  20.0104732
 110.9146573  27.0860391  19.8625869 107.4808594  80.6369972  77.2383976
 107.2714527  79.7800350  76.8669224 106.9638898  80.6821918  78.0427170
   6.4506018  64.9037313  91.4441681   7.2043735  65.1866722  91.9618607
   6.8167526  64.6866989  90.5868149  26.3234401  74.0847206  78.6272669
  25.7519889  73.4288025  79.0265751  27.1674681  73.6427498  78.5350180
  14.1407645  43.0647993  74.0066147  13.7905324  42.8912210  73.1328678
  14.0102148  42.2455215  74.4840860  17.5244451  74.1259432  95.1415253
  17.5835538  74.6739721  94.3589687  16.6856241  74.3629122  95.5370808
 107.6650294  40.4380369  83.8678837 108.0520465  40.7471085  83.0487823
 107.7328314  41.1855745  84.4618702  67.9944468  80.0705719  49.4785500
  68.8159513  80.5589581  49.5318174  68.0364704  79.6226120  48.6336803
 106.7736449  67.6396847  92.2338963 106.2230982  67.2589397  91.5496731
 107.3247333  66.9147778  92.5289249  33.9307642  36.1311722  72.9486465
  33.1011844  36.3711405  73.3614969  34.5984626  36.3944960  73.5819483
  41.6398478  79.5231485  55.7046986  41.7590857  78.6211491  55.4073524
  41.9009495  80.0587749  54.9555922  48.9386749  73.8851690  59.9538231
  48.3694553  74.4559193  59.4376183  49.7527027  73.8415909  59.4521379
  17.3347318   5.4777914   8.8004512  17.1935356   4.6057563   8.4318751
  16.7800749   5.5009180   9.5802230  17.2915006  21.7284465  61.0123014
  16.7393160  22.1524239  61.6692400  17.4193251  20.8398032  61.3442755
  31.7421603  59.1630745  61.8880415  32.0989180  60.0510788  61.8679714
  30.8009529  59.2801142  61.7589617  88.3583763   6.3800054   1.5078181
  87.6541986   6.0215049   2.0480460  89.0341368   5.7021146   1.5144271
  16.2386405  72.9562283  60.1892853  16.3791597  73.4273624  59.3679953
  15.3895175  73.2682323  60.5021381  39.1576958  70.7045412  74.7355795
  38.5384035  71.2754297  74.2808342  38.7386608  70.5175257  75.5756187
  25.4814816  57.4349976  77.5194931  26.3224864  57.1317625  77.1774530
  24.9523020  56.6407537  77.5927687 100.8815481  49.1090775  79.2992401
 101.0967567  49.9113464  79.7749281 101.5254988  48.4698296  79.6040726
  51.1620235  70.2967310  89.0645599  50.4067993  70.2064180  88.4834290
  51.0374546  69.6167517  89.7266388  30.9890032  78.8077116  73.9161921
  31.7850018  78.7798882  74.4470787  30.2751637  78.7624359  74.5522833
   5.7500505  63.3124733  59.0751696   5.5543101  63.4598875  58.1498671
   6.6964954  63.1716061  59.1002798  28.3315587  78.6276865  83.4841442
  27.6288652  79.2504120  83.2979584  28.9395118  79.1124535  84.0423870
  42.4357367  63.7656212  82.2787666  43.3850384  63.8627195  82.3537445
  42.2463751  63.9639807  81.3616848  29.8527145  72.5595760  62.7874279
  30.3931928  71.8333292  62.4765015  29.4834161  72.2468472  63.6132908
 106.3287594  53.8661623  73.0773306 106.4943858  52.9255581  73.0135298
 105.3745451  53.9414978  73.0828667  46.1427546  77.9204178  70.1390982
  46.9593000  77.4902821  69.8851871  46.4167070  78.7710571  70.4820061
  88.1147995  21.7923790   9.4396895  87.3546215  22.3463827   9.2623633
  87.7439728  20.9308296   9.6306151  18.6583245  51.6498852  51.0583258
  19.0093219  50.7685614  50.9306669  18.3925211  51.9309807  50.1827908
  39.1530776  43.1733274  87.5563240  39.2102265  43.5201073  88.4466648
  40.0358963  42.8563118  87.3656368  39.2829039   5.0590945  57.9070568
  39.6195101   4.1754294  57.7585077  38.4974376   5.1108885  57.3624563
  40.0339222  54.5157766  74.3003273  39.2646790  54.2030859  73.8241720
  39.7083712  54.7121668  75.1787758  91.7123928  21.2891393  22.9939097
  90.9704175  20.8785492  23.4378928  92.4509230  21.1552673  23.5879535
  36.0051346  47.6113129  54.1217995  35.6148672  47.2767687  53.3143330
  36.9143438  47.3137760  54.0895557  32.3884654  92.5692940  72.5358820
  33.2364750  92.1763325  72.3292637  32.1016407  92.9661942  71.7134237
  62.0521975  89.1300297  77.2421646  62.6898098  89.8009491  77.4861860
  61.2016106  89.5352268  77.4110985  34.9679685  22.5158381  87.5722980
  34.2525816  22.4568605  86.9390678  34.7571659  21.8569660  88.2338715
  95.6472553  96.8587832   5.2908915  95.5094112  96.4870362   6.1621207
  96.1479438  97.6592212   5.4485053  64.6081257  83.8683987  75.3523779
  65.3272200  83.6647224  75.9504128  64.7380447  84.7894478  75.1264906
   0.0569080   4.6737815  63.5554647   0.8121227   5.1586581  63.2226372
  -0.2219177   4.1296817  62.8189564  62.6303638  83.7549548  26.0137862
  62.3015798  84.2123775  26.7876739  63.3109320  83.1724219  26.3509959
  26.9138741  92.9320621  38.5243821  26.6334677  92.0500183  38.2802439
  27.6108551  92.7929401  39.1655493  84.6409143  92.3971777  12.3659438
  84.5625747  92.8981786  13.1777972  85.4473461  91.8926911  12.4726981
  14.9544609  68.8925600  41.7095327  15.2436852  68.3137083  41.0041857
  14.5707750  69.6452379  41.2595415  45.3866673  58.4281397  89.3587494
  45.0937843  58.8260317  90.1785851  44.6617556  57.8613091  89.0952301
  10.3992534 109.7370625  89.9587631  11.1463726 110.3320694  90.0221252
  10.7916212 108.8681126  89.8738956  61.7438353  77.3393421   0.0379771
  62.3695530  77.9714112  -0.3158551  61.0441292  77.8769617   0.4089278
  38.8745809  57.6131392  68.3621979  38.5353494  58.4898996  68.1820679
  38.6624098  57.1082687  67.5771379  59.8908901  78.1442022  44.9257183
  59.1539621  78.5419846  45.3893375  60.6295013  78.2344246  45.5278349
  70.0337601  66.6880989  46.6079235  69.0841484  66.7263985  46.7219353
  70.1941633  65.8267498  46.2224531  84.4782222 102.8083138   9.6270198
  84.1035951 103.0352120  10.4781360  83.7316717 102.5065188   9.1095084
  54.2820454  34.9306631  90.6395245  54.9975061  35.2029014  91.2141895
  54.5198011  34.0453529  90.3639698  12.8801501  51.9260550  71.7211151
  13.6287785  52.2394609  71.2136030  13.2610452  51.6137838  72.5418711
  45.2828503  80.7545471  62.5038815  45.4053068  81.6878891  62.6774120
  44.6598959  80.4665852  63.1711435  26.3870978  92.6586533  83.7827206
  25.6393719  92.2430134  83.3533192  26.0585999  93.5134983  84.0612221
  36.0287595  75.9362078  71.4464045  35.2384353  75.4030132  71.3608551
  36.6531014  75.5380821  70.8398390  23.3924031  57.2834921  53.4866571
  23.7219715  57.9893160  52.9303932  22.4419880  57.3970604  53.4798145
  50.9496117  77.8683424  82.1985817  51.6475105  78.3254576  82.6678562
  50.4736137  78.5621166  81.7421436  16.8910491  61.1945009  62.1425915
  17.5431049  61.2070417  62.8432322  16.2109637  61.8001127  62.4374628
  67.6503147 100.0618653   9.0349978  67.3846234  99.3142562   9.5704669
  68.3899988  99.7376542   8.5212058   9.7241759  85.4604912  56.2916374
  10.1094663  84.6969795  56.7215633   9.3114567  85.1084232  55.5030060
  19.3643677  81.8831158  55.5635118  18.5789883  81.3396740  55.6273699
  19.0788960  82.7510738  55.8488178  10.4943883  50.8484840  88.2885933
  11.0435426  50.6693459  89.0518570  10.4025424  51.8012094  88.2779121
  48.7687063  62.8559971  89.5927906  49.0934324  62.0148993  89.2713261
  49.5570278  63.3829403  89.7235680   4.3800697  50.4294062  62.5792980
   4.7757915  50.0873137  63.3809233   4.5858422  51.3641596  62.5906277
   7.3474473  99.4566822  50.8827066   8.2396948  99.4143391  50.5387115
   7.4583942  99.6551895  51.8125010  11.0140586  77.4651527  33.6574507
  11.9437432  77.6718283  33.5615325  10.5852568  78.3179331  33.7290072
  24.9606705  86.8671227  47.2599316  25.8732414  87.0474434  47.4856043
  24.5573568  87.7318764  47.1839666  16.1252725  96.3304615  60.7000828
  15.6906581  95.4862118  60.8208275  17.0529175  96.1454296  60.8466101
   5.0574178  66.8058920  43.2102442   4.9079296  67.6553392  43.6253548
   5.5184418  66.2928104  43.8738966  46.4734030  54.9055576  64.3955183
  47.0611191  54.8433208  63.6425591  47.0198822  54.6719503  65.1458597
  13.5473835  65.0174952  56.5496254  13.2352221  64.2071724  56.9523144
  12.7499413  65.5051041  56.3433361  37.6675034  41.6464615  68.5419416
  38.1496024  42.1732903  67.9045534  37.9681516  40.7507229  68.3886623
  34.5492458 100.1747799  45.1173019  33.8903761  99.5290089  45.3724432
  34.2752290 100.4657364  44.2475367  33.5971689  57.0709324  91.3479233
  33.9438915  56.4432764  91.9820023  34.1488218  56.9588375  90.5737495
 100.2256741  50.2162790  61.7132616  99.3291189  50.5462599  61.7726898
 100.6405880  50.7682180  61.0503578   3.2355151  51.6466475  50.5755520
   4.1365248  51.6366816  50.2525759   3.3225217  51.7224026  51.5257788
  30.4258895  66.6502237  77.7640343  30.5988050  65.8126116  78.1938505
  30.8952308  66.5937185  76.9317150  13.6121678  57.0583868  59.5616150
  14.4818950  56.7089796  59.7558308  13.7183416  57.5149012  58.7270164
  41.9620718   8.5566474  84.3674183  42.1898670   7.9813910  83.6370564
  42.4506248   8.2042170  85.1112843  38.0550098  81.9151688  73.9974880
  38.3575845  81.8648624  73.0907631  37.7400827  81.0329151  74.1941833
  24.0504527  46.6460228  62.7457952  23.8863659  47.5016546  63.1422806
  24.2448997  46.8402433  61.8288994  87.3712028  94.0302710  11.2772769
  87.4053491  94.3111925  12.1916884  87.1820987  93.0929832  11.3215751
  44.8458290  94.4290638  80.9715939  44.8004961  94.5070267  81.9245338
  44.6108532  95.2989674  80.6486607  26.1087537 101.0444641  65.5404520
  25.7020283 100.9554672  66.4023590  26.6915107 100.2882576  65.4713726
  73.8584407   5.3864389  19.9593753  73.1920969   4.7037798  19.8806685
  73.4377482   6.0732752  20.4765910  34.5530629  55.0181055  56.5034819
  33.8858175  55.2588511  55.8607864  34.9717307  54.2405224  56.1342669
  16.6589653  88.3666134  73.1381416  17.3740244  88.4946728  72.5148249
  16.7944419  87.4827766  73.4797859  45.2374554 104.8267460  60.5509186
  44.5947218 104.5037079  61.1824036  45.8438683 105.3515148  61.0735226
   5.2799124  57.5034380  85.4256630   6.0793030  57.6246166  84.9132919
   5.3726995  56.6325521  85.8119106  42.6483583  93.8442421  53.4120893
  41.7536354  93.6560917  53.6954546  42.7214527  93.4243488  52.5550175
   0.6189862  78.0104113  53.4381628   1.3308130  78.1552601  54.0615034
   1.0365881  77.5760126  52.6944304  28.1233954  40.2846622  80.5599976
  28.3924222  39.9117565  81.3995171  28.7751126  40.9619427  80.3789139
  44.5036745  59.8039961  82.1331215  45.4487467  59.6864700  82.0369244
  44.1888666  59.9530792  81.2415504  84.8026085 103.2154179  36.8513751
  85.6087875 102.8949451  36.4468837  85.0176620 104.1005707  37.1454811
  42.7813005  88.1670761  55.0738764  42.1674490  88.0202961  54.3542385
  42.6981354  89.0995884  55.2731943  10.2442706  88.0237961  71.3154650
  10.1772547  88.5659885  72.1014452  10.4593730  88.6411190  70.6162691
  66.1129189  69.5943499  90.7260418  66.3207102  69.1252661  89.9179554
  65.2891064  69.2074633  91.0225010  25.0593472  69.7017574  78.3963013
  25.2974868  68.9905834  78.9910793  24.7694635  70.4089737  78.9725304
  10.4162300  46.3442993  56.8351984  10.8626413  45.5646324  57.1654558
  10.1229024  46.8037033  57.6220512  86.8513836  98.7443213   2.4483794
  86.8704094  99.4945769   3.0424994  85.9200586  98.5726600   2.3090953
  22.5280571  65.7520199  66.5646648  23.3960700  65.9458971  66.9185019
  22.1246481  65.1815510  67.2189283  57.8812408  91.3597775  67.2803593
  57.4240112  91.4141083  66.4411783  58.1195784  92.2645760  67.4822712
  53.7279940  62.6811695  78.1278467  54.2181873  63.5030317  78.1500340
  54.3782520  62.0088863  78.3313990  19.2234671  69.1406775  90.2790070
  18.8062704  69.5450592  91.0396957  18.6373353  68.4235239  90.0374031
  97.3075833  44.9699312  22.4459285  98.2642152  44.9700170  22.4788875
  97.0439424  45.5736356  23.1403750  31.1935902  34.0440059  70.6212807
  31.1567259  34.0154195  71.5773439  30.2768230  34.0407419  70.3460360
  39.0108347  82.3302746  81.0876656  39.0841794  82.5211716  80.1525688
  38.0867577  82.4762535  81.2901592  50.5856514  80.6507397  64.6582365
  51.4095879  80.8146858  65.1170254  50.8280849  80.0846481  63.9254379
   1.6655767  15.2221399   1.3330764   1.6838014  15.9056049   2.0029849
   2.4464023  15.3846651   0.8038062  72.9137850  69.8049450  66.2248373
  73.7489557  69.5747662  66.6319418  73.0913353  69.7820997  65.2845240
  45.7254744  76.2900972  76.4172363  46.4936447  75.7256746  76.3301945
  45.0559092  75.8680296  75.8789349  24.3132973 108.9938450  61.7606735
  24.6933889 108.2087708  62.1549129  25.0152755 109.6436024  61.7962790
 111.4682510  31.5658861   7.3947638 112.3015120  31.4695745   6.9336432
 111.7075302  31.5795904   8.3214683   0.7684860  95.9721470  74.5733547
  -0.1406744  96.2568474  74.4806147   0.7237586  95.0162888  74.5494938
  31.7194963  61.7827988  78.1511641  31.3857031  61.5304184  77.2902822
  32.4543953  62.3660612  77.9615355  50.3894520  75.4944229  56.2625313
  49.7376585  76.0057592  56.7420435  51.0057402  76.1457491  55.9275770
  11.5143669  50.1648474  60.6728077  11.5397751  51.1179352  60.5878878
  11.1253512  50.0113916  61.5338230   1.5904272  69.4736200  30.6623763
   1.0962022  70.2671152  30.8681506   2.3984802  69.7922712  30.2602118
 109.8620512  41.3645464  12.8578967 109.2540481  42.0473962  13.1412524
 110.5776789  41.8407446  12.4367827  48.0700874 107.2807503  68.1817198
  47.9611397 107.8495216  68.9438629  49.0046835 107.0743752  68.1685257
  40.5757761  71.6051626  81.0663795  40.1459408  72.4299622  80.8401394
  41.3522720  71.5785170  80.5072880  52.8884602 102.1413517  70.3831959
  52.4442911 101.8054199  69.6046734  53.4508419 101.4209175  70.6676865
  75.3797483  81.9286442  92.4463272  75.4359913  82.3270512  91.5778065
  75.2526665  80.9956741  92.2741032  46.5505028  63.6603975  72.1360064
  46.5305138  63.0493164  72.8724909  46.7944574  63.1210279  71.3838100
 107.5411417  19.4917446  18.3487243 106.7059972  19.8251968  18.0207366
 108.0260279  19.2442136  17.5614280  80.0772381  99.5376587  69.6688652
  80.5504227 100.3269291  69.4054651  80.7579994  98.9460564  69.9894857
  33.9538312  59.1472578  64.9867344  34.5218301  58.3877945  65.1164436
  34.4474411  59.7176600  64.3974829  98.7173345  52.2824007  19.9880713
  98.3577826  51.4766889  20.3592700  99.5176389  52.4405008  20.4888171
  72.0724869  64.9544287  79.5057154  71.2638330  65.3865671  79.2308283
  72.1238089  65.1188803  80.4472828  36.5777779  56.7210722  57.5459814
  36.7936587  57.1625757  56.7245817  35.8603406  56.1296129  57.3186255
  36.9528413  96.9529247  60.5460215  37.5266957  96.5126133  61.1729574
  37.5475240  97.4541473  59.9880219  40.9284687  86.1886883  88.9859772
  40.9053040  86.4398575  89.9093437  41.4067936  86.8980408  88.5567379
  56.3559628  94.5343018  55.6705809  57.2290754  94.2308807  55.9192562
  55.7721043  94.1417217  56.3195944 105.4090121  37.1415239   8.7958163
 104.6792557  37.6220804   8.4049815 105.1236584  36.9592767   9.6911258
  25.1770115  26.2134695  75.9982729  25.1903343  26.9716311  75.4141092
  25.9826064  26.2907600  76.5094185  49.0565395  86.1214638  47.2192383
  48.3495426  85.9392452  47.8382492  49.5294666  86.8583679  47.6059437
  32.8644776  70.5531836  81.2276077  33.8015056  70.5968952  81.0370827
  32.4773264  70.1722383  80.4394245  33.2472205  85.8974457  62.7782154
  34.0064216  86.2798500  63.2182312  33.1148338  86.4484215  62.0067692
  85.7954992  33.8394881  36.4051771  86.7490257  33.8754130  36.3294911
  85.4807676  33.9134265  35.5042291  83.5381317  54.4151592  57.6747799
  82.6858425  54.8493481  57.7109051  83.6670017  54.2172813  56.7471647
  54.6796370  68.4482384  54.3809843  54.6513653  67.7360201  53.7420940
  54.1167688  68.1511450  55.0959301  74.5070267  64.8766756  78.0630827
  74.3868494  65.0785494  77.1351624  73.6232519  64.9011374  78.4299326
  49.1169071  94.8557568  65.9744549  48.5731411  95.3751659  65.3821993
  49.0762711  95.3231716  66.8087816  55.7217550  95.0028992  76.8533421
  55.1557970  94.7478867  77.5819635  55.9406137  95.9180450  77.0289850
   6.7227882  69.7675562  67.8341198   7.5676364  69.9993849  68.2197571
   6.3974935  69.0530777  68.3817863  49.3599081  56.3260555  92.5643253
  48.5822964  55.8256817  92.3169708  49.4737625  56.1459970  93.4975147
  32.7958488  75.1053619  61.4322948  33.1363964  75.0988293  60.5377483
  33.5244012  74.7919607  61.9682264  68.9675665  85.4757977  70.1852846
  68.8095093  85.7464504  69.2808533  68.1102419  85.1937962  70.5042028
  49.4458246  68.0099916  80.6538296  49.5581341  67.9727316  81.6036892
  48.8721561  67.2709942  80.4513073  56.6315460 103.4484005  68.8807869
  57.3073959 103.4965706  68.2046652  56.6350079 104.3159962  69.2851400
  18.7501001  89.4381905  75.2514553  18.8880098  89.2949295  76.1877728
  19.1753912  88.6915302  74.8297215  46.5617752  93.0312157  49.2742395
  46.6072273  93.7582588  49.8951864  45.6474209  92.7493954  49.3019295
  27.7209115  39.8258281  69.4735479  28.5588884  40.0053120  69.8999405
  27.0633197  40.0961018  70.1144552  43.9159250  51.3013792  68.8616228
  43.8057041  50.9844112  69.7580719  44.3740845  50.5917740  68.4113121
  65.6049776  93.2915020  76.2400150  64.6957827  93.0106926  76.1363745
  65.9904146  92.6426697  76.8288183  55.0516653  91.1537170  80.4788399
  54.9452925  90.6092167  79.6988201  55.6347752  90.6488323  81.0456753
  36.6866517  52.2311926  67.8286076  36.6656709  53.1864643  67.8856564
  36.7894864  52.0492411  66.8945026  76.8569136  60.9323502  61.3841248
  77.4846363  61.3507032  61.9733381  76.7713881  60.0399971  61.7197275
  44.4841051  88.1594276  58.4000158  45.1422358  88.4201431  57.7557135
  44.6346617  87.2232342  58.5308027  15.5415797  79.5868492  86.4085484
  14.7421920  79.8954582  86.8351269  15.2977014  78.7454510  86.0228062
  29.4684601  78.4669352  78.0785227  30.3359485  78.8239002  78.2689762
  28.9529276  78.6596823  78.8616610  23.1534314 107.9253960  91.3575459
  24.0494037 108.2620811  91.3474178  23.0793262 107.4668503  92.1945000
  38.9706206  73.3043146  60.7744598  38.4777260  73.1355762  61.5774632
  38.4545469  72.8872728  60.0845528  31.9996309  92.5401497  44.3653584
  32.2773671  93.2267761  44.9716997  32.1906948  91.7227554  44.8253536
  65.5524969  91.9182777  72.6286793  65.6599617  92.2105789  73.5338020
  64.8742390  91.2443542  72.6735592  24.4232917  36.6406775  75.2744293
  23.9114642  36.4930534  76.0697079  23.7747431  36.6500115  74.5704889
  51.1637211  67.7489042  68.2052374  50.4698610  67.3066998  68.6943626
  51.5101624  67.0758104  67.6194477  34.2330883  22.8628588  70.9861755
  33.7385322  23.0520678  70.1887751  33.5645653  22.7546836  71.6626406
  15.6379139  76.6215181  85.1453495  14.8236609  76.1294937  85.0398254
  16.2978983  75.9546232  85.3348351  56.1229897  76.3137817  60.3113699
  56.9180870  76.7803574  60.0537682  56.3527536  75.3878403  60.2334499
  39.8944092  77.3255777  66.1615133  39.3684530  78.1235695  66.1085129
  40.6921005  77.5943041  66.6172647  34.4862509  78.1490040  69.9077654
  34.3131042  77.7744102  70.7714415  33.7509847  78.7417555  69.7520018
   6.7010772  36.9986063  32.4757880   7.5882328  36.8931585  32.1321792
   6.7465961  36.6520506  33.3668822  23.3325934  50.8071518  57.5283337
  22.7759266  51.5195036  57.2138309  24.2105341  51.0370255  57.2240114
  86.1476721 100.5091863  10.4504889  85.7247032  99.6524243  10.3931636
  85.4365028 101.1365609  10.3205985  33.9967537  82.9071236  72.9666185
  33.7368822  83.7833595  72.6821566  33.5086465  82.3149776  72.3944712
  76.6169357  88.0596733  78.8032961  77.5453043  87.8676987  78.9356041
  76.5876341  89.0032959  78.6452961  53.9765358 100.1070213  93.9133930
  53.8510323  99.5850754  94.7058868  54.7458458  99.7228527  93.4929085
  39.8463082 106.2068558  66.1873722  39.6740842 107.0919991  66.5084410
  40.3968859 106.3351536  65.4149532  27.7593899  92.4145889  81.0402298
  27.8990459  93.3422375  81.2304688  28.1082010  92.2961044  80.1567554
  41.6631985 100.8314133  65.3118563  41.5919828 101.4761066  64.6079206
  42.5019741 101.0253239  65.7302809  53.6138773  81.5407085  75.3223515
  54.3194914  82.1815872  75.2350473  53.9307261  80.9240246  75.9823132
  58.3528746  23.4286452  61.6365719  57.9623426  22.5653983  61.7726421
  58.0458130  23.9500476  62.3782492  27.3913276  16.5169244   3.6537093
  27.3052395  15.9030681   2.9243201  28.0230224  17.1670776   3.3462924
  37.4392843  75.7431650  67.3124743  36.9253659  76.3459826  67.8498125
  38.3095431  76.1398172  67.2731495  42.9355049 101.7673206  79.4407272
  42.1695471 102.3309898  79.3320322  42.6035881 100.8814335  79.2948818
  26.9010615  33.3413982  56.6355610  26.1831045  33.7204647  57.1425915
  26.6241837  33.4317994  55.7237482  52.1408129  75.0500393  60.0415659
  52.5793648  75.6631708  59.4516754  51.8502808  74.3369102  59.4729948
  34.4416690  79.4925165  79.1232634  34.3566990  79.4188499  78.1726933
  33.7918925  78.8810778  79.4699144 107.6185842  65.3304482  51.7087984
 107.1917768  65.3509569  52.5653315 107.8292980  66.2457418  51.5242195
  89.7394349  13.6357742  32.8422374  88.7918188  13.6092954  32.9747313
  90.0621989  12.8377586  33.2608336  17.4906635 106.2994194  53.2491016
  17.4168193 105.5405331  52.6704168  17.2273421 107.0418262  52.7052975
  23.8365555  81.9250584  62.4495316  23.0156326  81.9025040  62.9412699
  24.5182467  81.8604851  63.1183815  57.9491997  85.4592419  78.5364294
  58.8525391  85.2869129  78.2708979  57.4909258  84.6342945  78.3761549
  10.9245146   3.7443834   9.7933501  11.7131937   3.5306173  10.2918643
  10.8940351   3.0858808   9.0993136  47.1808243  87.3212051  59.8642731
  47.9432249  87.0629406  60.3822231  46.5602255  87.6652622  60.5067015
 114.5344925  38.6733317  82.4390316 113.9451217  39.0227985  83.1074238
 114.9237630  39.4483709  82.0340538  71.8336535  73.7657785  55.6860161
  72.0346498  74.0362787  56.5819311  71.1659384  73.0870867  55.7848406
  80.5362435  50.3563219   0.9510535  79.7907772  50.7299143   0.4810065
  81.3002759  50.7920652   0.5733985  37.6704097  44.6018267  85.8374023
  37.7331853  45.4865932  86.1972332  38.1436062  44.0543222  86.4639473
  12.0763743  34.2136002  80.8430195  11.8819737  35.1462650  80.9356213
  11.2210751  33.8016772  80.7204914  75.5661058  90.3721237  84.7089863
  75.3923559  90.9577465  83.9720345  76.3989401  89.9536037  84.4911385
  33.3890176  59.8123121  79.4425344  33.0899382  60.3682327  78.7229919
  32.6920915  59.8708534  80.0960636  46.7024803 107.6266670  58.6011076
  46.0745764 107.8531837  59.2871523  47.0694590 108.4666538  58.3254671
  53.9811802  72.1060181  69.8244333  53.6863565  72.9692793  70.1144171
  54.7881126  71.9510889  70.3154421  53.5012377   8.6032248  70.1036549
  54.0614833   9.3439723  70.3352833  53.2576443   8.2151652  70.9440756
  49.8334837  92.3355198  75.1980877  49.1324854  91.7731380  75.5275679
  49.5050859  93.2258701  75.3232765  32.2526312  77.7310085  94.6614838
  32.8112984  78.4883976  94.8360825  31.4242077  77.9398680  95.0931358
  74.6655000   6.2350417  50.7432938  73.7206877   6.3868666  50.7658958
  74.9118937   6.3939906  49.8321104  96.3096299  14.0708357   9.3001574
  95.5678346  14.5114761   9.7146529  96.8887999  14.7823578   9.0271491
   0.2165913  21.0069609  78.2630301  -0.2261043  20.9469271  79.1095829
   0.1235699  21.9250441  78.0086803  63.4862031  19.0156222  72.5139141
  63.6929907  19.7718669  73.0630541  62.8088678  19.3318129  71.9160271
 112.9006433 100.8302021  44.5589447 112.4263813 101.6610336  44.5269442
 112.2335138 100.1666737  44.3831491  22.0937204 102.2218895  63.5747957
  22.2934532 102.7112198  64.3728590  21.2689781 101.7758751  63.7674093
  42.3489666  76.5858459  59.4921780  42.9308987  76.2971973  60.1952219
  41.5216923  76.7826271  59.9316359  70.0780392  71.1473560  58.9900589
  69.1242361  71.1946344  59.0553045  70.3911209  71.4274263  59.8501635
  55.1914120  88.8335419  83.6492538  55.9097672  89.1666222  83.1114197
  54.5096254  89.5016861  83.5786724   7.5781620  68.4829044  78.9807272
   7.7444780  67.8260469  79.6568251   8.4403080  68.6658192  78.6072588
 109.7118213  13.8723045   8.7563628 109.7679140  13.3012491   9.5225162
 109.7692993  14.7585302   9.1134757  51.9929743  71.4789534  63.9407778
  51.1736679  71.5533400  63.4514570  52.5868034  71.0215616  63.3454752
  50.2079058 103.6564350  50.8365774  49.5614529 103.8979530  51.4999008
  50.8350611 103.1040668  51.3032675   6.6684628  54.6752548  59.4390965
   7.1970856  54.1428471  58.8446808   7.2392511  54.8329735  60.1911354
  57.9434633  72.7493382  62.3905849  57.6405430  72.6878691  61.4846611
  58.1888008  71.8536234  62.6223946  38.9560533  83.1482697  58.6007738
  39.2967439  82.6194191  59.3222141  39.6310806  83.0938244  57.9243088
  59.8981333  86.6412735  66.3052797  59.3847036  87.4433041  66.4020348
  59.7123671  86.3439560  65.4145908 112.0903566   3.0464035  15.8668632
 111.8578293   3.0965191  14.9396914 113.0257108   2.8430801  15.8685607
  59.1797222   7.9995681  56.4373493  59.4902624   7.8350211  55.5469990
  59.8472322   7.6072741  57.0001650   5.3912115  85.7251167  72.7150679
   5.4979229  85.2436066  71.8947124   4.4600272  85.6436729  72.9212093
   0.9087861  36.8831545   4.4071883   1.6263998  36.3094526   4.6757716
   0.2160251  36.2850195   4.1269225  36.7501974  72.9348803  62.8088284
  36.1022687  72.2355413  62.8945351  37.2603607  72.8891468  63.6174488
  43.9354324  55.6187725  82.5723457  44.7790146  55.2555323  82.3027897
  43.3651018  55.4874802  81.8149090  26.7282867  45.9680367  86.4643669
  26.9235635  46.6531277  85.8250332  26.9209456  46.3692951  87.3117828
  39.5545852  27.5532156   1.3821334  39.4463384  28.0678373   2.1819228
  38.6754978  27.5070005   1.0062331  39.1357279  98.2402897  64.2593431
  38.2192349  98.5156155  64.2810297  39.1932750  97.6588726  63.5011387
  25.6240296  76.5910339  72.0656538  26.3239217  76.7501783  72.6989412
  24.8592401  76.3810968  72.6016140  93.2611084  84.2085171  75.5786657
  94.0663433  83.7205887  75.4061985  93.5172367  85.1277256  75.5032349
  23.3497548  93.6789322  75.6075954  23.4458661  93.8405132  74.6690369
  23.1606770  92.7427673  75.6713343  66.9811786   1.0321189  64.1971016
  66.7760647   0.6846762  65.0651121  67.7353514   0.5195475  63.9060259
  43.5743904  96.7929554  63.5868454  43.4083033  96.1216068  62.9250813
  42.9148865  96.6323376  64.2617464  97.6564659   5.1891185  91.9429588
  98.5540689   4.9589492  92.1828842  97.1577228   5.0848723  92.7532864
  19.9129689  70.9509945  85.3733063  19.5417035  71.1801863  84.5213318
  19.8889863  71.7673826  85.8724689  55.7000589  69.4993353  87.0284653
  56.1586475  70.2583122  87.3888588  56.1903763  69.2767906  86.2370872
  66.2830400 108.0703259  79.3050623  66.9632912 107.7962494  78.6899376
  65.4900265 108.1333447  78.7727165  17.0020926  97.4093437  90.0787163
  16.5456247  97.1608067  89.2749214  17.0268166  96.6058445  90.5983448
  32.8583074  83.1888962  62.4133158  32.6108241  84.1094017  62.3257971
  32.8270745  82.8465080  61.5199947  12.5640810   9.4742351  23.5603827
  11.7289865   9.1064745  23.2712382  12.9454744   8.7946087  24.1161555
  19.8873973  93.9406586  91.0457706  20.5289221  94.3867302  90.4928780
  19.9687827  93.0166721  90.8093929  27.5949466  10.1028734  27.1828956
  27.1731651  10.1012521  28.0421561  27.6262272  11.0263973  26.9331855
  36.1349714  46.6511064  34.3785304  37.0420110  46.3544946  34.3041724
  36.0772932  47.0274835  35.2567405  56.9908857  88.3692455  47.3932981
  57.5155306  87.9881573  46.6892004  57.1370983  89.3121719  47.3175049
  28.3856964 100.5514717  27.5216842  28.1733179 100.7676411  28.4296465
  28.3023691 101.3813972  27.0520997  35.3195882  62.6322174  67.2197866
  35.1572371  63.5111952  67.5622368  34.4520473  62.2309351  67.1690083
  39.6652651 100.2349758  70.7428789  40.4877329 100.7023621  70.5968571
  39.4094110  99.9234486  69.8747063  50.8478975  57.9277515  56.0976458
  50.3159666  57.4504948  55.4608488  51.7438841  57.6375198  55.9267426
  62.3351479  77.3341513  55.0719786  61.6180515  77.9384947  54.8802090
  61.9416237  76.4646530  54.9988794  37.7767968  76.3932991  73.8030481
  37.2243786  76.5640354  73.0402136  37.1638465  76.1242342  74.4872427
  52.6437044  70.1904058  58.5400915  52.2000122  70.6316233  59.2644453
  52.5969839  70.8138132  57.8152370  92.1523536   5.5237246  62.2251892
  92.1109499   5.2943373  63.1535769  92.9073394   6.1080886  62.1563053
  46.1839104  64.4967031  62.5047827  45.3364229  64.2033672  62.8393793
  46.5622377  63.7184715  62.0955753  70.2298069  88.3078480  47.8977489
  70.4999113  89.0351105  48.4584284  69.8067856  88.7273216  47.1485329
  51.4374065 106.0295296  50.0687647  51.1733675 105.3496552  50.6886673
  51.2356281 106.8519688  50.5149937  57.2577047  73.6540031  68.4723139
  58.2125473  73.6060715  68.4252357  56.9549465  73.1430721  67.7216339
  51.1828375  64.3289375  60.6723309  51.4436913  64.2177725  59.7580957
  51.2183046  63.4461164  61.0405684  76.0649586  88.6504745  81.6733170
  75.7206249  89.5181084  81.4614677  76.1134481  88.1996441  80.8303356
 100.3041840  90.9251213  44.1172409 100.9068966  90.4057217  44.6493959
  99.4582462  90.8342361  44.5558214  75.4374361 106.8182373  61.6081858
  74.9669695 107.6443195  61.7199278  75.0466394 106.4235973  60.8285904
  67.0681810  78.3411455  79.4292116  66.6566086  78.2794619  80.2912045
  66.3757658  78.0967569  78.8151550  58.9909220  81.5743828  74.5854282
  58.5193110  80.8344746  74.2028761  58.8490486  82.2931576  73.9694118
  32.6294303 103.6509037  67.7021646  33.3195019 103.6001301  68.3635712
  32.8209782 104.4536877  67.2173119  31.8059564  45.2355671  93.9180279
  32.2291732  45.1356602  93.0653095  32.5175333  45.1406097  94.5511723
  41.5413189  86.7474556  51.4631224  42.2206497  86.0757160  51.4038277
  41.1240530  86.5919685  52.3104429  21.1842489  68.5373354  94.6538162
  20.3869915  68.1276941  94.3179512  21.1926866  68.3168936  95.5852509
  41.5670919  69.8759937  59.0044212  41.0558319  69.2027330  59.4533873
  41.3677788  70.6836367  59.4779396  25.6966329  84.8061466  64.3440771
  25.8419657  85.4307556  63.6334610  26.3243318  84.1030502  64.1770840
  35.2614617  54.8366022  72.0712519  34.7015452  54.1073084  71.8050575
  35.2119541  55.4550314  71.3423300  79.1406918  74.9651289  37.4825859
  79.6075630  74.1340303  37.5693631  78.6940527  74.9019337  36.6383386
  47.7125359  95.2920437  84.2654419  48.1140375  94.9477386  85.0632381
  47.2830725  96.1010838  84.5433712  79.1432823  10.6233836  91.6413593
  79.9440969  11.0308505  91.9713593  78.5989464  10.5006648  92.4190998
  20.1729965  71.0380745  70.9318638  20.2241755  71.5650129  70.1344013
  19.5793509  71.5253019  71.5032005  40.8574629  68.7417793  90.6817245
  40.0473642  68.6523056  90.1797581  41.3416195  67.9361391  90.5006981
  69.4801521  77.4113417  63.6466455  69.9485970  78.2357359  63.5156488
  69.3356085  77.3655605  64.5917606  43.4996748  72.2005892  85.5760860
  43.4560442  71.7078733  86.3955688  43.2581186  73.0939531  85.8205986
  88.4493732  59.0048599  52.3958397  88.5037041  59.2705584  51.4778614
  88.4237480  59.8287010  52.8825235  87.3709657  38.3137041   7.7653712
  87.8318288  39.0719419   7.4063224  88.0659690  37.6942640   7.9878348
  45.0175285  84.1328335  74.9631977  45.4562902  84.2687607  75.8029842
  44.0928125  84.2987919  75.1464701  50.1775551  61.7605400  55.3896284
  51.0374451  62.1738052  55.4672527  49.7243118  62.2744036  54.7212362
  39.4299626  64.1983652  69.2449379  38.7579608  64.7551441  68.8516903
  39.0474749  63.3209276  69.2392254 113.0240406   2.9078246  52.4974155
 112.6484598   3.7412310  52.2135115 112.7393306   2.8141070  53.4064722
  28.7477970  99.7341537  55.7934999  29.6948838  99.8408031  55.8822823
  28.5588336 100.0093651  54.8964024  52.4840736  80.1812077  55.4070187
  52.0048714  79.4629240  55.8201504  52.0042992  80.9684849  55.6643724
  23.4957123 102.2494411  67.7275229  23.2544613 102.8385258  67.0126772
  22.9888248 101.4541245  67.5639057  77.9619898 107.8127532   4.6482581
  78.1958760 107.2802405   5.4084891  78.7333549 107.7747540   4.0827579
  48.5794640  64.4450521  58.6472607  48.5492086  63.5663557  59.0256834
  49.4892597  64.7217274  58.7566090  48.3359528  74.4073868  54.4606256
  47.5827599  74.9911118  54.3700933  49.0195799  74.9563122  54.8447704
  46.7995882  83.1455517  54.2742109  46.9429636  82.4994373  53.5826826
  46.8383694  82.6400280  55.0861073  50.9952402  73.4730291  58.1796885
  50.6578493  74.2197561  57.6849127  51.6908407  73.1149006  57.6282215
  31.4415145  14.9521494  79.7954082  31.4407945  15.3992569  78.9490461
  31.1216092  14.0711510  79.6011543  87.9313196 108.6291413  11.1697978
  87.3395933 109.1501956  10.6270331  88.6144890 108.3365874  10.5665416
  78.6639977  74.3893433  62.9364204  79.4320107  73.9658356  63.3198643
  79.0156841  75.1507044  62.4750328  91.1863865  34.1710997  73.3505106
  91.8490089  34.2114974  72.6609230  91.0175337  33.2360125  73.4659433
  64.2517614 109.1867447  38.8951039  63.3977795 109.6181774  38.8665700
  64.7486019 109.6818733  39.5464230  52.5379419  75.6626844  92.5331879
  52.1257639  75.0193787  93.1098175  52.2009325  75.4540157  91.6619110
  51.5904665  82.3542595  69.0614271  51.8489456  81.4340401  69.0103960
  52.2943449  82.8258133  68.6159658  84.8375190  19.4531203  84.9136639
  85.7489170  19.2365218  85.1103210  84.4379247  19.6073771  85.7696724
  38.5354996  89.3160725  54.4744539  37.8469491  89.8370361  54.8876476
  39.1556144  89.9627686  54.1376019 101.8507290 109.2467499  48.6871243
 102.1112347 108.9034653  49.5418310 100.9109783 109.4085598  48.7703085
  46.2164640  72.0915699  66.0649824  46.3500738  71.8291712  65.1541948
  47.0857334  72.0322514  66.4613104  11.6470361  53.7780714  92.0704746
  11.7648256  54.4133854  92.7766895  10.9234500  54.1286755  91.5511227
  42.0368767  78.1392622  89.7094440  42.8946733  77.9194212  90.0728893
  41.7259312  78.8645267  90.2512360  10.8322811  98.4967041  44.9542189
  11.6663623  98.9306450  44.7746706  10.1796556  99.0400505  44.5125294
  69.5954323  97.5692558  51.9810581  70.1688671  97.4531269  52.7386379
  70.0837231  98.1504154  51.3979197  22.9169439   5.2309085  17.5765908
  23.2357763   4.8791075  16.7454410  22.4714254   4.4934798  17.9936528
  82.3289108  74.5142460  58.6806250  82.0230389  74.2074251  59.5341682
  81.8733215  75.3454924  58.5475731  48.3126020 103.4840298  42.6736784
  49.2321777 103.2261848  42.7378559  48.2484436 103.9347839  41.8316984
  72.3345089  67.8904819  94.4303894  72.9123449  68.5819960  94.1076756
  71.9904613  67.4769449  93.6386490  81.8115616 105.1498985  76.9110918
  82.4299145 105.5061245  76.2731409  80.9496117 105.3335953  76.5375662
 105.4148605  96.2252331  57.9246616 105.9254183  96.2678623  57.1161175
 106.0591414  96.3494205  58.6215878  97.1121038  22.3062945  60.7759190
  96.5446104  21.6590167  60.3573370  96.9939340  22.1574164  61.7140579
  78.7927235   0.5365802  60.7358551  77.9161609   0.5624343  60.3521872
  78.8802541  -0.3548669  61.0733414  49.8122883  90.5261230  64.6770716
  49.9609709  91.2431717  65.2934933  49.3654871  90.9358501  63.9363146
  48.4524965  91.7029381  51.2511539  47.6423597  91.9119358  50.7861423
  48.3306694  92.0761299  52.1241474  81.5455151  97.2633362  48.4600878
  82.1397018  96.5304089  48.6212969  81.6459274  97.4523354  47.5271225
  81.3004684  42.0127678  49.0090466  80.4846191  41.8767118  49.4908237
  81.1455441  42.8049278  48.4945393 114.8990059 102.6346779  44.8398876
 114.5720005 102.9210854  45.6926918 114.3612289 101.8738556  44.6203661
  26.2749743  99.6331501  74.9229193  26.6939640  99.8511028  74.0903473
  25.4465604  99.2232227  74.6740770  77.6367760  76.5789604  69.1656399
  77.3712349  75.7788754  69.6190596  78.3143139  76.9579601  69.7255802
 100.0889982   5.5940676  77.6210928 100.5874170   6.0457373  78.3021259
 100.5164684   5.8480502  76.8031693  96.4587129  22.4723006  40.4454660
  96.7631544  23.3308554  40.7394743  96.1384786  22.0465041  41.2406921
  55.1460695  97.9549694  47.7217674  55.2169132  97.2377396  48.3516884
  54.2043638  98.0965042  47.6248741 107.1088089   3.6790896  69.6654081
 106.2480606   3.6777545  69.2466736 106.9390548   3.3924533  70.5627680
  71.3743639  92.2536182  75.7629251  70.4293823  92.3806286  75.6785870
  71.7478704  92.7390862  75.0273657  46.3550282  90.3767967  73.2552671
  46.6321993  91.2682915  73.0439949  46.4833021  89.8872089  72.4428129
  62.9254103 106.0837364  62.7983761  62.9028702 105.7486916  61.9020081
  63.4667110 105.4548645  63.2755947  96.8974508  28.9390803  81.3504601
  96.3500894  29.6782637  81.0854435  96.4971126  28.6228610  82.1603775
  50.1935005  70.6021070  65.8040905  49.6178865  71.3668633  65.7973146
  50.9435463  70.8621311  65.2692509  55.7398415  98.0879879  82.6510906
  56.6805744  97.9321098  82.7344704  55.6748438  98.9676857  82.2794056
  90.2150692   8.8351870  66.3065624  90.8000625   9.5549060  66.0698986
  89.7459902   9.1517688  67.0785570   9.6629881   0.2594043  61.4643192
  10.1434111   1.0859442  61.5119314   8.8179659   0.4497290  61.8716860
  77.1928024 107.8508091  32.9564691  77.0548677 108.6259079  32.4120212
  78.1127310 107.9011345  33.2161379  50.6458366  83.4077173   4.6496219
  51.2357033  84.0266138   4.2192000  51.2137783  82.6888185   4.9268741
  72.7689648  86.8760014  58.6015129  72.4464560  86.5204811  59.4296646
  73.6788988  87.1129131  58.7807369  96.0481930  87.9534817  54.3159151
  96.1939335  87.0759678  53.9624262  96.6552448  88.0185890  55.0531340
  73.7072229 102.1215153  18.2676542  73.6564875 101.2656021  18.6931896
  73.0052471 102.1075249  17.6170647  23.7355137  96.8489742  67.6488256
  22.7950788  96.7484093  67.7961493  24.1385698  96.1934757  68.2181215
  48.3686304  82.9937649  65.9787607  49.2856026  82.7976608  66.1709738
  47.9729462  83.1526089  66.8357515  30.7264566  91.6641331  37.8645873
  30.0136900  91.9450283  38.4384298  31.5024447  91.6722298  38.4249544
  48.1871510  91.9787025  57.6407099  48.8100243  91.8290806  56.9294596
  48.5169220  91.4454937  58.3640099  27.6487827  91.8937588  45.2775526
  28.2947326  91.8986320  44.5711851  27.6940966  91.0079479  45.6374407
  68.1626320  96.1217117  61.5314913  68.2691097  97.0707130  61.5970659
  67.8661871  95.9754658  60.6331778  64.6252550  11.1023856  54.4020462
  64.1693414  11.7846728  54.8948574  64.0779389  10.9582186  53.6301041
  57.6218414  90.9593296  49.7251463  56.8507862  91.4140320  49.3861055
  58.1924820  90.8550644  48.9637423 100.9229196  24.0547419  73.3852816
 100.7242264  24.9556494  73.1301069 100.3956093  23.5167075  72.7947760
  58.9465427  98.9263821  67.5904512  59.2765141  99.2798710  68.4165287
  58.3719540  99.6116734  67.2491980  34.1995561  35.2044397   7.1228999
  33.7257946  34.5887857   6.5636653  34.8972261  34.6813493   7.5176829
  60.8854389  89.1613579  53.7685919  60.5348396  88.2806969  53.6353731
  61.7634630  89.0186691  54.1220713  45.0182819  83.5904312  78.2856941
  45.9582710  83.4097672  78.2895803  44.6081686  82.7265167  78.3268023
  65.1702881  62.3310328  54.3195868  65.0416374  63.2585526  54.5180559
  64.5084953  62.1339035  53.6567116  38.0326414  79.7673178  62.2591639
  37.4411678  80.4723072  62.5225592  37.4847436  78.9824343  62.2591972
  33.7256122  96.3587284  57.9220772  34.0390587  96.6046333  57.0517254
  32.7715874  96.3901997  57.8507996  99.5231451  20.8824111  78.9611387
  99.6137155  21.8334819  79.0202236 100.1756204  20.6195498  78.3119726
  63.7116374  16.1625338  63.5013771  64.6601189  16.2890483  63.4767675
  63.3826865  16.9128562  63.9963961  77.4704695 107.9256439  55.1456451
  77.3884010 107.0650768  54.7346497  76.6411781 108.3631325  54.9530172
  68.4766626 103.1290245  76.3890743  68.3460999 102.1851158  76.4797878
  67.9762506 103.5104465  77.1104193  65.7225466  93.9009666  66.2038183
  66.2268448  93.0878735  66.1755848  66.3321447  94.5716953  65.8960104
  97.7216257  15.2517844  57.6296616  98.5345615  15.7137252  57.4247742
  97.2018493  15.3147937  56.8283510  25.4849327  39.8835378   0.2247066
  26.0488069  39.4594389   0.8715552  24.8173607  39.2280393   0.0224513
  30.3726411  87.2065830  58.0722523  29.7041512  87.3239040  57.3972797
  30.7965255  88.0620670  58.1408024  36.0484255  71.7255312   0.6574935
  36.4216984  70.9012895   0.9697741  36.6822660  72.0479875   0.0167865
  59.4789791 101.0903645  76.0518360  59.8297501 101.8184090  76.5648127
  59.5072126 100.3419113  76.6478682  55.7770443  79.7804642  58.6474657
  55.0768614  80.3840446  58.3991385  55.8319330  79.1639185  57.9173326
  35.2113032  94.8919201  59.9201918  35.8963561  95.5486870  60.0450611
  34.6866202  95.2282524  59.1936779  17.7194810  83.5987473  81.0953522
  16.8287468  83.9392185  81.0122490  17.7731431  83.2862186  81.9985008
  59.7636604  95.9088326  54.7603846  60.7197046  95.9380436  54.7972250
  59.5628738  95.8050919  53.8302469  87.9504871 104.5516014  78.0793762
  87.0285988 104.7977352  78.0034685  87.9749393 103.6311245  77.8179121
  75.0132036  78.8915682  50.8392954  75.8895254  78.5295773  50.9706354
  74.4657516  78.1301022  50.6477261  51.4680958  79.9459648  85.2204418
  51.1235905  80.8262444  85.3709602  50.8887482  79.3729210  85.7226467
  84.0799965   1.8844844  57.5344372  84.2895569   2.7949763  57.3263216
  83.8005174   1.5064288  56.7006540  39.7676921 105.3508949  38.1369662
  40.4177570 104.6720314  37.9559135  38.9277315 104.9374771  37.9375267
  45.9899235  88.4077549  80.5778122  45.7988882  87.8086567  79.8561335
  46.8249226  88.0997467  80.9301472  66.9547749  93.8394928  35.2243805
  66.4089203  94.5278168  35.6044841  66.5807056  93.6892033  34.3562102
  54.2106009  89.6583366  66.8604422  53.9345407  90.5719757  66.7877579
  54.9398041  89.6770477  67.4802399  53.5116482  99.8636818  73.6055279
  54.1419744 100.5744934  73.7224436  53.2558155  99.6216202  74.4955778
  50.2671051  91.8696690  85.8483124  49.5609474  91.8255615  85.2036190
  50.8314705  91.1260891  85.6366253  46.3580942 109.1723824  50.1286268
  46.3977766 108.2288361  49.9724960  45.5260277 109.4444275  49.7414780
   9.9112547  50.4981237  16.8757552  10.0285232  51.1408239  16.1761779
   9.2687452  49.8798280  16.5277404  54.8082066  99.7855473  70.7740831
  55.6435013  99.7789001  71.2414885  54.2174673  99.2796993  71.3321018
  45.8239079 100.9445000  65.0624323  45.5252218 100.0566006  64.8658133
  45.0489521 101.3866234  65.4091311  46.1935282  66.3982201  84.7549629
  46.9512177  66.7181444  84.2652798  45.4500914  66.5486193  84.1710854
  62.5838327  91.5787506  47.8643894  62.0405865  92.0608902  48.4878159
  62.6521349  90.6993866  48.2362366  40.6451941  73.0644321  83.5472488
  40.4230976  72.4626541  82.8367805  40.6965017  72.5085163  84.3247795
  26.2718463  91.4714050  75.9508276  26.0071516  90.7422638  76.5116453
  27.1901774  91.6238499  76.1736727  24.8701132  32.5855833   3.1166095
  24.9791992  32.0463758   2.3332995  25.6646621  32.4298196   3.6271590
 106.8262317  64.1740041   1.4438170 106.3984086  63.8533121   2.2377604
 106.6844036  63.4811502   0.7987708  33.7724781  94.2477798  55.2015400
  33.4991217  95.1610279  55.2881098  32.9702902  93.7436962  55.3379965
  35.0061679  92.0020294  71.4604282  34.5033813  91.4839554  70.8319092
  35.6500387  92.4674225  70.9265089  91.1641277  15.1274539  26.6622353
  91.1212791  14.3602038  27.2329593  90.9549106  15.8646346  27.2358441
  37.9483294  94.4844437  82.2767735  37.5593519  94.0458679  81.5200806
  38.6338258  93.8861847  82.5741196  76.5399588  10.1305152  80.8188057
  75.8265818   9.6663142  81.2568092  76.1777366  10.3784419  79.9681807
   4.0923107  41.5536218   8.6168689   4.5112646  40.8721452   8.0912227
   3.8127601  42.2102266   7.9789371  91.1390318  28.6339713  37.4451089
  90.2311338  28.5237551  37.7275944  91.4236749  27.7523566  37.2043681
  46.8417978  80.1783466  81.7673492  47.2401571  79.8273945  80.9708691
  46.0695457  79.6310949  81.9100857 113.1285213 104.2772102  65.3749943
 112.9577829 103.5011673  64.8412895 114.0821188 104.3105984  65.4509497
  24.0856194 100.7966042   7.5371963  23.8189220 101.2980175   6.7666852
  23.4707975 100.0637245   7.5706220  78.2584143  91.7862415  80.7336712
  78.0103779  92.6322174  80.3608036  77.9721546  91.8333530  81.6458511
 113.6680927 100.2487087  85.2234554 113.2212158 100.5128288  84.4192314
 113.7284826 101.0529041  85.7390690  44.9569702  74.3743658  91.4928532
  45.3719997  74.7303438  92.2785091  44.0847874  74.1071224  91.7828655
  52.3838902  83.1288052  64.0404558  52.4907637  84.0521049  63.8117123
  51.6233873  82.8431129  63.5342407  90.1403869   2.0496989  48.0847073
  90.1585735   1.8395377  47.1510410  89.9764265   1.2109709  48.5158539
  60.0972843 106.1751080  76.9146633  59.4066143 105.5311584  76.7580318
  59.6638536 106.8784142  77.3981190  34.9473143  70.5440426  63.3842802
  34.3527913  71.0871983  63.9017296  34.6018553  69.6561146  63.4763384
  51.6530561 103.3566284  62.3872709  51.9604969 104.2045212  62.7078915
  51.2144661 102.9605484  63.1402540  39.9685621  96.7770290  71.3204241
  39.7994733  96.6631889  70.3851795  40.8809853  97.0627785  71.3658094
  88.7988151   3.0498172  83.0479431  89.0467991   2.1446562  82.8597450
  87.8898586   2.9928160  83.3425331  57.4660349  98.1508636  57.2958040
  57.0113134  98.8246727  57.8012180  56.7819738  97.7527905  56.7574501
  21.7130160  93.7711239  88.3244038  21.7583227  94.1831303  87.4616051
  21.8509674  94.4903278  88.9408016 110.9993293  44.3061929   8.7784404
 111.7169454  44.9319368   8.8769645 110.5717852  44.5589739   7.9601878
  10.6318844  20.5950266  13.4611815   9.7533596  20.7709366  13.7980479
  10.5024851  20.4360586  12.5261802  12.9886889  18.3015109  80.6651592
  13.4547018  17.6900435  81.2353992  12.1494459  17.8750945  80.4917240
  47.2488451  89.9746037  67.6544333  46.5613842  90.6087208  67.8581858
  48.0645943  90.4653072  67.7543783   7.2063421   6.0509730  93.3856583
   7.6346659   6.3304091  94.1947746   7.8989576   6.0800601  92.7256107
  20.6231392  30.1663309  33.8084907  20.8623064  30.9524732  34.2994136
  19.6710623  30.2172857  33.7237281  75.7043017   6.9507552  69.8941422
  75.5031146   6.0513926  69.6355104  75.2094973   7.0838595  70.7026482
  39.6489167  76.4378309  55.2242899  38.7934351  76.2826586  54.8239136
  39.4892836  76.3670397  56.1654234  36.7982340  75.0424004  57.3521614
  36.6796589  75.4380274  56.4886522  37.6264381  75.4028082  57.6690531
  61.2219524 100.3248596  60.7084370  61.7528105  99.9274158  60.0181723
  61.5827942  99.9714756  61.5215492  48.8872957 102.1189022  76.1856270
  48.1178617 102.1935940  75.6211615  49.2875481 102.9880524  76.1612129
  43.0959690  77.6794344  14.7630233  42.8390205  76.7601877  14.6909732
  42.7600754  78.0853658  13.9638823   4.6283806  40.0522810   6.3292426
   4.5499885  40.3189092   5.4132670   5.5005873  40.3473669   6.5907878
  27.3220181  81.1105347  76.7153788  26.9755125  80.7509613  77.5320005
  26.5910435  81.6021824  76.3409519  66.7708921  94.7023869  52.6163483
  66.2295961  94.3068027  51.9331598  67.6465511  94.7469330  52.2323370
  80.2717590  96.4520931  84.3970108  81.1400795  96.4028645  84.7968006
  80.2122784  95.6648254  83.8558006  37.1381164 101.2824821  41.4316654
  36.9028807 100.9612083  40.5612183  36.5426302 102.0160007  41.5852404
  14.4666028 101.3531971  65.7693148  14.8484778 100.7351971  65.1460314
  15.2014410 101.6223431  66.3205004  37.0486379  99.5102692  37.3082399
  36.1682200  99.8520565  37.4640679  37.5541902 100.2715778  37.0235276
  78.1178774   6.4553786  76.9720125  78.6697162   5.6817580  76.8570614
  77.2241200   6.1128188  76.9812107  36.6447496  93.7842178  54.5691681
  36.9745564  94.5328903  54.0722275  35.8262777  94.0952587  54.9559307
   2.9981398  29.3723441  56.5949488   2.1514963  29.7959376  56.4535379
   2.9200052  28.5272074  56.1523724  19.7409582  41.8140030  74.9353838
  19.9668789  42.6169157  75.4049873  19.2041242  42.1095800  74.2000818
  28.0269707  30.3362470  12.4143809  27.7309692  29.4891554  12.0811290
  27.7411974  30.3473859  13.3278579  40.7832384  98.3163166  66.2942886
  39.9547482  98.2884502  65.8156919  41.1535645  99.1731644  66.0823727
  11.3411224 105.2840042  62.9615021  11.2851477 106.2361908  63.0418301
  12.2011137 105.1266670  62.5717735  76.3250685  92.8010559  65.6142807
  75.9338903  92.0308590  66.0266161  75.7181501  93.0301571  64.9104357
  39.8558760  68.2172251  69.1426659  39.3056631  67.8819609  69.8505497
  40.5036974  67.5280142  68.9959049  21.1889267 104.2554188  71.6256046
  21.3251567 103.3845043  71.9986773  22.0678043 104.5585155  71.3976955
  83.7950529  21.4906836  71.0581446  83.0848659  21.0421611  71.5171528
  83.5621608  21.4229823  70.1321793 111.2649741  90.7502937  64.7000408
 111.0124507  90.2952671  63.8966656 111.6314410  90.0647163  65.2585363
  86.8375587  95.5498886  52.5179243  86.6853905  94.6735573  52.1642160
  86.8649673  95.4239178  53.4664011  41.4606094  75.3444433  71.8935823
  40.7217693  74.7804546  71.6649485  41.1069822  75.9501362  72.5449753
  56.6241932  98.0367279  88.5275459  56.6315174  98.5132504  87.6974201
  56.2297297  97.1909523  88.3147430  72.0480251  72.3665524   8.7781298
  71.9104004  71.4456463   8.9999855  72.8671360  72.5985098   9.2157245
  55.6163073  92.6593781  92.1193790  55.9844732  93.0075932  91.3073254
  54.9106073  92.0794964  91.8330956  76.8982710   5.6709052  57.0790339
  77.7236928   6.0601664  56.7902660  76.3424505   6.4199782  57.2939491
  88.7050832  34.7154666  89.9448586  88.1537164  33.9331008  89.9336529
  88.1020654  35.4305697  90.1479244  43.2120085  80.9702015  54.1478777
  43.6201668  81.8043900  54.3797445  43.5887861  80.7476425  53.2965612
  88.5690416   5.3009463  71.2409687  88.9964355   5.1464701  72.0834064
  89.1013349   4.8164893  70.6099415  23.4547031  69.2585474  20.2144641
  24.0912426  68.9232736  19.5830840  22.6828325  68.7056547  20.0929946
  82.8618396  13.8393927  66.9898272  82.5014557  13.0774928  67.4435472
  83.1495060  14.4225360  67.6922655  34.0393662  90.4053402  62.1422958
  34.8767042  90.8627510  62.2189283  33.8845491  90.0414944  63.0140066
  67.9678692  23.3703852  92.0634937  67.2670854  23.9375640  91.7418671
  67.8268160  22.5370742  91.6141224  51.2177324  97.1486855  62.4033260
  51.3401890  96.8294334  63.2973671  51.5258980  96.4319515  61.8487453
  35.7527637 100.1170540  47.7821779  35.5073190 100.5870056  46.9852209
  35.5682802  99.1987038  47.5851345  70.7268524  83.6659050  94.1974354
  69.9336767  84.1973114  94.1288185  71.4235878  84.2314243  93.8642788
  23.2707405  94.6635914  63.6670971  23.1208277  94.5453930  64.6050644
  22.3932457  94.6874523  63.2854319  83.3541203  74.4368887  51.7514515
  83.5592842  74.0915346  50.8826160  83.5300255  75.3753519  51.6838312
  95.2732086  98.9983177  33.9162827  95.6742382  99.1392422  33.0586433
  94.5735264  99.6498299  33.9634800  26.0234726   8.1196409  24.2448253
  26.8977964   7.9509216  23.8936442  26.0543335   7.7782112  25.1385325
  29.3801665 100.9241486  44.3506575  28.4712386 101.0959721  44.5967484
  29.5186281 100.0035381  44.5732260   6.0502529  74.4955921  71.3013268
   6.2952578  75.0243378  70.5419683   6.1694092  75.0809336  72.0492649
  51.0884523  73.9685726  64.4122124  51.7002058  74.6696091  64.6370173
  51.6449404  73.2585621  64.0921593   2.1912706  34.7065454   9.5827216
   3.1438673  34.7684580   9.5123404   1.8904913  34.6047884   8.6797255
  62.3228025  95.3898239  88.4225082  62.5757360  96.1821842  88.8962364
  63.0311823  95.2500629  87.7941036  91.3726711  80.3841782  87.6720715
  92.2559738  80.1905918  87.3581600  91.3934803  80.1562786  88.6015129
  44.9041176 105.8620262  57.5799084  45.5804634 106.4671040  57.8843117
  44.6801376 105.3444099  58.3533049  75.8816910  92.2349644  54.8854160
  76.7457056  91.9027805  55.1290464  75.9535170  92.4260807  53.9502430
  31.4482641 102.4549007  36.9104362  31.2203503 101.9512749  37.6918721
  31.8330073 101.8118858  36.3148427  31.0829306 103.2432652  71.1331606
  30.8192158 104.0222549  70.6434011  30.7903171 102.5097942  70.5922127
  56.5254211  87.4864674  79.8209429  57.0188761  86.9159222  79.2316914
  56.2002325  86.9008446  80.5047131  51.3290358  82.7442646  55.8208656
  50.9320736  83.1708717  55.0614882  50.6815958  82.8461838  56.5184784
 113.7922075  64.6942239  19.0112704 113.1973984  64.8292356  18.2735652
 113.7910249  63.7470823  19.1496581   0.2406941  54.6293211  66.7290306
   0.3039608  53.9938641  66.0159922   0.8228264  55.3424311  66.4666843
  73.2436466  97.7116966  74.9938059  72.3400259  97.3959637  74.9906588
  73.1640720  98.6655807  74.9912119  40.6350899  78.6335373  70.5188513
  41.2688541  79.1881323  70.9738207  39.9417281  78.4850168  71.1618280
  48.8114548  68.0959225  83.4588242  49.6839523  68.2126141  83.8348007
  48.7437963  67.1547318  83.2981682  48.9656830  73.1029272  65.9840059
  48.2283688  73.6796951  65.7841396  49.6863317  73.4428835  65.4536009
 104.9579861  25.0221306  30.6795234 105.5046942  24.9831396  31.4642638
 104.1074970  24.6868520  30.9632319  53.6712790  94.4500351  10.7608497
  54.0746260  93.9089775  11.4396691  52.7359200  94.4303703  10.9632170
  25.4619813  96.8887520  81.6136360  26.3202357  97.3109531  81.6506958
  25.2837324  96.7901897  80.6783581  56.1646068  27.0802026  41.6812152
  55.3639877  26.6159063  41.9254989  55.9843910  27.4244981  40.8064479
  83.0682755  52.2813368  59.8003387  82.8500557  52.9127312  59.1148090
  82.2505569  51.8105936  59.9614954  77.8223671   3.9889861  60.5226851
  78.7541450   4.2075968  60.5074596  77.7004732   3.5171843  61.3465595
 108.4410241  33.6112505   7.7037448 108.2344010  34.5392519   7.5925845
 108.8559129  33.5597234   8.5648173  78.9096880  49.7234106  53.9703798
  78.0172443  49.7448683  53.6249495  78.8210583  49.3303251  54.8386288
  72.6838398  85.6676769  92.8752613  72.8571844  85.2155590  92.0495701
  73.4320831  85.4479599  93.4303093 108.8797762  37.7284914  -0.0844747
 109.7480609  38.0178648  -0.3647786 108.9359286  37.6926809   0.8704013
  71.5268220  17.5579215  65.4804373  70.8970441  16.8669940  65.2749205
  72.2571934  17.4021102  64.8816776   4.2977881   2.5760127  63.0086422
   3.5460543   2.4199439  62.4370098   4.8453211   1.7981482  62.9020405
  45.3758860  76.0366488  58.5565901  45.0826502  76.8799877  58.2115936
  44.7569227  75.8368778  59.2588758  51.9509363  85.8424568  63.6812639
  51.3016129  86.3511944  64.1668510  52.7578354  86.3522148  63.7540531
  42.3798180 106.4081955  69.8616314  41.6557121 106.0484028  70.3739309
  42.6081181 105.7107925  69.2470217  35.3186369 103.9253521  81.0797024
  35.2574658 103.6278152  81.9874287  35.8773685 104.7015572  81.1192131
  17.6889467  93.1040859  22.4265075  18.6443746  93.1615448  22.4170780
  17.4584496  92.8025723  21.5477633  19.7270048  24.2799860  22.0738334
  19.0284860  24.8751884  22.3459357  19.3367183  23.7568622  21.3736552
  90.1045049   8.0932856  75.6786966  89.7938408   7.2990466  75.2440643
  90.8757557   8.3553649  75.1759863  71.4103603  90.0006771  86.4182091
  71.4304066  90.7135296  87.0566940  71.0932207  90.4093456  85.6128311
  35.0911045  97.1793652  51.9351435  34.5137477  97.5124645  51.2481642
  35.0672174  97.8524590  52.6153040  38.3891129  66.3643503  56.1035013
  38.5889888  65.4315996  56.0243559  38.7917089  66.6261530  56.9315147
  94.1586364  -0.0618314  85.5630398  94.6938528   0.2941085  86.2723160
  93.3473695   0.4449988  85.5976391  79.0102910  44.7536760  11.7751140
  79.5227280  45.1798349  11.0880679  79.4833783  43.9419370  11.9581622
  97.1284485  78.4651756  67.4757862  97.4206066  77.6512098  67.0654917
  97.0547771  79.0858316  66.7508078  39.1612744  77.6350927  77.8458595
  38.4472537  78.1720018  78.1895685  39.9567580  78.1006002  78.1042004
  14.9027550  85.0046921  61.0371351  15.4969776  84.7215748  61.7321014
  15.1221061  85.9254837  60.8948135  53.2667625  82.2563368   0.5519504
  53.5150135  81.3758951   0.8337993  52.9972065  82.6984411   1.3570041
  81.2255955  87.7909756  76.8700933  80.3850842  88.2000732  76.6641331
  81.8709850  88.4823418  76.7226887  53.1648302  79.4484758  82.9339600
  52.5935268  79.5792866  83.6907482  53.4288359  80.3321075  82.6775837
  81.4242554 106.0439587  81.2333298  80.6198597 106.0983276  80.7173729
  82.1091652 105.8599472  80.5904675  98.6145223   1.5996981  37.7978516
  97.8180994   1.5565825  37.2686195  98.3065523   1.8224765  38.6763477
 108.2830204  42.8098155  62.3377895 108.9042247  42.6074649  61.6382217
 108.7006487  43.5149337  62.8323936  19.9129271  13.7852240  88.0358601
  20.5730127  13.0925513  88.0088997  20.3497099  14.5153666  88.4744358
  89.5390701  89.9664879  75.0962782  89.4984722  90.7210827  75.6837845
  89.9387741  90.3072166  74.2960453 116.5786947   5.8482505  85.2210331
 117.0178474   5.6753493  84.3882751 115.6785644   5.5534602  85.0828648
 115.8890880   2.9478694  52.2807455 114.9440874   3.0498458  52.3938942
 116.1086334   2.1682120  52.7908039  51.5025854  83.7972069  66.6024733
  52.4186420  83.7164211  66.8680668  51.4659071  83.3836746  65.7399893
  30.1073766 107.9094505  79.5360851  30.9776163 107.9883194  79.1453218
  30.2755094 107.7052212  80.4560089  54.2561436 103.7244987  59.1982222
  54.7096300 103.8493538  58.3645582  53.7860918 104.5460987  59.3405771
 115.5285085  12.5656462  69.4328499 115.1278986  12.3866130  68.5821486
 116.4603294  12.3914481  69.3001986 114.4639934  29.5235301  84.9479675
 114.4647707  28.6572409  85.3551102 114.9710478  29.4107676  84.1439629
   2.0237790  60.8511448  43.9855194   1.8494187  60.1102352  44.5659351
   2.5489865  61.4514875  44.5146465  81.3136448   7.6830340  57.5964165
  81.8267358   6.9948817  57.1728468  81.4960111   8.4690810  57.0815420
  77.4471235  67.8861570  77.4214554  78.3840847  68.0791855  77.3887062
  77.0375347  68.6049223  76.9399500  79.1295147  94.6290016  54.5881033
  79.4950819  93.7444305  54.5762491  79.6535206  95.1132870  53.9500475
  60.1481676  96.1686802  36.6380692  60.4673576  95.6863117  35.8753991
  60.7842970  96.8736172  36.7590475  73.7158717   0.1540900  70.1342201
  74.0056885  -0.3118276  70.9185410  73.4697999   1.0237551  70.4494572
  98.4345640   6.0248805  64.4220924  98.6538519   5.1648093  64.7804546
  98.8369001   6.0321379  63.5535860  26.8318056   9.0172244  57.9609346
  26.4219259   8.2885409  57.4948311  26.1089300   9.6134425  58.1563807
 108.3880295  12.7497817  53.7854481 109.3002762  12.5082064  53.6252069
 107.9182352  12.4377681  53.0120325  31.8750548  99.9492836  52.6691198
  31.1970758 100.1066494  52.0119953  31.5964413  99.1487122  53.1137419
  72.7446604 103.3254814  53.4446812  72.9290819 103.0060863  52.5613880
  73.5928011 103.6232662  53.7736368  91.7858028 104.1557598  70.4756069
  91.6964626 103.2048702  70.5393171  90.9335041 104.4952297  70.7487011
 115.8145250  18.1531764  74.1300917 115.5103077  18.7837744  74.7827959
 116.3095201  17.5070430  74.6338034   0.7961428  24.0236526  16.4697951
   1.7489279  23.9636903  16.5393180   0.6429518  24.4168192  15.6106204
  53.7936199  54.2487150  13.0543059  53.1332767  54.9318319  12.9379386
  53.8964737  53.8642317  12.1837729  30.9837675  93.7549973  70.4634142
  31.0669303  94.2502308  69.6485138  30.6338739  92.9060268  70.1931095
  28.2832932 101.7727184  61.3100433  28.7301707 101.2051582  60.6820250
  28.9414549 102.4227905  61.5559292 110.2162994  12.9481459  68.7972021
 110.5210890  13.5334063  68.1037998 110.9654297  12.8654052  69.3872881
  41.7033195  56.9162941  72.2039700  41.4651728  56.7237854  71.2970734
  40.8669567  56.9571829  72.6677132  54.8268127  96.8413162  66.0603142
  55.4698229  96.1754513  65.8166027  54.9309206  96.9397545  67.0067310
 110.2572359  11.0804415  62.7779579 111.0532392  10.9074927  62.2752666
 109.5703329  10.6061602  62.3095083   6.1168455  25.3524638  83.8735676
   7.0309233  25.6180430  83.9743805   5.6610083  26.1547614  83.6190796
  79.9899578  86.3356972  59.8023462  79.7318602  86.3473225  58.8806725
  79.1892433  86.5564632  60.2781010  91.5141296  87.5547409  73.3974075
  91.1897182  87.6219368  74.2954493  90.9602928  86.8875694  72.9919672
 108.1954362  66.8279939   3.7043208 108.7994172  66.7813879   2.9631919
 107.7405932  67.6624971   3.5904998  12.2610605  29.6881014   4.7366160
  11.9855583  30.2709013   5.4442042  11.4572037  29.5053297   4.2501658
  53.7988806 100.5165577  87.0877457  54.2422199 101.3026047  86.7686462
  54.2654324  99.7923660  86.6704941  26.3925398  61.3754850   6.1972350
  26.5575302  61.6982656   7.0831412  26.9551122  60.6055170   6.1142177
  51.2039852  88.2281494  91.6441917  52.0095015  88.4753609  92.0983505
  51.4823389  88.0406475  90.7477570  88.5815907 101.7858505  62.6953220
  89.5246792 101.7167664  62.8437805  88.2428646 100.9135818  62.8969336
  83.8995743  96.4276314  41.7857885  84.7201443  96.3251209  41.3037205
  83.2672977  96.7101860  41.1250162  87.7215255   3.5640670  75.9363651
  87.3887838   4.4613124  75.9579039  88.5467924   3.6029959  76.4197397
  56.8422687  32.6780992  30.3304690  57.1057213  31.9224363  30.8556289
  56.0446728  32.3933893  29.8843593  32.0056379  79.2109209   6.0634631
  31.2148321  79.6796327   5.7966918  31.8760574  78.3192735   5.7403487
  18.1587875  94.3353944  13.1030101  17.7011478  94.7012716  12.3460883
  18.7602890  95.0277906  13.3769053  22.6091755  59.0702062   2.5861949
  23.2732094  59.2558580   3.2501430  23.0981577  59.0247064   1.7645759
  36.7527413 101.2658882  53.0311918  36.7271614 101.3085651  52.0752859
  36.0768318 100.6281376  53.2606411 115.0956548   7.7410269  80.4252625
 114.2689575   8.1697894  80.2039909 114.8366750   6.8926955  80.7851219
  92.4476112  16.4137507  61.5516853  92.8428043  16.6812278  60.7219219
  92.1843017  15.5045272  61.4094734  67.0906591 102.9778194  61.6839504
  66.2367392 103.2511330  62.0191431  67.5195503 103.7940693  61.4270210
 105.9757926  63.2756906   4.2539424 105.8915188  63.9126783   4.9634284
 105.1907327  62.7326875   4.3250770  61.0505247 101.7965698  69.1812038
  61.8326473 101.2477970  69.2391920  60.3544712 101.2627983  69.5643902
  67.0363331 105.3378487  40.9345627  67.1978521 105.4484463  39.9975920
  66.4197826 104.6075249  40.9867573 102.7978576   7.7968169  64.1762924
 103.3689226   7.0384551  64.0538263 103.2568229   8.5150767  63.7407589
  72.2305489  91.6746998  94.8780727  72.4182987  90.7441521  94.7553062
  72.7115107  92.1109009  94.1747665   0.3136229  13.4675360  38.4513021
  -0.2652145  13.5389662  37.6923037   1.1691069  13.7495089  38.1274724
  37.0859087  41.8380933   7.0423049  36.1413658  41.9921690   7.0241565
  37.1926725  40.9612184   6.6736430   3.3799433   4.9124385  60.1090336
   3.9414381   4.2208720  59.7587729   2.6906752   5.0165606  59.4530582
  86.4228535  99.4520473  53.5645580  86.4588642 100.3911591  53.7462378
  87.2143936  99.0989780  53.9707947 102.7882446  17.8823806  73.2802248
 103.4513200  17.5820399  72.6586485 102.0113767  17.3638392  73.0708838
  84.7512592  24.7257949  57.6660156  84.1310991  25.2542926  57.1637011
  85.5978883  25.1485015  57.5219154  52.0265484  98.8203144  84.5342827
  52.4234056  98.3158016  83.8242054  52.6076698  98.6797619  85.2817917
 109.7535051  35.4785681  57.8009319 108.9917148  35.6848860  58.3425379
 110.4187120  35.1869345  58.4243727 114.1884531  15.2748061  87.6472759
 113.3905948  14.9354602  88.0528545 114.0654911  16.2239886  87.6342964
  68.0003834  84.6511650  76.0868692  68.2220078  84.0306950  76.7812347
  68.7268400  84.5864010  75.4669571  57.2168779  93.9101410  52.7509499
  57.0303249  94.5423412  53.4450340  58.1410789  93.6906815  52.8689384
  74.6594990  10.9497500  61.8383074  75.4091991  10.6582022  61.3194799
  74.6385540  11.8989421  61.7165422  97.6814092   6.8154383  78.5715437
  97.6138939   7.4737597  77.8799677  98.4118618   6.2587405  78.3018017
  58.6771250 109.0708542  81.7442703  58.2394600 108.3009911  82.1075726
  57.9731035 109.7051716  81.6092777  58.5262918 104.6392918  73.2613182
  58.4980488 104.3688583  74.1790819  58.5227394 103.8181496  72.7694368
  68.5891104  83.8851452  28.3753920  69.5019197  84.0040588  28.1129575
  68.6013222  83.1136608  28.9418697  64.3203402  90.7565308  77.8398418
  64.5903111  91.6552639  78.0286074  65.0430870  90.2169991  78.1604338
  78.8020767  36.2388278  53.0181646  79.5281519  36.8566371  53.1039095
  78.7124313  36.1040354  52.0747519  34.7283220  65.1499939  68.7827110
  35.1720834  65.2439928  69.6256065  33.7961650  65.1672840  68.9995480
  82.4704851   6.1368800  90.7023716  83.0654110   6.8172408  90.3871059
  82.9434932   5.7200671  91.4226246  15.0506186  13.2709456  55.3773928
  15.9665178  13.2038928  55.1074553  14.8500322  14.2047549  55.3141975
  73.7102318 101.7475605  83.9018345  74.0209484 102.6466656  84.0080833
  73.9944506 101.4982700  83.0224514  86.5985454  10.5815364  47.5598955
  86.2551941   9.7159148  47.3384476  85.8210577  11.1052848  47.7533770
  94.0398420  16.5480185  55.0846386  94.0194620  16.5059806  54.1285753
  93.5724367  17.3553897  55.2989006  47.5452221  34.9737650  11.2135142
  46.9794357  35.5642706  10.7160968  47.8710544  35.5079179  11.9379062
 103.2540607  80.2157307  49.2020273 102.7125740  79.6084213  48.6978436
 103.9877796  79.6835661  49.5097494  19.3180740  59.1487413   1.8906421
  19.3509519  58.2350069   2.1739215  19.1926420  59.6457582   2.6990146
  19.7532928  21.8948084   4.5835418  20.5381382  22.4241501   4.7251243
  19.4163215  22.1877819   3.7368793 101.1688579   8.2003737  34.0914273
 100.7367195   9.0062190  34.3744397 100.5551876   7.5043154  34.3262577
  96.8943657   8.3306075  88.8004875  96.7704118   9.2487670  89.0410328
  96.7616476   8.3112956  87.8527355  57.1512318  89.4222832  81.5952682
  58.0437565  89.7249413  81.4278507  57.0171738  88.7126350  80.9670353
  70.6377506  89.9585247  55.8331013  70.9571314  90.5983257  55.1968002
  70.4862881  89.1650677  55.3195667  86.2685884   9.2170668  60.1037884
  87.1771158   9.0854884  60.3748941  86.0446562  10.0881434  60.4313612
  80.5488218  21.9927073  65.9233522  79.9899877  21.8194628  66.6809273
  80.5639900  22.9469920  65.8501482   9.2086256  48.7041860   4.0825194
   9.2636383  49.4058614   3.4337729  10.0701034  48.6955934   4.4996661
  33.0981481  51.1991316   3.1870955  33.9823425  51.2129884   3.5534686
  32.6301801  50.5523210   3.7151736  32.2599924  82.3085123  25.3936500
  32.7799928  82.2150808  24.5954627  32.5689924  81.6050535  25.9645194
  36.1106813  65.5769258   8.7407226  36.0918796  66.5096861   8.5266513
  35.2609909  65.2469545   8.4485358  16.1568522  24.8305846  58.9031553
  16.7003702  24.9278880  59.6850395  16.4683794  24.0233470  58.4938335
  38.1858003  12.9806095  12.3659343  38.1658447  12.7051502  11.4494437
  37.3690593  13.4645086  12.4884242  82.6099695  19.4035769  47.5213337
  83.2872404  20.0789118  47.5596189  82.8135647  18.8185549  48.2510757
 114.2227091   9.5077658  87.5466347 115.1595224   9.3313361  87.6331615
 114.1747249  10.2684737  86.9676304   1.8256544  12.0546485  69.1167021
   2.0194410  11.2714911  68.6015892   2.5088953  12.6782561  68.8706970
 110.6903042  28.1574012  90.8267975 110.4018844  27.4387027  91.3893986
 111.3026155  27.7507163  90.2136803  61.5374435  23.7897063  84.9939442
  61.9752325  24.6363879  84.9061298  61.9478096  23.3860636  85.7587337
 113.2328428  25.2206183  48.8107824 113.4879078  25.6369162  49.6341085
 113.9476455  25.4246093  48.2077312  32.5698459  43.4798151   4.9464721
  31.8492830  42.8525453   4.8868960  32.1614015  44.2840677   5.2667731
  25.3331685 106.3339806  43.7831593  25.5781221 106.8895626  43.0431890
  24.4528174 106.0248756  43.5694742  57.0708942  87.5126553  92.1136665
  57.9352427  87.2545624  92.4338531  57.1869564  88.4129906  91.8100739
  34.0717578  79.6978903  62.9727268  34.4593024  79.3235207  63.7638569
  33.3286190  79.1272402  62.7769375  38.5804439  96.7524910  69.0853119
  39.0526199  97.5335503  68.7967968  37.6584339  97.0088482  69.0649748
  18.3151686 102.9594040  65.2970028  19.1161835 103.4497738  65.1121998
  17.6911211 103.2627678  64.6376324  75.8643616  22.3827410  36.9862318
  76.7462338  22.0105315  36.9871116  75.9971393  23.3128501  36.8032384
  60.8172119  40.0948625  19.4155139  60.8554733  40.1784902  18.4627360
  60.2254951  39.3580251  19.5677012  40.8097744  92.6045418  75.4332352
  41.6775322  92.6243019  75.8367682  40.8852482  93.1831741  74.6744728
   2.8611349  19.2799330  64.6787405   2.0699381  18.9195300  65.0791788
   2.5903296  20.1327277  64.3386889   7.8316079  81.6874886  81.1417866
   7.2544346  81.4289761  81.8603039   8.1321774  82.5645733  81.3797188
 114.3681730  33.0798197  66.2886715 115.2603878  32.7435065  66.2044954
 113.8940443  32.3881293  66.7501974  80.5780315  77.4642086  69.4662285
  81.1348915  77.7831030  70.1764679  81.0439682  76.7032146  69.1197872
  73.5625410  81.3035011  88.9171410  74.4230461  81.5091705  88.5518074
  73.4182835  80.3853893  88.6880302 104.1429806  99.4668388  64.9220324
 105.0621414  99.2453957  64.7725964 103.6543465  98.7783241  64.4709969
  13.4670233   3.7390567  94.9138260  12.6681971   4.1707850  94.6109676
  14.0062594   4.4495154  95.2612686   8.4211004  46.9427972   1.9296664
   8.6449278  47.3136335   1.0760707   8.5473240  47.6649862   2.5450820
  34.1056013  80.1836014  60.1844692  34.9980497  80.1336479  59.8420191
  34.2112684  80.1445484  61.1350203  69.7057785  20.4527426  86.2029076
  68.9337791  20.7227374  86.7002487  70.1341952  21.2738753  85.9611797
  40.6921101  91.5153408  87.0822906  39.9546576  90.9848022  87.3838329
  40.7871675  92.1947479  87.7498245 112.3130478  19.3428469  80.3515625
 112.2204889  19.9412108  79.6101952 111.6478504  18.6710788  80.2016640
  67.2892237  99.2211533  80.4595566  66.9818068 100.0411510  80.8459949
  66.6411352  99.0162086  79.7856092  66.2006630  17.7343798  66.6742373
  66.8163575  18.4655143  66.6232347  65.6776847  17.9157019  67.4551678
  37.3034895  59.8946195   3.9484138  37.9808557  59.5725923   4.5431441
  36.4792001  59.6603971   4.3749351  98.2021440  13.9487792  80.5443192
  97.2776664  13.7162257  80.4577732  98.6208309  13.1504203  80.8661366
 100.1645817  18.8970042  69.6128130 100.6172575  19.4953776  70.2071714
  99.2570747  18.8980246  69.9172258  90.3926338  19.6730281  82.3315048
  90.7564176  18.9150000  82.7889824  90.6682886  20.4245330  82.8563786
  11.5589785   1.8616915  33.1935787  11.8530344   1.2091494  33.8291478
  11.0452246   2.4835063  33.7089777  97.5065483   8.7743903  70.7154560
  98.4331144   8.5668803  70.5944204  97.1116127   8.6158705  69.8580599
  62.0964050  97.6409340  52.2135496  61.7266226  98.3654690  52.7180624
  61.6551733  97.6898193  51.3655186   6.0708021  37.9882670  79.5817089
   5.6351351  38.5664988  78.9555454   6.4913057  38.5820914  80.2036285
  87.1795082  94.2370510  76.5326548  86.9642353  93.9760876  75.6372309
  86.3640022  94.5990658  76.8792534   2.1083092  27.4716902  87.4521732
   2.8446936  27.3777438  88.0564404   2.4475264  27.1641970  86.6115761
  14.7513174   0.3830195  37.7357626  14.6950602   1.1445571  38.3129311
  14.2389845   0.6280852  36.9652510  27.8492916  55.8753305   6.3885421
  27.9498518  55.8919435   5.4367846  28.2226360  56.7059427   6.6833705
  27.1628368  71.0385137  10.1980132  26.8625725  70.5627542  10.9724254
  27.2459638  70.3665739   9.5213908  36.0049045  52.6886755   7.1599025
  36.9466388  52.6054102   7.3096961  35.8298958  53.6253839   7.2503299
  94.1400160  16.2597514  52.4551487  93.4896244  15.9142829  51.8436956
  94.9188818  16.4068366  51.9185257  72.4478054  81.1937046  65.7957268
  72.4295664  80.5182648  66.4737272  72.1485043  81.9870377  66.2398767
  77.8847874  11.5462638  82.5626850  77.4253858  11.2663604  81.7709541
  78.2650412  12.3938513  82.3319626  96.7808117  24.9973822  41.1336327
  96.8902315  25.9236479  40.9184599  95.8399929  24.8417617  41.0507536
  48.5877848  94.2861271  60.1655388  48.6920118  94.4002724  61.1101723
  48.0192089  93.5210800  60.0780249 114.3405021  36.1353350  66.8063021
 114.1938127  35.2015258  66.6555691 115.1576246  36.3267947  66.3459921
  51.7490673  90.3761292  61.8878222  51.5241814  90.2187538  60.9708214
  50.9045458  90.4465199  62.3328638   5.6997179  19.7150088  80.7186699
   5.8728193  19.8819304  81.6451740   4.7874998  19.9770308  80.5944443
  83.0241680  84.6122742  76.6365194  82.6473522  85.0873184  77.3771811
  82.2693062  84.3599319  76.1047935  80.8534111   8.6899901  52.2133255
  80.8605064   9.5065165  52.7127790  80.6215681   8.0186892  52.8550673
  77.9300022  90.0245953  83.0025482  78.7186050  90.1687908  82.4795341
  77.4876642  89.2929077  82.5722027   7.8807043  33.9929152  73.9684391
   7.8041910  34.8855735  73.6314774   7.6529478  34.0664149  74.8952389
 107.7316345   7.7661849  61.0406160 107.8569854   7.1215392  61.7370033
 107.3144926   7.2756339  60.3323889  49.6966900  19.3442679  94.9854279
  48.9238776  19.1417361  94.4581890  50.2216400  18.5443259  94.9580860
  25.4015148  76.6346079  19.6528834  24.5015896  76.7361170  19.3429393
  25.3413284  75.9871011  20.3552646 115.6873192  16.5504885  35.8199096
 116.0631288  17.4248267  35.9224844 116.4364256  15.9584094  35.8871245
  35.3919291  98.5383320  83.5098362  34.4444275  98.6647415  83.4598637
  35.4974174  97.6525497  83.8569546  88.6420025   1.1729861  93.6225510
  88.3361400   0.5071307  94.2384243  89.2552913   0.7086707  93.0528831
  72.0578432 107.6594925  19.8860288  72.7712774 107.0439625  20.0544620
  71.5567493 107.6742935  20.7014537  24.8191333 103.2369423  49.8629665
  24.7377086 102.3962402  49.4126129  25.2042103 103.0178165  50.7114553
  64.2187488  10.5311161  14.4942969  64.2006576  11.4879423  14.5138568
  65.0304115  10.3162580  14.0346450  70.4551172  86.4497185  94.1689396
  69.8143864  86.0550117  93.5774136  71.2684917  86.4660740  93.6645699
 102.0969009 101.7791939  48.7360859 102.3736000 102.6829147  48.8876104
 101.1860085 101.8521690  48.4511662  73.3917713  96.9494629  66.7611217
  73.5307455  96.3726330  67.5122452  72.4978304  97.2737694  66.8703461
 108.7163639  79.3163824  67.3009062 109.4542885  79.4265890  66.7012835
 108.9921379  78.6177063  67.8942251  80.6451238  10.4857302  32.3049426
  80.1245369   9.9496127  32.9031038  80.0059093  11.0528327  31.8736362
  31.5069651   3.6365176  90.5234718  31.2872385   3.4169341  89.6180725
  32.3889803   4.0049792  90.4732704 104.8630537   4.5990992  68.2254887
 103.9997638   5.0045253  68.3066463 104.7284855   3.8677169  67.6228237
  69.5315361  84.4584560  58.7776089  68.6493206  84.7903728  58.9442301
  69.4520378  83.5092163  58.8716745 109.1779770  21.5230895  92.9639244
 108.4908737  20.9229041  93.2535744 109.9950327  21.0812140  93.1950188
  20.9123850  62.2021627  75.1439905  20.3540134  62.0221472  75.9003305
  20.3005528  62.4227619  74.4416904 104.6546854  26.5835238  83.5084438
 104.6187557  25.6769515  83.8135052 103.7829984  26.9331504  83.6932659
  12.7733206  26.7658568  77.4855328  12.9775404  26.2156249  78.2416916
  12.9476046  27.6582671  77.7846432   2.7951407  10.6860591  63.0765724
   2.4926924   9.7779990  63.0902195   3.5633730  10.6912375  63.6475515
  60.1807451 102.6661491  77.9427147  59.7009325 103.2300186  78.5493994
  61.0959911 102.9263878  78.0468035  96.3583339  25.2113486  65.9971237
  96.6688741  24.8693705  65.1587629  95.4053844  25.2316046  65.9093380
  83.1001377 105.0820827  79.1859293  82.4325752 105.0303745  78.5018826
  83.8690090 104.6599674  78.8026571  56.5191925  31.0016065  10.6066245
  57.3339069  30.9728723  10.1049918  56.3532532  30.0898939  10.8463687
  86.8542480 108.7304592  83.5302925  86.9281769 109.5436001  84.0298557
  86.6204548 108.0694389  84.1819191  81.8230343 101.3840294  30.8909416
  81.1820126 101.7916584  30.3085756  81.4278412 100.5466366  31.1334801
  97.4256576  11.8799544  94.7330093  96.4880813  11.9796611  94.8980618
  97.7257789  12.7625323  94.5157146  74.9677324 103.3890438  78.2804441
  74.1356611 103.0131531  77.9930401  74.8942661 103.4326363  79.2338228
  78.1617451 104.1438580  74.6563578  77.3254299 104.2852592  75.0999928
  77.9279470 104.0298557  73.7351751  60.6411552 102.9154778  60.7988214
  61.1554766 103.0601120  60.0046015  60.7473946 101.9828796  60.9864521
   0.3879761  18.9187289  65.9778595   0.2053761  19.2259169  66.8658495
   0.0456595  18.0250502  65.9584379  36.0990286  96.2244129  38.8661933
  36.3926721  96.0738277  39.7647095  35.4042339  96.8777657  38.9476013
  93.6192526   3.4609557  92.6325703  93.6640705   4.3835021  92.8837967
  94.4844116   3.1120253  92.8470039  40.2761841  94.3912792   9.7723377
  40.7267666  94.0886497  10.5607665  39.8539209  93.6070061   9.4218415
  50.5458212 108.2105827  64.1423416  50.2762032 109.0654755  64.4780445
  51.3972378 108.0510044  64.5496082  87.7194500  81.6687298  58.0884838
  87.7339649  81.8170261  59.0340185  87.6966476  82.5470257  57.7086163
  53.8564205 109.7425652  49.7095060  53.6351538 108.9504051  49.2198563
  53.3691025 109.6613312  50.5293560  22.6190460  39.3579202   3.3963603
  22.3821008  38.8391786   2.6275939  22.0220363  40.1057821   3.3739490
 104.8266138  18.4803344  61.4268160 105.5038894  18.6977626  60.7862997
 105.2350773  18.6527014  62.2751570  16.6337132  85.6282425  73.6059856
  17.0712602  84.8964119  73.1710100  15.7027912  85.4875946  73.4332609
  14.7757315  16.1185122  66.3528633  14.4236826  16.3975669  65.5076265
  14.0198587  16.1221839  66.9401312  60.9114349  42.2720915   4.8683089
  60.4093731  42.1869188   4.0578097  61.6972339  42.7556902   4.6135921
  64.0761423  97.7482796  76.6612053  64.6633101  96.9926834  76.6379976
  64.4275665  98.3450794  76.0004807 114.9197687  24.1968585  54.7983360
 115.2320827  24.8068667  54.1300726 114.0595211  24.5345736  55.0476503
  98.2330908  20.1964236  46.1542654  98.7337459  20.8443499  46.6500139
  97.4217571  20.0895930  46.6508102  92.3179626 103.2550812  84.4226837
  92.3550034 103.2822132  83.4665871  93.0271339 103.8320160  84.7063255
 114.8244632  35.1919985  91.8526268 114.0154852  34.8529483  92.2358131
 115.0601448  34.5494891  91.1833954  23.9976954  -0.0934457  87.1878052
  23.8223337   0.8069564  86.9143772  23.1632494  -0.4038286  87.5393486
 100.2522768  27.2169448  72.6437378 100.8579267  27.3823500  71.9212008
 100.7569755  27.4215365  73.4309196  69.7451544 101.5576839  86.9736671
  69.2149591 102.1061325  86.3954544  69.1067934 101.0416126  87.4660015
   0.2686084  52.9417902   1.2843436   0.8194578  53.6699014   0.9968585
  -0.4197085  53.3538347   1.8065185  26.0769724  12.3905326  75.7387114
  25.8102392  11.4719439  75.7743549  26.5915846  12.5215865  76.5350962
  54.1374874  93.5913372  78.5867405  53.6419725  94.1002274  79.2283964
  54.9148655  93.2983017  79.0621758  12.6259554  68.3056360  21.5449828
  12.8101719  68.9595895  20.8707065  12.1686352  68.7915235  22.2312850
 100.7204247 101.6568756  68.9282179 101.2948799 100.9227180  69.1455793
 101.0518742 101.9804955  68.0905819  42.9317236 104.6472168  64.4296360
  43.4933567 105.2770615  63.9778709  42.8656054 104.9832916  65.3234577
   1.4057087  26.4995051  39.1318321   2.3340773  26.6970587  39.2556429
   0.9634232  27.3391677  39.2567015 101.8733944  34.8895598  64.8324442
 102.0856441  35.6534339  64.2960835 102.5127186  34.9117614  65.5444860
  89.4887508  13.4355212  67.8834772  88.6164917  13.1006671  68.0914879
  89.3366827  14.0970565  67.2085857   5.9751486  19.4005728  74.1778088
   6.0541319  18.4955931  73.8761330   5.0326799  19.5673609  74.1906691
  41.2728393  88.5379224   5.7923335  42.2294605  88.5555082   5.7640285
  41.0036791  89.2867666   5.2603358  79.0719986  94.9927139  82.3000145
  78.6934996  94.7062683  83.1312275  78.3157063  95.1640701  81.7388630
   7.7848887  21.6761447  72.7183437   7.1729349  20.9660197  72.9119158
   7.2817682  22.2852278  72.1778679  99.2887558  53.9642287  76.9557476
  99.2194427  54.1184569  76.0135984  99.0519489  53.0433226  77.0657539
  60.0242567 107.5962734  87.9629135  59.6759796 108.0257607  87.1815872
  59.5011425 107.9483700  88.6830616  10.9359144  44.1555262  90.4667950
  11.2816691  44.7330332  89.7862339  10.8805250  44.7093917  91.2455177
  94.5653534 106.2233734  77.8346777  95.3932571 105.8622932  77.5177574
  93.9057732 105.8698177  77.2378731   8.4395098   3.7831546  55.7285976
   7.6019072   3.5114623  56.1038780   8.2636904   3.8756705  54.7922421
  86.1602129  15.6891967  83.2865334  87.0232738  16.0482074  83.0804539
  85.5623020  16.1502791  82.6982021  77.7515173 109.2473316  92.4330044
  78.5011053 108.9157486  91.9386292  77.4782228 108.5090542  92.9775238
 114.9220051  28.1687594  64.7477722 114.6663536  28.6413909  65.5399179
 114.3967069  28.5648394  64.0524960  45.0350380 104.1655445  79.1708183
  44.6779537 104.9973106  79.4820881  44.4324398 103.5040283  79.5106745
 110.9682764  15.6202651  69.8265696 111.3738931  15.1296187  70.5413914
 111.5319599  15.4530669  69.0712309  98.3089985  16.7726279  80.6877708
  98.0044330  15.8663893  80.6409740  98.8737453  16.7959262  81.4602661
 108.9457430  10.0537348  89.5950699 108.0449260  10.2592135  89.8451424
 109.1363300  10.6524039  88.8729191  87.0567513  82.7236652  20.1835084
  87.7725506  83.3273506  19.9849534  87.2851753  81.9196320  19.7170496
  97.6999916   7.4233866  59.5729876  97.5558389   7.7525187  60.4601860
  96.9159092   7.6848269  59.0901852 116.6657032  41.7168284  68.3315802
 116.1021246  41.5152789  67.5845957 116.0853399  42.1452285  68.9607763
  27.5247228  76.9226080   0.2583903  27.7492702  76.4023119   1.0298079
  27.8399360  77.8029161   0.4631824  40.4546583  47.4575239   2.4385089
  40.0051010  46.6663175   2.1416491  39.7636831  47.9942136   2.8267688
 114.3918813  -0.1121568  78.3865786 115.0109590   0.1406432  79.0714645
 114.8408092   0.0992060  77.5680304  87.2936071  21.7340041  87.3848820
  87.2680677  22.3017550  86.6146564  87.4053301  20.8524657  87.0290279
  17.3385214  19.1613246  70.5894518  17.5356745  18.2340098  70.7215548
  16.7966532  19.1809703  69.8006392  92.0404829   4.5101882  80.8811378
  91.3065733   4.5796157  81.4916992  92.4307121   5.3842116  80.8753204
 110.0830139  25.3764678  66.1238337 109.5143665  24.7818614  65.6346369
 109.8578418  25.2225161  67.0413446 114.0385355   4.4802523  57.2183657
 113.6879266   3.6859370  56.8154335 114.0510763   4.2877532  58.1559277
  75.6269217 106.4574146  71.7738152  76.3734245 106.7137146  72.3153639
  75.1086521 105.8825302  72.3369694   1.3507628   3.8985110  89.3624210
   1.8993830   3.6780978  88.6096478   0.4875349   4.0721369  88.9870262
   2.7576708  46.0557891  87.7854919   1.8133663  46.2016535  87.7285957
   2.8505301  45.1043654  87.8345108  32.9182982  11.3428546  86.8359089
  32.9992365  11.6112090  87.7511501  33.5437559  11.8960334  86.3679028
  52.9242122  84.8979955   3.9250773  52.5519836  85.6447988   4.3940848
  53.2915771  85.2759176   3.1260509   7.3900580  27.5340319  73.8864279
   8.0195211  28.1670047  73.5409594   6.5404009  27.9641677  73.7900448
  99.8943710 103.8143349  59.0432358 100.2999878 103.0389786  58.6552525
 100.6022549 104.2370129  59.5295238  57.1522999 109.6725941  35.0992537
  56.3579607 110.1954174  34.9900889  57.0381308 109.2369938  35.9439111
  97.8764642  13.2502986  72.1086264  97.3178543  12.5171233  71.8504715
  98.7679685  12.9387141  71.9525194 115.7912636  84.1510296  71.3085270
 116.4625168  83.4741688  71.3952351 115.0129414  83.6797810  71.0112524
  20.3923261  51.9671636  -0.1521474  19.7261513  52.2748953   0.4624576
  21.0421551  51.5299326   0.3981132 113.2927097  14.4211245  62.4456215
 112.8709568  13.9372493  61.7355394 113.6840070  15.1824618  62.0172644
  19.1201948  22.9528952  59.2537880  18.3760428  22.4056006  59.5046520
  19.8799299  22.5143672  59.6368361 109.8792280  15.2736140  81.5611649
 109.1063703  15.7518912  81.8614674 109.7491516  14.3817282  81.8834305
   0.4606127  47.7679492  11.6364980   0.2231525  47.5982142  10.7248878
   0.8921408  48.6221266  11.6165388   7.2462153  36.7394782  72.3958397
   8.1650995  36.5168334  72.2464466   6.7722391  36.2766028  71.7049551
  34.8032558  48.2730108   4.9776763  34.1281927  47.7975279   5.4618663
  35.1486004  48.9059644   5.6072349  26.1369264  35.8268266   1.2205523
  26.3449276  36.7087942   1.5289229  25.3258503  35.5992418   1.6750735
  81.9203867  11.3584758  68.0192566  81.4996780  11.5372992  68.8602400
  81.4875997  10.5672885  67.6983786 112.5204099   8.6924792  75.1678371
 111.8450035   8.7697173  74.4939661 112.2449697   9.3005992  75.8538103
 105.4810060  14.6121264  74.5284700 106.2566675  14.9079657  75.0049782
 104.7911657  14.5784045  75.1912069  84.9025119  10.7066775  89.3960762
  84.6695484  11.4644194  88.8596153  84.3668522  10.7973815  90.1841640
  17.1761501  75.6497198   4.0289802  16.6091287  76.3887029   4.2494792
  18.0634392  76.0052686   4.0793532  80.5050672   4.4012023  70.0619221
  80.3178753   5.3179885  69.8601818  80.3161157   3.9335395  69.2483997
 104.1315235  22.3506308  92.6335907 103.3145631  22.0069171  92.9950809
 104.7325910  22.3721266  93.3782291  14.6854853   6.2962771  36.3577008
  15.0433992   6.4943839  37.2230840  15.1798319   5.5312396  36.0634613
  51.8384254  75.3462797  12.7895659  51.4028251  76.1627489  12.5448817
  52.3967731  75.5851083  13.5294551  44.1433132  39.9468046   6.7461223
  43.6398971  40.4134565   7.4132365  44.9371803  40.4700285   6.6355151
 102.4846138  22.5257159  46.5415096 103.0735172  21.8397475  46.2270594
 101.9138683  22.7117205  45.7959366  13.5614847   1.1180545  57.9682684
  13.1634687   1.5029765  58.7490654  12.9394220   1.3052512  57.2652578
  35.1185262  90.7934099  23.0990333  34.9923027  91.2862783  23.9098186
  34.7702205  89.9228006  23.2912845  36.9898021  37.0747476  18.4693641
  37.1861065  36.9908434  19.4024486  36.5992630  36.2341886  18.2302398
  62.2009182 100.6207275  73.9710045  61.3253069 100.8506203  74.2819357
  62.2868824  99.6875000  74.1657448 101.0512794  33.8601161  90.8026600
 101.7334903  33.4290934  91.3174820 101.2206186  33.5841227  89.9018860
 109.5512117  17.5561381  84.7693253 109.9220909  16.7896319  85.2065277
 109.7056688  18.2777167  85.3789902  36.0052002  32.8349977   2.7764434
  35.0496185  32.8602606   2.8260535  36.2330711  33.5488802   2.1808928
   6.5023588  11.9791175  76.8691778   5.9718489  12.7671767  76.7519140
   5.8792566  11.3113929  77.1557617  94.8853649  23.7860537  76.0965919
  94.7368253  23.2276107  75.3334999  94.3067754  24.5363665  75.9605646
  47.8179455 109.1372395  74.8713636  48.4879112 108.6971855  75.3945494
  47.4005556 108.4330082  74.3753099  74.4021654  91.1541080  30.5027843
  74.4675875  91.7686653  31.2337255  74.6364927  90.3065109  30.8807969
   8.2604479  15.3832484  84.7907257   7.8487658  14.5341922  84.6299553
   8.8153719  15.5292655  84.0245914  85.8238233  26.9479800  51.0231829
  86.5661777  27.4586344  50.7001162  85.2547849  26.8437911  50.2605772
  35.1939653  18.5501338  40.2640629  35.4590868  17.8246451  39.6987319
  35.9907030  19.0681697  40.3784466   0.3477692  13.2150984  94.6718597
   1.2473129  13.5379744  94.7247982   0.3613638  12.5853492  93.9511204
  74.3057489 107.5193501  78.0577993  74.7767973 108.3491898  78.1333542
  74.2887831 107.1715260  78.9494085  90.0539888   7.1513415  42.2690392
  90.4559959   7.3342467  43.1182528  89.1181530   7.2932769  42.4115181
   0.9950852  17.2456885  59.2997217   1.7272734  17.4460936  58.7166500
   0.2483343  17.7020980  58.9120674 104.0682567   9.4958354  62.4915075
 104.0474380   8.7373496  61.9079924 104.5153249  10.1746989  61.9860268
 108.1653322   9.9348689  39.8164463 107.4660600   9.3118621  40.0142288
 108.2901825   9.8623324  38.8702011  11.7562365  19.5740271  52.5913191
  10.9549688  19.1687918  52.9229689  11.5950274  20.5150271  52.6603508
  92.0326723  23.5213042  65.5994606  92.3793901  22.6471568  65.7780123
  91.0829652  23.4031630  65.5812454  37.2736620  28.4738303  62.5461054
  37.7859758  28.1808806  61.7924833  37.0863508  29.3948794  62.3649454
  15.5683649  71.2168413  16.8687266  15.1435507  71.9405084  17.3292369
  14.9161136  70.9213644  16.2335128 108.7307609  28.1703997  73.8208723
 109.2546762  27.3745013  73.9119673 108.6353983  28.2874919  72.8756571
  44.1267956  45.5949598   1.7410392  43.1980026  45.4439550   1.5656299
  44.3112552  46.4443403   1.3400954  59.6373451  85.1476389  19.7981757
  60.3862560  84.8658090  19.2728824  59.9396980  85.9411150  20.2399844
   9.2617201  20.9131289  89.1301250   9.0753340  20.7668448  88.2027149
   9.3743109  21.8607093  89.2052364  72.0700788 107.3877621  61.5107870
  71.9295263 106.5188026  61.1347866  71.2138414 107.6407909  61.8558407
  46.7027653  88.9381891  12.8115481  46.0213840  89.4795042  13.2102126
  47.5047481  89.1849046  13.2721824 111.1895991  73.8262796  67.1011448
 110.7755280  73.1908821  67.6851320 110.8539821  73.6069416  66.2319565
  74.7960622  98.3996772  26.0720253  74.0743525  98.7320470  26.6057849
  75.5747644  98.5327887  26.6125226  28.9076151  13.6177449  12.0174235
  28.0428172  13.7234979  11.6209716  29.2671670  12.8337817  11.6022700
  28.9695406  24.7205544  79.4841337  28.7478542  23.7906027  79.5318317
  29.0620756  24.8970056  78.5479021  20.6485462  31.3211942  63.7410069
  21.4338183  31.8598413  63.6438370  20.8880329  30.4773259  63.3579111
  18.0141830  48.8631916  34.2781401  18.9245009  48.7301159  34.0138626
  18.0565023  49.5460844  34.9475431  27.4067855  23.4949374  70.6787252
  26.7458105  23.5223317  71.3705301  27.5969195  22.5636244  70.5658722
 112.5226613  26.7738032  66.6817284 113.0910792  26.0184908  66.5312815
 111.6533341  26.4766312  66.4130449  67.4918891  93.0789601  23.7106323
  67.8835357  93.8821995  24.0536356  67.3737098  92.5224482  24.4804120
  13.6909759   4.1131783  66.0647249  14.5196044   3.8347667  66.4547157
  13.7169600   5.0692129  66.1041594  66.9156564  89.6885132  35.7416058
  67.5663138  90.3763651  35.6011128  67.4313057  88.8890409  35.8473349
  13.0466676  39.4301891  63.0013084  13.3865178  39.7817969  63.8241720
  13.6579502  38.7312269  62.7688932   1.1990365  31.0993981  36.7327952
   1.7601427  30.3777432  37.0167065   0.3105270  30.7474256  36.7866325
 112.4375893  95.1642346  69.1941929 112.6593424  96.0923826  69.1193581
 113.2771374  94.7284614  69.3407917  29.3309832  17.5271034  80.9140110
  30.0459766  17.9980528  80.4859638  28.6412263  18.1824946  81.0185432
  31.4386582  23.8559294  55.8044338  31.5549874  23.4099102  56.6433430
  30.6460166  24.3800116  55.9197044  90.3482976   5.2034515  40.3934383
  90.6624903   4.3561256  40.7089567  90.4294529   5.7854718  41.1490154
  28.6748123  35.3285003  41.5358162  28.5864425  35.4629040  40.5922318
  28.2209969  36.0746980  41.9275761   1.1349660  26.5201259  94.4714451
   1.6453117  27.1990919  94.9127960   1.3746627  25.7099104  94.9212551
  20.8389020   6.6637337  65.2902317  21.6790175   6.8133688  65.7238770
  20.3381801   7.4625027  65.4559898  97.6798750  98.3088612  35.1295257
  98.0212308  97.8529333  34.3602157  96.7361439  98.3606076  34.9781156
   1.0543739 109.3096305  80.5825424   1.6934716 110.0199997  80.5262852
   0.5327832 109.5175396  81.3577461   6.3630801  25.5887294  39.8335123
   6.2340415  25.1433396  38.9961314   6.3958418  24.8819327  40.4781818
 107.6672437  20.6314087  65.8117247 107.1703311  20.3357697  66.5745544
 108.5821029  20.4775453  66.0475016  80.5394163   8.8997406  40.5209637
  80.1210537   9.6786362  40.8877420  81.3446560   9.2267799  40.1198769
  12.1787763  27.2335339  30.7345080  12.1958041  26.8408442  29.8617339
  12.9746878  27.7638030  30.7741308  17.8974128  18.4616065  44.3794775
  18.4280217  18.6061394  45.1629257  17.0266604  18.7796879  44.6179008
  39.0809611  66.5405946   1.8091315  38.1467957  66.3402395   1.8676585
  39.1869981  66.9380062   0.9448070  10.4120469  19.1750860  35.6347609
  11.2621546  18.7859213  35.8399463  10.4357958  19.3171406  34.6884584
   5.8168226  71.7064428  39.5040274   4.9110025  71.9885111  39.6311522
   5.7448930  70.8693790  39.0453577  55.6663204  86.8399262  69.9600172
  55.1243902  87.6199793  69.8414516  55.8081032  86.5096807  69.0728474
  41.6331339  17.5386190  55.4748821  42.2547102  17.6719677  56.1904860
  42.0866013  17.8685117  54.6991444  94.9994076  78.9220475  71.3467884
  95.8758963  78.6258697  71.5923071  94.7106255  79.4553828  72.0873213
  34.8519111  23.4023476  94.1562939  35.1144981  23.5088730  95.0705910
  35.6669760  23.4870028  93.6615849   5.7004297  34.0413713  62.3267841
   6.6288424  34.2382240  62.2021627   5.5398875  34.2204285  63.2532787
 108.8284447  28.3513498  53.8044357 108.2052680  27.7568173  54.2220688
 108.9043011  28.0270720  52.9070425  26.2256718  12.6684296  47.8389263
  26.5841484  13.3631158  47.2865343  26.9783044  12.1142340  48.0454302
  96.7718699  17.4543023  59.3116808  97.4598434  17.7458823  59.9099302
  97.1126105  16.6447699  58.9311743  10.1842809  23.1432271  61.6780949
   9.9827552  22.2106242  61.7547178   9.4429755  23.5834098  62.0939493
   6.8717337  20.5384827  53.0336523   6.7080843  21.2931776  53.5992384
   6.0209566  20.1062584  52.9588747  82.1117018  92.5402414  81.6200161
  81.6246066  93.0405509  80.9652996  82.6024366  91.8945073  81.1116505
   6.2123585  24.2437243  37.4650931   5.5281049  24.3818164  36.8101454
   7.0281518  24.4389391  37.0040035  19.8349273   8.5921550  67.2629213
  19.6006382   9.1536230  68.0019045  20.6407404   8.9756644  66.9167757
  12.2314787  53.7248659  46.6600561  12.3404372  52.9969597  46.0480833
  12.4829817  53.3630657  47.5098085   5.7928026  36.1471629  44.2717838
   6.5127206  35.9638882  43.6681604   5.6565589  37.0920587  44.2022038
  95.8306732  33.5888624  73.1318760  94.9836626  33.4328628  72.7141809
  95.7448949  33.1970906  74.0010071   4.6086985  18.9583111  52.3898697
   4.3807495  19.3906951  51.5668774   4.3237180  18.0522382  52.2713375
  28.0739498  19.8361468  65.9528828  27.3741198  19.3501735  65.5166483
  28.0472851  19.5319653  66.8600750  26.4379072  32.0915246  31.0520911
  27.0587111  31.5528083  31.5426230  26.9348788  32.3997998  30.2943206
  43.3884859   3.5236517  29.0034914  42.6711607   4.0302876  29.3842793
  43.4091616   3.7910265  28.0846262  37.9664111  16.1141539  52.2458029
  38.4046936  16.7810464  52.7743816  37.1396804  16.5201986  51.9852781
  55.6244946  23.2195568  68.9615202  55.0377274  23.2763171  69.7156477
  55.0578403  22.9561400  68.2364368  34.0508199   8.9587611  65.8727741
  33.8445377   9.8797762  66.0321808  34.9652004   8.9636242  65.5897284
  17.2235024  33.8573313  19.4655490  16.3303566  33.5545349  19.3017280
  17.2442198  34.7457743  19.1099215  11.4847732  72.4727583  38.7946010
  10.8020043  71.8665552  38.5072422  11.0196519  73.2899952  38.9735341
  56.8018938 107.9841536  37.0877862  56.4402772 107.1710949  37.4404907
  57.7482475 107.8936359  37.1993828  75.7639470 104.4366824  90.9626484
  76.2458978 105.0982758  91.4588833  76.0610726 104.5508104  90.0599194
  12.5990653   6.1127967  32.0618606  12.5000358   6.3691646  32.9787588
  13.1535029   6.7939484  31.6812515  15.2900004  32.9729652  61.1912680
  16.0732186  33.4415507  60.9027719  15.4899681  32.7009106  62.0869398
  90.5146303  16.8296003  49.8551035  90.9544124  17.2294688  50.6053877
  89.9719848  17.5305867  49.4940138  19.8394716   0.4382205  46.0541821
  19.9242151  -0.1303049  45.2887869  18.9960170   0.1987536  46.4382029
 101.1566115 102.3756187  62.4282646 101.3187552 101.4334767  62.3802042
 101.9100333 102.7709901  61.9897795  64.9515177 100.1253521  60.8434248
  64.3165422  99.5125496  60.4725981  65.6565464 100.1601475  60.1969290
  47.0156479  27.4853849  68.4562016  46.8378687  27.5919247  69.3906927
  47.3031950  26.5765524  68.3691835   3.6575341  30.1217318  71.8166685
   2.9068643  29.5698857  71.5971375   3.8048670  30.6490922  71.0315466
  19.1189802   5.7260931  53.5536194  18.2885432   5.6441402  54.0225410
  19.2409515   6.6693211  53.4455585  81.2533178  33.8913393  47.2602129
  81.7859163  33.7194705  48.0367661  81.4200701  34.8111105  47.0541859
 107.6306721  15.0785744  37.0661426 107.7095999  15.3105712  37.9914403
 106.8525763  14.5226657  37.0241237  11.8909180  43.4588337  50.6728601
  11.7939889  42.5394821  50.9211063  11.5613937  43.5005426  49.7751379
  78.0502239  99.2688882  53.6701155  77.8632925  98.5736429  54.3009281
  77.5580229  99.0209042  52.8875065  44.1512943 102.7610677  62.2811556
  43.9743520 101.8208342  62.2514200  43.7805630 103.0482768  63.1156015
  70.8774567  30.1373982  82.6793766  71.7257595  30.2438951  82.2489452
  70.8029366  29.1953969  82.8320694  28.8240480  34.0813994  62.4035645
  29.7063851  34.1567516  62.0401955  28.3937430  34.9008703  62.1595621
 102.6491418  50.2236414  57.9914713 103.2979741  50.6389046  57.4233103
 102.2911181  49.5094967  57.4641705  38.4697907  68.0767708   5.1747340
  39.1376026  68.2081192   5.8477897  37.8080339  68.7428956   5.3607100
 110.1926001   4.2076924  81.0597992 110.8874788   4.1603383  80.4031944
 109.7500636   5.0373608  80.8807945 104.1466809 109.6138339  73.7542629
 103.6227847 110.3540824  74.0605259 103.5196234 108.8956900  73.6688185
  13.0382359   6.2996924  81.0291100  12.4901593   6.7160547  80.3639126
  13.7912905   5.9637493  80.5430222  18.1705821  33.9510775  92.0960712
  18.9906085  34.3089080  92.4362850  17.6385343  34.7209382  91.8948841
  81.4034126 101.8664717  69.5079660  81.4069192 102.2482180  70.3857422
  82.1259654 102.3010647  69.0548897  36.8359518   3.3640447  31.6928911
  36.2546515   2.6048607  31.6486216  37.7146745   2.9993308  31.5877056
  24.4578624  35.5977559  33.0003619  24.7896671  35.4267001  32.1189547
  24.5609903  36.5423346  33.1159759  65.1303793  93.1321525  79.2887878
  65.2808953  92.6576471  80.1063633  65.6041778  93.9564561  79.3995571
  87.9707743 107.3560577  48.4945965  88.2848442 106.7086398  47.8633738
  87.5785858 108.0440881  47.9569769  40.7383060  38.0921936  49.9813318
  40.8353376  38.8163066  50.5997801  41.5400982  38.1142950  49.4589567
  94.8126651  98.5988068  56.4003515  95.5790735  98.4991943  56.9650888
  94.2243434  97.8928911  56.6682911  89.6360768  76.0087323  62.8865671
  90.4357923  76.0533690  62.3624563  89.8884524  75.5154204  63.6670685
 103.0415012  50.6205940  53.5557175 103.0210008  49.6643114  53.5192680
 103.1346323  50.8228588  54.4866562  90.2772512  57.1885061  56.0326719
  89.5748677  56.5583324  56.1932182  90.5212130  57.0473480  55.1179123
   1.5228482  12.7184439  59.6395540   1.3097331  11.8063855  59.4421577
   0.8719599  13.2266581  59.1555166  65.6883110  54.0422792   2.1870631
  64.9611868  53.4350011   2.0502013  66.3512553  53.7689224   1.5530223
 100.2881528 104.8603921  63.2384157 100.2319170 105.3725495  62.4317169
 100.7676984 104.0707748  62.9878664  89.5615687  15.4384470  43.7007904
  89.9606361  14.6936345  43.2510853  88.7412634  15.0937128  44.0536165
  16.6643322  44.4655943  25.5492711  16.1306787  44.8523712  26.2434244
  17.4162233  44.0892601  26.0067272  64.7587527  45.4853373  12.3069972
  65.1795806  46.2783151  11.9748515  63.8228668  45.6384056  12.1769160
 106.6005053  16.1399472  39.4871712 106.1511590  15.7877493  40.2554655
 105.9369077  16.6672230  39.0423656  18.0709922  20.1961589  56.6614246
  18.8733613  20.2593756  57.1795368  18.2901132  19.5902824  55.9535170
  94.0072895  92.9428922  85.6318855  94.7604407  92.4243128  85.9148502
  94.2146302  93.8360523  85.9066677   8.8020748  26.1539745  53.5812473
   7.9721153  26.6307998  53.5751057   8.8046962  25.6885028  54.4176435
  22.0847357  63.5512857   1.0626239  22.2502829  63.0625664   1.8688411
  21.1440552  63.7276553   1.0783309  94.5720567  24.9899721  24.5399642
  94.1309466  24.5720458  23.8003755  95.1353039  25.6523728  24.1397047
   3.3598879  34.4652343  37.2238803   3.9537716  35.1842260  37.4397206
   3.7776908  33.6891794  37.5972581 100.2805318  26.6322923  51.1466408
 100.0754799  25.7182765  50.9497690  99.6772995  26.8665290  51.8519592
  16.8964231  38.5206199  30.5211830  16.8367207  38.5130811  29.5658755
  17.7025104  39.0022111  30.7069921  90.1039543  31.9640946  76.0318851
  89.6026291  32.7791333  76.0567141  90.4970588  31.9511867  75.1592255
 111.3399025  19.2942703  47.4635601 111.2688913  18.6665630  46.7444134
 110.5776717  19.8639905  47.3603392   8.6860739 102.3474567  80.7025909
   8.0374180 102.0081531  80.0858688   9.4319331 102.5925677  80.1550102
  97.7213611  35.0831199  85.8338737  96.9123783  34.6267414  86.0651684
  97.4318554  35.8418512  85.3271770  35.8687901  56.0418797  64.3158484
  35.0984907  56.3188696  63.8197136  35.6279063  55.1880455  64.6752501
  26.3166642  50.1415825  48.9890671  27.2645354  50.2105474  48.8749886
  26.2085032  49.6286774  49.7899771  22.7423477  35.3902578  55.7667637
  21.9455051  35.5098176  55.2500629  23.0259633  36.2795353  55.9788465
 114.5091487 107.9313786  77.3879099 115.2171136 107.4459028  76.9644356
 114.9190904 108.7447637  77.6821566 108.5010578  33.4895802  66.8396473
 108.3653583  34.0605998  66.0835028 108.8228401  34.0737557  67.5262547
 102.0134964  43.9241886  60.5981016 101.5662422  44.6258450  60.1249456
 102.6073100  43.5407257  59.9526787 106.0928645   5.5195236   9.5308894
 105.4671695   5.3279525   8.8322926 105.7348444   6.2922782   9.9678159
  14.1409552   4.2104560  89.0919399  15.0755179   4.0066680  89.0559483
  13.9439607   4.2668808  90.0269508 105.6799104  36.9422746  34.1038489
 105.4008653  36.2502670  33.5042739 105.4814448  36.5988207  34.9749875
  17.9002297  25.1434088  90.3698921  18.0414808  24.2638445  90.7201004
  18.7801206  25.5091000  90.2788067  79.6413651  82.3969340  59.3450165
  79.9060131  82.8420781  60.1500225  79.9652154  81.5021514  59.4485426
  29.9206018  15.2690685  56.2021637  29.9764633  14.6165776  55.5040455
  30.6973100  15.1123488  56.7391872  29.0048814   6.2769872  75.4631138
  28.3927059   6.8311512  75.9472322  28.5392547   5.4484749  75.3491402
  12.9316211  25.5578828  90.1312160  13.8401437  25.3130412  89.9555111
  12.9825366  26.4632773  90.4376411  13.4052968  20.0051212  55.1941061
  13.0988753  19.7181189  56.0543203  12.8103483  19.5825469  54.5746708
  67.9780836 103.8812541  68.6362028  67.5841714 104.5591479  69.1853189
  68.9212824 104.0059840  68.7413263 107.9244926  18.2671630  56.6860151
 108.1265446  17.7601373  57.4723530 107.0391466  17.9939044  56.4457560
   6.7495996   8.0066317  37.4979782   6.5573680   7.4064779  38.2184601
   5.9285074   8.4764713  37.3520684  97.7001263 104.4507223  63.8272572
  97.8455711 103.5583793  64.1415834  98.5765911 104.8318022  63.7741804
   4.2241138  37.0256948  48.6633873   5.0781286  37.0904112  48.2359505
   4.0006191  36.0963440  48.6124992  75.2367347 108.5790761  83.3176708
  74.4399987 108.8050156  83.7976646  75.7252992 108.0145644  83.9167213
  91.1827744  85.5838393  81.3202477  91.2085761  84.6303272  81.2403774
  92.0798708  85.8637881  81.1383724  85.4172779  93.0394291  52.0055103
  85.2470250  93.7529551  52.6204300  84.5480884  92.7239429  51.7581034
  87.8160205   2.2179021  53.0908442  87.5731601   2.9765731  53.6215687
  87.4012627   1.4755392  53.5302830 111.2417962  23.9099765  60.0948763
 111.3254495  24.2014384  61.0027742 110.3042110  23.7566924  59.9779558
  34.3083954  14.7979474  72.2512960  35.2592134  14.7640646  72.3563099
  34.1385746  15.6662107  71.8859005  28.3066034   4.5683295  62.7179909
  28.1484342   5.0113821  61.8843746  27.7019382   3.8263112  62.7133703
  22.9783893   1.3296160  21.7208171  22.3279285   1.4140411  21.0236764
  23.6567831   1.9655728  21.4937234  93.8938870  27.4819350  86.5206432
  94.8368969  27.5542402  86.6680813  93.6740222  28.2509494  85.9948063
 113.0145695  14.4209456  81.6248131 112.4442946  15.1451886  81.8826675
 113.6915540  14.3966806  82.3010826  10.9122741  42.4023771  94.3907833
  10.0972974  42.9044151  94.3896103  10.8933747  41.9130993  93.5682964
   1.8233348   6.3760215  55.7164240   2.7496263   6.2734205  55.4980469
   1.6419300   7.3029816  55.5612803 111.0195304 103.0933886  55.4465532
 111.0048939 104.0014838  55.7488441 111.8827320 102.9879969  55.0465393
   3.7493458  40.2308035  74.0106106   3.2449466  39.4292045  73.8718653
   4.6377161  40.0056267  73.7343407  16.5737474  62.6392794  42.4179077
  16.0790789  62.1132088  43.0462217  16.4683414  62.1794462  41.5850353
   4.3811551  46.5502691  15.0546098   5.2842265  46.5843868  14.7391260
   4.3804234  47.0994473  15.8385968  46.9349766  33.7006450  40.0432825
  47.5628901  33.8624263  40.7473993  47.4088001  33.9272833  39.2430592
  33.2300067  42.4771690  48.6598253  33.4899259  43.0901575  47.9721308
  34.0566254  42.1392632  49.0044308  21.4133859  31.9652724  80.2657890
  20.7010031  31.7301464  79.6712685  21.0349298  32.6289892  80.8423996
  22.1485519  37.8043056  31.2531638  22.5498390  38.6732745  31.2435603
  22.7643418  37.2507977  30.7728887  67.7792926  71.3218712  51.5526628
  68.0510921  72.1655678  51.9139528  68.5883982  70.9304523  51.2234640
  15.1772869  51.6366577  36.7136335  14.8946309  52.4291897  36.2573123
  14.4737351  51.4552689  37.3368049  37.4958873   5.6367373  70.7861137
  36.9052410   4.8851690  70.7359743  38.3728504   5.2532327  70.7764673
  25.3690934  32.0193172  38.5667133  26.2437510  32.1829557  38.2139707
  24.8530483  31.7435718  37.8091550  50.6217670  21.6815257  75.3401995
  51.0138130  22.3857212  75.8565712  50.4664516  22.0727968  74.4805384
   9.9003404  36.3740325  72.5066137   9.8575699  37.1716118  71.9790983
  10.4980576  36.5917015  73.2218647   8.6763537  29.1540909  65.6782055
   8.1265485  29.8345590  65.2897358   9.0459168  28.6877346  64.9284267
 112.3068949   7.9515910  20.1343083 112.8056385   8.1725544  19.3477583
 112.3367496   8.7457609  20.6678200   9.7164440   5.1327807  74.6697235
  10.2664840   4.8194435  75.3877115   9.8718172   6.0769200  74.6434164
  19.9720645  46.2634563  47.3546505  20.3990388  46.9826460  46.8891478
  20.6856418  45.6661510  47.5788403  23.0978036  24.6486235  58.0493212
  22.3136020  24.9713993  57.6053905  23.5964251  24.2055631  57.3628044
  43.1085396  38.7803864  78.9273548  42.3097754  39.3033195  78.8584137
  42.8213787  37.9547739  79.3173981  24.1531420  27.3768306  58.7989140
  24.8259473  27.1525335  59.4417620  23.7788224  26.5346956  58.5402155
 110.5792745  28.3150244  85.0476360 110.8846410  29.0593004  84.5289421
 111.2885096  28.1487370  85.6685734  19.9436867  66.7740917  35.4272485
  20.4482484  67.5087929  35.7763338  19.0527606  66.9235277  35.7437158
  33.7766528   3.9571998  53.6857128  34.1118479   3.7081641  52.8243971
  34.1459656   3.3072436  54.2835379  23.5987687  54.0844202  75.4226971
  24.4755363  54.2229366  75.0644732  23.2648802  53.3216524  74.9505377
  27.9205537  15.6659150  71.4584255  27.7115035  16.4483166  71.9686985
  27.5426793  14.9441814  71.9609594  14.5101571  40.1758957  75.3803253
  15.2727854  40.1876307  74.8019743  14.2572165  39.2537761  75.4244852
  12.6182890  17.0636034  57.4931622  12.4159884  16.8026555  58.3916140
  13.0077457  17.9338241  57.5784302 116.2845513  52.7461052  20.3502584
 115.7333122  52.9455662  21.1069512 117.0593413  52.3251104  20.7226777
 105.6361212  33.6259294  65.0647068 105.7639482  32.9089665  65.6858778
 104.8165347  33.4129405  64.6184492  19.6234214  21.9165397  30.5293775
  19.5257938  22.7925444  30.1561332  18.8115835  21.7713737  31.0152578
  50.5541849  13.5551763  48.0613708  51.1526918  12.8743279  47.7540112
  49.7575951  13.0826056  48.3029318  16.3665545  28.8921952  41.8142033
  17.2727358  28.5882616  41.8660831  15.8542407  28.1863523  42.2086096
 105.4098632  22.1465659  27.4720955 106.0351410  22.0620203  26.7522955
 104.9078669  22.9340339  27.2620344  42.7195742  27.7051550   2.0945758
  43.3124425  28.1522661   1.4905566  42.7973177  26.7791563   1.8649882
 100.0327208  21.7413259  57.3467970 100.3830435  22.1572804  56.5590858
  99.9672677  20.8139300  57.1190166  18.8464415  30.3092265  53.9009953
  18.0380106  30.5139923  54.3708277  18.6211944  29.5573211  53.3531523
  34.0527511  38.9753938  61.6707945  33.5714936  39.5970511  62.2168446
  34.1108418  38.1828618  62.2044134  82.9641009 109.0066786  54.5998764
  82.2480730 108.8082593  55.2033377  83.5007341 109.6468843  55.0672054
  17.6941276  16.1553741  70.5960989  18.2570386  15.4248118  70.8523035
  16.8039501  15.8316803  70.7340765 103.2908727  94.3081235  58.7450075
 103.8340617  94.8947453  58.2186508 103.7720467  93.4807157  58.7549925
  45.9804630  43.2135248  57.2580338  46.2680864  43.5781479  58.0950260
  45.9418726  42.2690678  57.4088240 115.9057608  15.5713987  66.1032391
 116.2386241  15.6365943  66.9983244 115.9240154  14.6343815  65.9085655
   2.3968531  14.0719247  87.1235561   2.3281652  14.9407387  86.7277336
   3.0912802  13.6373675  86.6284180  36.7836070  35.0925899  78.9435434
  36.8758488  34.2238712  78.5523272  37.5695539  35.1985741  79.4795370
 103.4735717  42.0947266  90.3196239 103.2812800  41.2925005  89.8341465
 102.9444339  42.0264101  91.1143398  32.0337796   7.1011996  65.4095840
  32.6748300   7.8117859  65.4284096  31.5549111   7.1887362  66.2337494
   2.1481307  71.4876652  59.2189932   2.6016742  71.1047363  59.9699259
   2.0914891  70.7737827  58.5838652  69.2970874   4.9887710   4.3716163
  68.5323187   5.5167156   4.6010417  70.0435480   5.5000454   4.6840686
  91.0182048 102.7555376  92.7760124  91.2447871 102.4104177  91.9124222
  91.7662824 102.5286936  93.3284187  31.1892390  40.1029921  24.4133973
  30.6816149  39.7443247  23.6854506  30.5665803  40.1511765  25.1388001
 101.1381724  11.1037498   5.7534522 100.2325847  11.3888651   5.6315822
 101.5450718  11.2254053   4.8956222  25.0327945  15.0429285  28.3492732
  25.9038591  15.2264071  27.9974031  24.4670725  15.0006199  27.5782990
  20.4549623  22.7231765  42.5053978  20.5089784  23.4474564  43.1288815
  19.9989045  23.0918765  41.7488909   0.9220720  36.1340666  88.4675503
   1.8113516  36.0607505  88.1210899   0.9805886  36.8179178  89.1347504
  12.5848854  34.2043447  46.8581104  12.9217875  33.9454675  46.0003757
  11.6832268  33.8831878  46.8681717   8.6690736  30.2561426  42.8618097
   8.9248377  30.6061959  42.0084190   7.8998959  30.7688594  43.1102467
  49.9917173  29.9142838  50.6353569  50.4915571  29.0983605  50.6611156
  49.9098206  30.1740670  51.5529823  15.1636969  97.9367554  55.8411264
  15.5433594  97.5680541  56.6387177  15.8892237  97.9555868  55.2170372
  15.7493675  35.9642696  44.4894695  16.3369977  35.9926295  43.7344074
  14.9193418  36.3089252  44.1600752  35.4546213  25.2550936  39.8696852
  35.5827999  25.9961963  39.2775965  36.2815118  24.7742486  39.8340368
  10.0215924  67.7718353  32.3611355  10.1925194  68.2014847  31.5230298
   9.9525136  68.4908628  32.9891968  21.5915418  50.6454372  53.2318163
  21.6442633  51.5036821  52.8112555  21.5150189  50.0269794  52.5052547
 115.3375507  93.0505883  48.8609219 114.6434308  93.0728256  48.2021856
 114.9148656  92.6942157  49.6423149  88.8517202 103.8883691  50.5348063
  88.3074141 103.2258438  50.9602785  89.3240417 104.3081056  51.2538099
  20.8451509  55.5283403  39.7350359  20.0902152  56.0854053  39.5453477
  21.2571025  55.9347057  40.4975319 113.3398213  16.7506480  23.1889725
 112.3848309  16.7975545  23.1439710 113.5239827  16.4734972  24.0864706
 106.0261299  68.8794899  38.4485507 105.2430668  68.7140608  37.9235029
 106.7375126  68.4756613  37.9514718  33.9129400   5.8836704  55.6759214
  33.5446882   6.7621922  55.5819988  33.6983275   5.4447508  54.8528051
  93.6108721 107.0406377  22.4942207  92.8481222 106.4633559  22.4597192
  93.7827040 107.1548774  23.4289145 114.5106799  16.6570318  61.2805843
 115.4051295  16.9970667  61.2567568 114.0257656  17.2950411  61.8040705
  10.6832612  27.0475316  85.8857822  11.0736251  27.8092289  85.4572201
  11.4273465  26.5756512  86.2598133  12.6383482  96.0126232  47.3304987
  13.2340323  95.4623043  47.8389692  12.1062599  96.4607560  47.9879856
  41.6844463  56.7972755  55.3271961  41.0526562  57.5127459  55.3990841
  42.4795485  57.2125196  54.9931002  98.8380184  65.5917835  34.1080141
  97.8914072  65.7198954  34.1692185  99.0922274  65.2677774  34.9720907
  30.4234028  18.1578588  25.5707049  30.5836725  17.2143984  25.5500364
  29.6360588  18.2787359  25.0399375  29.0641761  25.4772735  44.2633343
  29.4625449  25.3432894  45.1233244  29.8065877  25.5359840  43.6619949
   0.4463759   4.1273922  34.2336249   0.8486496   3.7880144  35.0331450
   1.1737829   4.5108506  33.7436557  15.0039148  57.0930672  47.1033621
  14.3742239  57.4131393  47.7493334  15.3739047  57.8863716  46.7160511
  21.7308092   2.4911541  43.9892197  21.5415454   2.1951669  43.0988264
  20.9077358   2.8723702  44.2949295 104.9143614   6.1319536  63.9669275
 105.2927281   5.2749544  63.7703943 105.3853585   6.4288604  64.7455406
  58.9106274  23.4457207  43.6703396  58.2469225  23.2790637  43.0010462
  58.6027575  24.2311525  44.1226006  41.5902710  37.7854800  36.6017652
  40.7998657  38.1604910  36.9901729  42.3065948  38.3030510  36.9695020
  33.7799716  40.1133776  69.6138763  33.3232760  39.3365335  69.2911196
  34.4743681  39.7673440  70.1745081 100.6130315  91.7822742  56.2385607
 100.7087065  92.4420213  56.9254494 100.8393289  90.9564781  56.6664410
 101.1609841 109.4850565  79.3437481 101.2774468 109.2450527  78.4244728
 101.5738178 108.7723895  79.8315048 110.9218331  12.7912784  22.2267675
 111.0427101  11.8559659  22.0630264 111.1265661  12.9002762  23.1554413
 111.0038353 104.8122429  48.0258894 111.8342830 104.7484224  47.5541687
 111.2092043 105.3317740  48.8031578  32.5178862  11.8178022  49.1414595
  31.6186261  12.1173739  49.2749596  32.4527621  10.8629119  49.1282368
   2.9292437  60.3817415  59.2980003   2.4560045  60.6564426  60.0833750
   2.8073537  59.4329214  59.2645121  31.7054391  20.3188396  71.2118912
  32.1241975  19.5048928  70.9319592  31.1107135  20.5409145  70.4955006
   1.5157650  50.8068514  31.3803244   1.5954682  50.4064322  30.5145645
   2.1786538  51.4973354  31.3868070  18.5945809  38.1663537  72.3139715
  19.0856826  38.6501503  72.9780436  17.7871978  37.9045963  72.7565193
  25.0332785   8.3019739  60.3304672  24.7496080   7.5114685  60.7896662
  24.2195177   8.7235498  60.0542450  97.9771866  66.1988502  23.3736247
  98.6776031  66.2728529  22.7254218  97.2855533  66.7735343  23.0455798
  46.2297297  28.0123663  53.1864977  46.4252710  27.2616267  52.6257992
  46.5475702  27.7543283  54.0517282  28.0971456  46.4673138  48.4602118
  28.1667709  47.0716190  49.1992617  28.8275766  46.7031956  47.8883171
  19.5364857  41.2748623  28.4445524  19.5702624  40.5968952  27.7696800
  19.2993748  40.8052063  29.2442012 112.8512622 109.4181370  55.5095577
 113.5408379 109.4245678  54.8457241 112.6853348 108.4898038  55.6735611
  30.2248716  10.3096330  68.3970594  29.4036627  10.5433357  68.8297653
  29.9658680   9.7032869  67.7031660 112.3565150  98.0789184  47.6496077
 111.7490745  97.6495277  48.2519960 112.4219848  97.4784731  46.9070387
 100.4929866  32.2422457  59.0126467  99.6311333  32.5077319  58.6917782
 100.3108527  31.7677641  59.8237705  16.1610353  65.6094933  14.2925143
  16.1370087  66.5534925  14.4490838  15.4587662  65.2579880  14.8397779
  13.5059917  34.0413237  78.5882902  13.9146125  33.1777549  78.6475325
  12.9435670  34.0936875  79.3610573 111.7179420  28.9761114  28.9784002
 110.8354505  28.8419414  29.3239999 112.0509984  29.7335982  29.4595647
  93.1318535  48.5946035  57.6072550  93.0263033  47.9655361  56.8935585
  93.4294333  48.0676985  58.3489037  15.0562215  21.3813686   5.9391028
  14.3167937  21.0711217   5.4163927  15.6689203  20.6460023   5.9474450
  28.0086803  64.2825365  77.2706413  27.8310537  65.1733494  76.9687605
  28.2080579  64.3804550  78.2017088  56.2956524  44.2979336  56.3356447
  56.1325169  43.3827925  56.5639782  56.2188387  44.3241835  55.3818941
  36.1200190   8.8510388  90.5070210  35.1967883   8.7873405  90.2624321
  36.5835047   8.9329338  89.6735287  27.3321915  46.7566109  70.9349728
  27.1211457  47.3061752  70.1802063  26.5565252  46.2091827  71.0570145
  14.0252888  51.1757517  75.0701332  13.1558275  51.1929369  75.4700994
  14.4513774  50.4104137  75.4560661  12.0534360   3.8758865  39.5473051
  12.8138578   3.3001411  39.4666338  12.2994864   4.5038947  40.2264929
   8.9826030  16.4806616  40.0827503   9.4458950  16.3228464  39.2601418
   8.7027138  17.3944187  40.0285149  37.8189754  59.7940636  79.1129398
  37.3793888  60.5361176  78.6977863  37.1081209  59.2035484  79.3623590
  10.8740950  65.9252310  80.1396275  10.4655921  66.3545656  80.8913136
  11.4644384  65.2778816  80.5251980  84.2810764   8.0944955  72.2860718
  84.6489372   8.9372712  72.5518560  84.6935095   7.4582112  72.8702593
  15.4445994  59.6164322  46.1934042  16.1317027  60.2806425  46.1391354
  14.9105000  59.8848581  46.9410133  20.0134635  23.9186978  56.8235350
  19.4830918  24.0330720  56.0349560  19.3895853  23.6384416  57.4932146
  11.3372982  50.7349014  22.7631855  10.5459213  50.3778648  22.3600984
  11.9555688  50.8252716  22.0380616  47.5305766 101.4285702  90.2236914
  48.2281244 102.0705790  90.0914669  46.9267589 101.8530459  90.8331632
  14.3255568  55.7965946  82.3418808  15.1548028  55.4863405  82.7056503
  14.5664167  56.5541935  81.8087196   9.8516333  40.4449749  37.0624590
   9.6071213  40.4794455  37.9872584   9.4912618  39.6149969  36.7502093
 100.0175037   5.6909513  52.9472208  99.7915306   6.6210938  52.9453278
  99.1886987   5.2427757  52.7785444  88.3150997  53.8144398  59.7662735
  88.5445943  53.1135511  59.1560936  87.6116981  54.2930651  59.3276691
 111.5472870  36.3533115  81.5013790 112.0841541  36.8513513  80.8849716
 111.9866767  36.4630508  82.3446655  19.8928845  12.3308694  48.7921000
  20.7632875  12.7291059  48.7981367  19.4868410  12.6548350  47.9881048
  21.7806101  74.5968819  74.3816662  20.8917809  74.4155455  74.0761614
  22.2240162  73.7493658  74.3451166  12.5064468   9.8671055  72.2202969
  13.0556440   9.1377681  71.9327545  11.7659962   9.4501710  72.6608992
   4.6152070  31.2381315  53.2641554   4.7718960  31.6903162  54.0931368
   4.3930069  30.3424048  53.5181856  26.2960100  26.0625648  62.2968483
  26.2312293  25.4876089  61.5343142  25.4972553  26.5892577  62.2682333
  31.9537878  19.1805542  59.6526337  31.3520861  18.4913254  59.9339771
  32.1754909  19.6483052  60.4577971  14.7448540  -0.0435683  78.0772400
  15.5320168   0.4589624  78.2871675  14.3354738   0.4409356  77.3603725
  22.7277803  28.0438018  44.3648195  22.1576643  28.7624431  44.0914059
  23.2044244  27.8009272  43.5710573  16.7327714  55.3098106  70.0329113
  17.4596167  54.8391056  70.4407883  16.8490541  55.1630259  69.0942097
  89.6373930  26.5456128  52.1902037  90.0590124  26.5500712  53.0495358
  90.1250829  27.1928191  51.6807795  27.2146749  50.4823542  43.9109945
  26.6834307  51.0053587  43.3105946  27.2566342  51.0055399  44.7114611
  43.5686493  41.0529757  47.2295904  42.7029228  41.4174891  47.4136448
  43.8854074  41.5553665  46.4789248  33.5829163  17.2460079  76.5100622
  34.1168809  16.4866900  76.2765074  32.7599359  16.8722916  76.8251419
  30.4156160  41.3708735  42.3236036  30.7976699  41.6571236  41.4939451
  29.8181534  40.6635523  42.0807600   5.4628980  46.5328121  80.6229591
   5.7341003  46.1526966  79.7873783   5.3488797  47.4647045  80.4363918
  31.7172360   9.3504971  58.7570429  32.1082735  10.1655149  58.4422922
  30.9832168   9.1921353  58.1634331  84.0846045  98.1367015  61.1669922
  83.8409079  98.0802535  60.2430534  83.7097008  97.3495757  61.5620995
 112.4727782  10.2380478  61.5903759 112.8725152  10.0706863  62.4438572
 113.1475698   9.9923086  60.9575224  33.1432223  32.9974079  44.3465185
  32.6822662  33.8068795  44.5667601  34.0674376  33.2457685  44.3270922
  93.4130325   9.9550438  57.1542501  93.4846630  10.7240200  56.5887642
  92.8922453  10.2536738  57.8997946  66.9630718  21.7948747  13.1656742
  67.1269512  22.7377534  13.1845653  66.0800266  21.7124176  12.8055894
  94.2007888 105.6614422  47.9458284  93.4004677 106.1510860  48.1354761
  94.0005411 105.1758619  47.1456099  99.1911759  35.0091171  40.0894833
  98.7311926  34.2123580  39.8252416  98.5650351  35.7136512  39.9227118
  19.2871881  48.6353159  70.7673073  18.5789990  48.5567999  71.4064741
  18.8930798  48.3632183  69.9385262 110.5871656  27.0699811  79.9550819
 111.4584573  26.8044138  79.6608782 110.5781206  28.0212307  79.8488903
  19.4849360  34.9228287  63.6569595  20.1181626  34.7028208  62.9736948
  19.2460859  35.8323646  63.4782696  13.8408029  32.7161884  57.1695757
  14.1735673  33.3069396  57.8452301  13.5819447  31.9279361  57.6469469
  12.5231767   4.4477975  86.9527817  12.4824786   5.3948933  86.8201733
  13.1330192   4.3340024  87.6817417  14.0886486  11.1222327  68.6326981
  14.6063983  11.8883276  68.3851767  14.4282699  10.4159009  68.0831671
   2.7547246  26.9544959  35.5847096   2.1557818  27.1689034  34.8694968
   3.5799867  26.7399025  35.1498270  58.2445277  76.3169050  68.9258480
  58.9016510  75.6373858  68.7752724  57.4062587  75.8673667  68.8188219
  55.3505993  29.0930319  64.1269588  56.2704420  28.9026618  63.9428949
  55.0129509  29.4570804  63.3086109  10.5611622  23.4129763  55.9096098
  10.6933224  22.8709579  56.6874170  10.6734419  22.8094316  55.1751995
  87.9398573 105.8788674  63.9521837  87.8241731 106.3123565  64.7977209
  88.5064674 106.4694416  63.4557867  38.3447075  55.1784134  25.3125453
  38.0535030  54.4215965  25.8211327  39.2812252  55.2459812  25.4985452
  21.8832089  82.8044753   9.8233336  22.2596575  81.9574838  10.0623340
  21.4787532  83.1230836  10.6302661  74.8590391   7.9217296   3.8389415
  74.8885151   8.8303381   3.5392875  75.3817942   7.4408394   3.1972999
  47.5649214  25.1748204  30.5481529  47.7408218  25.9866881  31.0237145
  48.4316730  24.8148704  30.3599739 105.6495596 104.0731721  29.1896296
 104.8037363 103.7354355  29.4841599 105.8751584 103.5290360  28.4351420
  17.7651668  26.7415047  68.5774183  17.0460129  26.6108751  67.9593658
  17.7082932  27.6659298  68.8191509  23.9345336  15.0075841  70.1427794
  23.8270044  14.0713489  70.3105021  24.4173050  15.3331161  70.9025097
  17.0529437  31.7259121  35.5587482  17.5309753  31.2660241  34.8686600
  17.7361917  32.0895123  36.1219501  32.3323894  27.4189806  27.2699594
  33.0349445  27.2518778  26.6416883  31.5795565  27.6582479  26.7293835
  17.3115349  22.2860932  52.6882696  16.3853133  22.4989295  52.8024864
  17.3162556  21.5707946  52.0522213   0.5198517  48.2542896  15.9901714
   0.8677436  47.4034357  15.7232451  -0.2420957  48.0429649  16.5296233
  33.4671187  33.9447474  60.8084869  33.5912085  33.3956456  60.0343275
  32.6166224  34.3622494  60.6721735  25.2692389   6.5292442  80.4949951
  24.7682071   6.1631900  81.2238312  25.6751966   5.7693565  80.0778580
  98.9164366  29.2867136  67.4812984  98.3431556  28.8005519  66.8886518
  98.3228471  29.6739554  68.1246662  22.0003390  49.7255421  44.1382217
  22.9315114  49.5503569  44.0023422  21.9678974  50.2325249  44.9494839
  56.9459499 105.8023505   9.4073981  56.0199393 105.5713563   9.3340701
  57.3763574 105.2856641   8.7262076  38.5307407  14.0289843  31.3630295
  38.7537169  13.5948050  30.5396199  38.5103440  14.9607146  31.1446381
  20.9913445  29.0329170  58.3171320  21.2826228  29.7479129  58.8829660
  21.7494154  28.8400388  57.7654409  42.0350885  30.3179288  12.6068532
  41.9377661  31.0879922  13.1669998  41.1516476  30.1453733  12.2812927
  46.8294096  37.5684810  63.2213640  46.2748480  37.6831293  62.4496460
  46.4655828  36.8029618  63.6661577  36.1874437  19.8333478  32.3645568
  35.4065347  20.3687739  32.5050259  35.9153795  18.9464700  32.6004791
  12.8626502  29.2399549  35.0673056  12.4883008  28.8264465  34.2894197
  12.4788463  28.7605786  35.8015561   7.2777969  29.4973087  50.4442072
   6.9909257  29.8362422  49.5962334   6.4661080  29.3432784  50.9276009
   8.0238348  13.5966516  74.8877192   8.0766207  14.4822490  75.2471161
   7.6350915  13.0757737  75.5904293   4.6188605  33.8298798  44.8062468
   4.8901999  34.6757817  44.4498014   5.4144567  33.4681606  45.1966572
  33.6341143   2.0436804  64.9190426  33.3876538   1.1218780  64.9950027
  33.0982304   2.3763369  64.1990423   6.7355406  31.5815258  39.6765304
   7.5523001  31.2996554  40.0884581   6.1003464  31.6004276  40.3923559
  28.7136197  31.7801976  68.6133862  28.2021523  31.5867829  67.8277493
  28.6227417  32.7257133  68.7315893  44.8254156  34.0427852  29.9129009
  44.0349007  34.3103838  29.4441724  44.6029902  34.1490698  30.8378148
   0.7571363  17.3458159  70.3469515  -0.1217500  17.0345783  70.5635691
   1.2240376  16.5621424  70.0569677  35.1987648  47.9833460  69.6414757
  35.3499222  47.5570869  68.7978601  34.3011546  48.3112669  69.5867109
   1.1389948  48.0747032  32.2400618   0.2179272  48.3335447  32.2106385
   1.6109368  48.8279819  31.8849921  96.6547718  43.0513430  53.9513063
  96.1785736  42.3500395  53.5067415  96.3364782  43.0224180  54.8535728
 100.5166938  54.2506266  46.8247128 100.8697190  53.3610725  46.8074465
 100.3859331  54.4384193  47.7541590  14.6186054  33.4419799  32.5457883
  14.5131528  34.3892121  32.4571013  15.1143479  33.1824255  31.7691922
  10.0968695  15.0277925  62.7802896   9.1631573  15.1323509  62.5973082
  10.1382315  14.3096495  63.4117889  44.8113060  36.8982267  67.9989910
  44.7626019  35.9528589  67.8570795  43.9205647  37.1500421  68.2427120
 108.6726304  64.0743494  76.3292122 109.1376062  63.9262676  77.1526814
 108.3947553  63.2017136  76.0507870  25.0407791   6.3200295  48.3586359
  24.5271039   7.0816439  48.6275482  24.4207263   5.7697666  47.8801203
  25.1446819  35.7038856  82.3108768  25.9248638  35.2627659  81.9747829
  25.3945518  35.9981966  83.1867599  41.9783831  53.3612871  45.9023380
  41.5369940  54.0034723  45.3464603  41.8281364  52.5229216  45.4655361
  43.1790447  35.8140039  49.8038864  43.1395721  36.6561294  49.3505669
  43.8839102  35.9188199  50.4429626  44.8461199  32.1824360  50.0142813
  45.7807446  32.2389293  49.8154974  44.8101950  32.0536828  50.9621048
   8.4724885  58.0382252  53.6837244   8.9059973  58.3617592  52.8940201
   7.6142824  58.4620953  53.6765766  12.7646482  30.0267291  61.7747259
  13.4540045  29.9463987  62.4339437  13.0920601  30.6881452  61.1651659
  23.8006353  27.3976707  55.5232906  22.9825044  26.9260836  55.6797981
  24.4538045  26.9205284  56.0350895  24.6414614  22.6403379  37.6308370
  24.8169732  22.3022580  36.7526984  25.2106476  22.1263051  38.2035756
  54.2537332 106.8757095  41.5561438  53.4054638 107.0806005  41.1628294
  54.0382505 106.3747590  42.3428106   4.2382118  10.6631148  77.4030542
   4.4618008   9.7953510  77.0665646   3.4999183  10.5085731  77.9923534
  45.6465483  52.5171518  33.5431957  44.8820686  52.6838493  32.9918194
  45.9359980  51.6398954  33.2924533  24.4625807  23.1239939  55.8463669
  24.0261126  23.3693433  55.0305653  24.6329761  22.1865916  55.7543039
  27.5051260  51.3082647  30.9305453  27.3909640  50.6616402  30.2340698
  26.7637515  51.9048738  30.8273363  45.5130005   7.1654832  46.9628429
  46.2012339   7.7784514  46.7043209  45.2622938   6.7294723  46.1484289
 115.3931140  64.1840649  79.0671730 115.4819754  64.2959785  80.0136471
 116.2888178  64.0521717  78.7564468  29.7722435  56.0155869  61.6900015
  29.7329974  56.5514755  60.8978462  29.4727230  56.5978861  62.3881769
  28.6521745  68.4744930  76.9465494  29.2384243  67.9083729  77.4485970
  28.8574576  69.3594599  77.2480917  26.5337491  19.9075913  62.3439264
  27.3328567  20.4281259  62.2620535  25.8953619  20.5077887  62.7292252
   4.0218937  59.5170784  29.1572523   4.3009216  59.9416924  29.9684739
   4.2521179  58.5958147  29.2776680  28.4918618  67.2324324  82.8742790
  28.0046916  67.5623894  82.1192741  28.9271784  68.0049896  83.2346725
  24.7921944  33.1112933  77.3900747  24.2951560  33.4232283  78.1463003
  24.4839191  32.2153926  77.2538376  41.9611263  35.5882144  56.1464024
  42.4303102  36.3981771  55.9462500  41.3837719  35.4538894  55.3948355
  42.4749470  54.0142441  61.6313171  41.6852283  54.5117092  61.8436909
  42.4121475  53.2244062  62.1683836  44.5846176  55.1032782  37.9828167
  44.4807673  54.4524193  38.6769581  45.4982996  55.0190067  37.7102137
  18.2653081  45.2514601  55.2765703  18.2136345  44.2980766  55.2085829
  18.0045021  45.5677509  54.4116020  34.8388314  20.2323794  36.2496495
  35.5863452  19.7977686  35.8390784  35.1897120  21.0650897  36.5654159
  44.5527029  26.9126368  65.9406471  45.4316473  26.9647837  66.3161087
  44.1446495  27.7477717  66.1692858  52.5926733  25.0188923  38.4951448
  52.5541162  25.6007028  37.7360392  52.2681952  25.5511212  39.2215610
  13.1873690 104.6620207  60.9565067  13.1810032 105.1527628  60.1347017
  13.9710270 104.9687769  61.4125919  42.7041769  45.1115990  32.0573020
  41.9521093  45.6979513  31.9747043  43.4638262  45.6732655  31.9033742
  23.2148623  25.0078344  85.8260632  22.8733182  25.8061743  85.4232883
  23.8537121  24.6757531  85.1953316  18.2696164  64.8874044  63.8990736
  17.4341893  64.6587753  64.3065310  18.8323784  64.1313219  64.0660143
  22.1239972  48.6583805  51.5640497  21.7472482  48.5230207  50.6945848
  22.3269367  47.7768517  51.8770313  99.7190441  81.7747002  12.5202292
  99.9984087  80.8737664  12.6830214 100.3707851  82.3125200  12.9699153
  48.6932659  57.7239609  44.9370098  48.8375902  58.1653738  44.1000175
  47.8565645  57.2719240  44.8282528  82.6389599  18.1445777  43.1311941
  83.0909443  17.9813552  42.3033667  81.7109108  18.1640351  42.8976011
  24.7507167  43.3634520  70.4751492  24.8831749  42.6890421  71.1413717
  23.8749266  43.1902790  70.1298475 100.9840036 103.5699504  46.2227058
 100.8844686 102.8496211  45.6002474 101.8877603 103.8633215  46.1070013
  49.5409536  49.2759514  59.4725704  49.9849176  49.7719860  58.7847614
  49.4290352  49.9037600  60.1864100  24.8755336  38.2131577  72.0362759
  24.0649724  37.8345180  72.3766518  25.5184579  37.5077629  72.1090746
  21.9677401  42.3524857  71.9459057  22.1393633  42.4445105  72.8830862
  22.0097518  43.2462502  71.6058207 111.9337451  48.1569767  65.3545046
 111.4278366  47.8947592  66.1236143 112.3351260  47.3454571  65.0437641
  36.1495709  52.7137136  52.5924349  35.3579903  53.2508230  52.6262999
  35.8711648  51.8562746  52.9141760  34.7701430  37.8226829  66.0272646
  34.3658566  37.3962116  65.2716827  35.6011939  37.3627138  66.1456394
  99.5944132  29.3558836  50.3777075  99.7439220  28.5813427  50.9198952
 100.4664340  29.7279763  50.2459574  17.2961164  66.8089914  66.9834757
  18.2227337  66.6313457  66.8220615  17.2767603  67.7128601  67.2979259
  52.0395422  47.8818226  57.0215034  52.8584051  47.9528093  56.5309334
  51.7749691  48.7882566  57.1783829  37.5912547  36.5333939  70.8815622
  36.6444874  36.4595985  70.7614899  37.6973009  36.7882133  71.7981100
  23.4826350  49.6086693  61.4883280  22.8276396  49.1615057  60.9523630
  23.6863780  50.4069710  61.0010529 109.4105436  47.1561384  90.6275463
 109.9300857  47.3111153  91.4164066 108.8955452  46.3749886  90.8295631
  31.1966109  58.8496399  90.4490280  30.4899931  58.2117414  90.3490067
  31.9302058  58.3420134  90.7959938  31.4287138  40.0942755  86.8627262
  30.9389257  40.7961702  86.4341450  31.9642472  40.5414820  87.5180435
   1.0710235  55.3346634  83.0704975   1.3582754  55.2388144  82.1624565
   0.3454757  55.9575462  83.0276966  43.0102062  57.8005314  78.7464333
  42.7142239  58.2501221  77.9549217  42.2478151  57.2998428  79.0367794
   7.7912986  28.2283068  57.1984243   8.6763215  28.2307172  56.8337822
   7.8052956  27.5333810  57.8565359  30.3211069  16.9167316  60.0274086
  30.1063108  16.1316478  60.5311346  29.8663139  16.7981577  59.1935444
  41.2649584  41.3407898  28.1093431  42.0755434  41.7711353  27.8373265
  41.5405703  40.4700804  28.3959341  31.0202050  47.5555658  31.5561128
  31.6362834  48.0201340  32.1225524  31.0807920  48.0077362  30.7146239
  22.8303647  25.3361654  51.2182045  23.7869120  25.3406119  51.1831379
  22.5731850  26.1804867  50.8477831  39.7702098  53.0429602  28.7425256
  40.4227448  52.3462391  28.6717534  40.2815723  53.8520479  28.7316680
  83.5001088 102.0555311  52.0367050  83.8824023 102.8994029  51.7959499
  83.4041960 101.5902256  51.2057257  22.2191286  40.7571077  46.0879087
  22.9707789  40.7137537  46.6789865  22.3440313  40.0223207  45.4873133
  34.8575068  45.7444286  27.6430464  34.4252181  45.5900192  28.4829950
  35.7836127  45.8417273  27.8646159  36.1533761  50.8131170  49.3390369
  36.3343024  49.8937178  49.5344782  35.2093315  50.8437157  49.1838837
  34.8185945  46.5680218  78.8548565  35.3314614  46.8078661  79.6266556
  34.8237300  45.6108379  78.8518572  24.8977780  55.9122372  36.8309736
  24.2191720  56.2678957  36.2571859  25.5391645  55.5275917  36.2335587
   8.9159608  29.2819524  72.0375633   8.6956221  29.9868774  72.6464653
   9.8413515  29.4203162  71.8357277  42.7314949   1.6068068  63.6439323
  43.1520796   2.4136758  63.9410877  43.4548712   1.0554549  63.3456516
  46.1522341  59.8541021  71.2639427  45.8562803  60.2591228  72.0791769
  46.3682652  60.5924225  70.6943417  29.3594813  30.9498239  31.7889786
  29.1434932  30.3165507  32.4734831  29.7035265  31.7068934  32.2630143
  23.0445433  47.9399824  57.0444393  23.9026141  47.6700592  56.7172003
  23.1508541  48.8666534  57.2594213  29.8001051  27.4872041  83.6635303
  29.7006273  26.9501400  82.8774643  29.4853973  26.9302344  84.3755531
  44.3079138  37.1738315  46.3344383  44.6851063  37.4641514  45.5039740
  43.4527445  36.8154454  46.0968018  33.9719152  21.5961027  54.9327803
  34.0432954  22.3026371  54.2909527  33.8083744  22.0427322  55.7634497
  44.4685030  54.8433447  70.3045464  44.3578005  55.6968069  70.7235718
  44.5243740  54.2244911  71.0326433  17.0013952  35.3870988   2.0088010
  17.3586869  35.2200723   1.1366330  16.9440985  34.5217466   2.4139121
  51.8035984 108.2282013  84.7791415  52.3247814 108.5698599  84.0525979
  52.0199823 108.7974686  85.5176157 104.5618429  21.4633083  59.2178679
 104.0747347  22.2408199  59.4906950 105.2988555  21.4164901  59.8268461
  24.0194082  38.9068103  92.1013927  23.8809824  38.3083892  91.3672543
  24.9576330  39.0955496  92.0829201  57.0927715  32.8830791  67.8491354
  57.8511238  32.3038745  67.9243422  57.3935890  33.7190175  68.2054329
  58.6728191  27.9797077  59.9044847  58.6601782  28.9326239  59.8149252
  58.6262846  27.6540184  59.0056038  43.1185246  49.5835304  62.1524334
  43.2346773  50.2755117  62.8035116  42.2789621  49.7829247  61.7381716
  34.5629835  56.0229874  60.8968115  34.4632792  56.9114876  60.5549622
  33.8047171  55.8995533  61.4678001  27.3129749  55.9628105  73.6566734
  26.7482114  55.4125643  74.1993570  27.7838516  56.5132666  74.2823792
 112.9251476  39.5517039  65.7533121 113.6474334  38.9865422  66.0274076
 112.1366187  39.0777993  66.0176373  27.1102667  74.7784662  60.6592751
  26.7367005  74.0908813  60.1079988  27.9266977  75.0193262  60.2214861
  24.8108792  52.5065947  63.7498283  24.3139768  52.3236322  62.9524279
  24.1900587  52.3472595  64.4607639  35.4532075  21.0762286  78.7270594
  35.2216840  20.2902007  78.2322979  34.6457767  21.5896821  78.7525511
   8.0391473  71.6489649  70.9024477   7.1398306  71.4707184  71.1775637
   7.9476303  72.1092510  70.0681829  27.3304653  36.5600657  74.8887825
  27.6196694  36.4956784  75.7989740  26.4042473  36.3198495  74.9142027
  24.6105480  39.6586132  47.1506977  25.4766059  39.8693991  47.4996185
  24.1928720  39.1439462  47.8412724  44.2425251  29.9385071  43.4596014
  45.0127506  29.9478340  42.8913593  44.5208359  30.4046440  44.2479515
   5.9705478  46.7619085  61.3438654   5.6926298  47.5215435  60.8320522
   6.3718414  46.1750698  60.7029200  51.9727516  36.8280983  58.3455420
  51.3924789  36.2146854  58.7963676  51.9888020  36.5205765  57.4392319
  28.1988263  32.5737882  50.1122475  28.6694598  33.1767821  49.5368052
  27.3691392  33.0149937  50.2944183   2.1522249  24.1112328  53.4277630
   1.8275228  23.7320805  54.2444944   1.4311942  23.9989805  52.8082895
  15.6563759  38.5130811  46.9751978  16.5322578  38.8099766  46.7283869
  15.6290185  37.5956774  46.7034340  42.1442747  20.0984931  41.5712833
  42.6133442  20.7171583  42.1311569  41.4995623  19.6924174  42.1506643
  25.4094791  55.2912474  49.8815441  25.7286358  56.0566664  49.4035196
  25.8870006  55.3105688  50.7109022  23.4012818  29.3060088  46.7847681
  23.4192538  28.8194013  45.9606743  23.7086749  28.6792970  47.4397278
  42.4182367   4.0410891  43.2022572  42.1798038   3.1246445  43.3419323
  42.1848917   4.2129239  42.2899771  37.0361662  32.3905182  85.4518223
  37.0293808  31.9418812  84.6062946  37.9338980  32.2908568  85.7686424
   8.1892931  61.0246801  53.7128019   7.4888802  61.5874577  53.3827448
   8.9945489  61.5013361  53.5113144  28.4490371  42.7576733  53.3862591
  29.1238332  43.3787727  53.1121922  28.7051916  41.9303703  52.9785967
  51.8230200  45.2352953  59.1544819  52.5930262  44.9308634  58.6742258
  51.6560411  46.1119795  58.8084078  52.4968719  37.4084830  61.9964552
  52.4958420  37.7083445  61.0874367  51.5796328  37.4572229  62.2657776
  16.5784752  47.9004240  60.3127384  15.9676754  47.4300766  59.7453499
  16.5237391  47.4452782  61.1530209  43.5596371  18.6828494  39.8689032
  43.3404732  19.1242039  39.0482903  43.1059265  19.1898966  40.5421638
  35.1357841  40.5241251  73.6858559  35.9172130  41.0254240  73.9188910
  35.3703117  40.0800037  72.8710032  85.9158481  79.8352270  15.0062293
  85.3682722  79.3488531  14.3899268  85.8880914  80.7383184  14.6901816
  42.3570538  27.2568059  41.3173771  41.7724466  26.8554950  40.6744051
  41.9905663  27.0042372  42.1648026  28.4865355  37.5901771  26.7009521
  28.7632656  37.1642733  27.5122833  28.8694692  38.4661984  26.7476296
   3.1462783  11.0553956  52.6186180   3.2206538  11.9211662  53.0200386
   2.2196743  10.9750950  52.3923683   7.3240221  14.4947326  33.9100289
   7.3903781  13.5955811  33.5885382   7.0240444  14.4041836  34.8144865
  40.1996183  58.6392117  78.0026579  39.3968034  58.9991045  78.3797503
  40.6185007  59.3856192  77.5741148 110.0652274  63.8682890  67.9549599
 110.9604522  64.1207170  67.7289391 109.7613688  63.3627129  67.2011089
  30.7803226  37.1228433  71.3232088  30.8258080  36.8822336  72.2485590
  31.1156535  36.3555598  70.8594608  35.4786611  47.2930241  19.3984246
  35.0664330  46.4755392  19.1191030  35.3277111  47.3268270  20.3430414
  17.1880543  53.0448484  66.2482977  17.3277938  52.4270201  65.5306673
  16.6265631  52.5737906  66.8639803  18.7404597  18.2787788  54.6511126
  18.7517941  17.3311317  54.5166922  19.5611811  18.5852277  54.2654514
 103.9916601  39.7875953  55.2051020 103.3599403  39.3118715  55.7444048
 104.4302466  39.1075277  54.6938467  30.6722975  37.4492049  87.3721600
  30.8197355  38.3689904  87.1519566  30.8576846  37.3946762  88.3096504
  73.8015938  17.2593176  62.7115011  73.4492588  17.0071828  61.8579674
  73.5360146  18.1725168  62.8199768  38.5218048  57.5054121  72.8054619
  38.2533407  58.4241867  72.8025150  38.0205321  57.1117020  73.5195684
  28.3238316  23.5892797  57.6762676  28.4542632  24.5375204  57.6686430
  29.1796732  23.2316828  57.9126835  28.0561876  18.2650101  72.8332424
  28.6074996  18.2495546  73.6155796  28.1005597  19.1707516  72.5268221
  55.9818935  54.9297714  24.5207953  55.8014870  54.1919422  23.9383030
  55.2230120  54.9663925  25.1030254  18.8838339  20.9306097  74.1879845
  18.9914978  21.5818524  73.4947872  19.7491527  20.5314445  74.2781067
  45.4612637  34.5170498  53.8626337  46.3407803  34.8827219  53.7679482
  45.4292536  34.2008734  54.7655392  16.9027543   0.1120710  35.6588006
  16.2250769   0.6516269  36.0660648  16.9228268  -0.6861206  36.1867404
  57.0660019  39.8027015  47.1334362  56.7509127  39.6071625  48.0158854
  57.4495220  38.9804578  46.8283796  35.5929255  52.8211212  12.7985883
  35.2360082  52.5440216  11.9547522  35.9487510  53.6941767  12.6330829
 108.4206261  50.4358006  71.0103083 108.9888914  49.8045301  70.5689478
 108.6206516  51.2724924  70.5905819  32.3129916  30.4306579  53.3157349
  33.1202221  30.4957843  52.8054667  31.7571259  29.8378062  52.8099966
  25.2161908  54.8647165  91.9090557  25.0374699  54.9008417  90.9693813
  26.1265516  54.5750380  91.9687462  68.7427044   2.6704994  69.1722202
  69.6573162   2.4165539  69.0488052  68.6824179   3.5440597  68.7855816
  49.7999096  37.2457385  35.6601596  49.0354347  37.4826527  35.1351047
  49.5574093  36.4187551  36.0767245  47.4770641  45.7748461  55.0954676
  48.2411814  46.0291767  55.6128359  47.5636911  44.8274136  54.9901390
  17.0926416  36.3430405  32.6594043  16.5928149  37.0543098  32.2587776
  17.6136947  35.9827018  31.9418430  44.6881008  60.9178305  85.4281044
  44.5255709  60.5468464  84.5608234  45.2814579  60.2948666  85.8477211
  77.6222950   2.1172815   4.8143405  77.3888927   2.1452718   5.7422275
  77.3787727   2.9804855   4.4799632  41.6183281  55.5678415  64.6162319
  41.2868023  55.2661514  65.4619932  42.4036312  55.0417662  64.4653320
  18.4610522  32.0914197  74.8905039  19.2824256  32.0119858  75.3755474
  18.2936561  33.0332208  74.8555565  61.1828436  81.6124492   2.8881473
  61.8557252  81.7228417   3.5599154  60.3638781  81.8357186   3.3304996
  39.1935635  32.5658011  55.6363821  38.7510228  31.8440461  55.1897717
  40.1254463  32.4010587  55.4925585  56.3207091 102.6870589   0.5408973
  56.9288124 102.6354556   1.2783164  55.4606177 102.7951722   0.9468383
  37.7695251  35.4298997  90.8213043  38.2879782  35.8337903  91.5172291
  36.8664384  35.4823542  91.1342144  23.7796402 104.4643497  60.1410151
  22.8755665 104.4575119  60.4553986  24.0747213 103.5592365  60.2406359
 109.8641457  67.8700066  90.1146603 109.2167666  67.2577095  90.4642677
 110.6726964  67.6551008  90.5797291  21.8660045  66.1682892  32.9658532
  21.5864182  66.7150307  32.2315931  21.2434316  66.3690758  33.6646533
  45.4199600  52.3980331  39.1905761  45.9091425  51.5924835  39.3579841
  45.6700659  52.6497650  38.3015823  56.8006086  19.7868431  14.6614575
  57.2480059  19.3481934  15.3850973  56.8265915  19.1532028  13.9444804
  31.1398029  40.8798409  49.8725080  31.8884563  41.4373779  49.6606016
  30.4380012  41.1944199  49.3026400  48.0738783  28.4302640  62.9865026
  48.4076500  28.8479853  63.7804413  48.8142109  27.9232049  62.6532888
  48.9011717  49.5745420  54.9231052  48.2853460  49.5903301  55.6557322
  49.7637749  49.6319771  55.3340244 115.2488329  41.7413330  49.2057228
 116.1379018  41.6893768  49.5565605 115.3333138  42.2780323  48.4176588
  34.2699456  24.6341372  60.0696659  33.6202669  24.0743327  60.4948330
  34.9922657  24.0433884  59.8563623  52.7191162  50.9050465  61.8042040
  52.1075392  50.2248430  62.0862103  52.1841145  51.6960955  61.7390299
  45.2848005  47.2002268  55.8493948  44.8923779  46.6766787  56.5480566
  46.0314178  46.6806841  55.5512905  99.0932586   0.6074672   7.5482196
  99.4785693   0.6364971   8.4239596  98.2164838   0.9748846   7.6600188
   4.8235804  40.6306505  58.8979483   5.1669759  40.1965666  58.1169987
   3.8727170  40.5913258  58.7952662  14.5059359  31.2916827  36.2161827
  15.4473889  31.3177848  36.0452580  14.1745210  30.6128025  35.6283760
  19.1520941  83.5272217  75.0532532  19.2929566  82.6082134  75.2809095
  18.5994732  83.8664055  75.7573795  30.9182262  19.8696268  65.4791069
  30.0515151  19.9390233  65.8793926  30.8896494  19.0492857  64.9867058
  47.8212309  15.6412458  76.6957903  47.4127436  15.7960784  77.5474882
  48.4751940  14.9627185  76.8636084 106.4760443  47.4920321  66.3106489
 107.0317813  48.0228662  65.7400322 106.4545145  46.6318703  65.8912611
  23.0985832   1.2834850  45.9319592  22.5812864   1.3030604  46.7370987
  22.5403309   1.7045736  45.2783012  14.2901099  49.0972137  61.5431595
  14.1299236  48.3682489  60.9438419  13.9082670  49.8569775  61.1036301
  24.1697764  58.9137030  36.3388753  23.3779073  58.7286997  36.8438005
  24.8853993  58.7936354  36.9631338  41.9748878  43.5922956  66.9305992
  41.3939762  43.1197309  66.3344002  42.7489519  43.7907267  66.4036417
  26.3849640  36.0144377  89.2309952  26.6509056  36.3259411  90.0961304
  26.5447831  36.7576051  88.6492825  40.2693510  88.5795975  71.5395260
  39.7905898  88.5844612  70.7106733  39.6601057  88.1885624  72.1657372
  20.4757547  21.8667746  48.8428497  20.8126974  22.7588391  48.9260387
  20.5796599  21.4890838  49.7162294  79.4480861  63.5868262   4.5986003
  80.3611244  63.8740300   4.6090621  79.2345060  63.5014139   3.6694449
  36.7113018  37.2762990  32.2487020  37.4282598  37.3969769  31.6260958
  36.0797596  37.9589343  32.0219946  58.3716154  38.0050445  44.9847412
  58.3245182  38.6069989  44.2420006  57.5012827  37.6089072  45.0275517
  47.0658302  34.4037938  74.0152073  47.1298218  35.3234291  74.2729044
  46.6792107  33.9684939  74.7749901  18.1069267  41.3289928  52.4218035
  17.2256994  41.1428785  52.0977163  18.4479189  41.9918633  51.8213415
  44.1868448  49.4923687  46.7708969  44.2353249  50.1243496  46.0536242
  43.2502699  49.3993568  46.9452763  41.5963125  37.7893233  62.9480886
  41.6834021  36.8924117  63.2708883  42.4041080  38.2225800  63.2237387
  37.0457172  41.8253899  52.5133038  37.4965668  42.2355413  53.2513714
  36.1688328  42.2090101  52.5251436  52.8908873  43.5064411  34.6541643
  52.5604963  42.6092958  34.7010493  53.8303614  43.4079218  34.4995165
 113.8741030  15.7559967  40.6732368 113.6551317  16.6876721  40.6895065
 114.7325679  15.7190526  40.2514505  29.8897958  69.7918129  65.8271170
  29.9871707  70.5954981  66.3378382  29.0348721  69.8781490  65.4053545
  28.9779854   7.8009176  27.2993731  28.7842965   6.9643086  27.7222228
  28.1561446   8.2893199  27.3470497  10.5793774  24.2955470  69.4911718
  10.1731789  23.4606242  69.7238445   9.8575914  24.8282385  69.1572571
  40.5450821  56.4073563  79.4201279  39.7329092  56.3180923  79.9187660
  40.5291224  57.3076916  79.0955257  43.1180000  93.0337238  50.6686926
  43.6200523  93.8176918  50.4460716  43.3137655  92.4158955  49.9642801
  30.3663945  56.7674494  74.1900778  30.6024528  56.1535835  74.8855495
  30.2116323  56.2140894  73.4245253  48.9317846  50.9661531  68.2390881
  49.7627449  50.6423378  68.5867691  48.2797956  50.6948376  68.8852549
  36.1075330  52.5199223  61.0533667  35.7830524  53.1168556  60.3791189
  37.0097470  52.8001690  61.2073183  41.8674803  48.2246971  41.0941505
  42.2967577  48.5901880  40.3206062  42.4326277  48.4782028  41.8239260
  68.3443308  74.4365549  51.6532087  68.8718128  74.0958595  52.3756504
  67.5005865  74.6490955  52.0521498  40.9741735  62.1219540  60.1592731
  40.2463198  62.7426291  60.1243258  41.2158108  62.0880556  61.0848475
  47.7039385  47.3042679  59.7109890  47.3862171  47.4122810  60.6074333
  48.3646107  47.9890347  59.6068907  18.4823287  45.1691246  58.0764627
  18.5059559  44.3174934  58.5128021  18.5458457  44.9623489  57.1440220
  30.4415393   0.0295845  49.7289515  30.6457758  -0.0094802  48.7946081
  29.5839238   0.4528002  49.7691631  39.2624259  52.0078850  54.6942568
  39.3164635  52.7271557  54.0650034  38.8875198  51.2815475  54.1961527
  38.6747384  33.5300159  64.0197897  38.9512062  33.5312319  64.9361944
  37.7398849  33.7331986  64.0513802  26.7598724  51.2927485  58.0818748
  26.1719918  51.8060350  58.6361027  27.5441694  51.8350220  57.9979229
  40.9054184  78.5132122  62.8119135  41.0855055  77.6162100  63.0933237
  39.9606037  78.6151171  62.9266834  47.2859240  52.7601242  52.3088026
  47.2830534  53.6936426  52.0972204  47.5402260  52.7243090  53.2309103
  34.2606950  46.6717196  67.1204853  34.9216509  46.9619083  66.4918661
  33.5441685  46.3406706  66.5789795  29.5016146  38.1017280  30.9085512
  29.6565628  37.7249265  30.0423837  29.9555016  38.9442205  30.8879280
  63.0094624  78.5928965  81.6521168  62.7514553  79.2136335  80.9706879
  63.0828905  77.7541685  81.1967373  38.5610437  98.8243294  57.2744083
  38.5567927  98.9596653  58.2219791  38.9735031  99.6128082  56.9216919
  35.2005506  56.2882185  88.9779758  34.7679758  55.8607483  88.2388020
  35.7528615  55.6058645  89.3595219  29.3933415  59.0346909  78.8096046
  28.5359859  59.4469976  78.7038708  29.7421551  58.9758921  77.9201651
  57.0349503  88.1814957  64.4740725  57.7317047  88.2875633  65.1217747
  57.4815989  87.8544044  63.6932039  35.2450895  36.1560726  53.2114363
  35.1637197  35.9509444  52.2800207  36.1705184  36.0113597  53.4085989
  65.6045771  43.0346298  49.8344994  66.3743830  43.4316683  49.4270754
  65.8793974  42.8448963  50.7315540  22.8806853  53.5008860  66.0598421
  22.0968986  53.9947748  66.3006496  22.8096247  52.6835203  66.5528965
  35.4345703  51.2531233  69.9789858  35.7770181  51.9158697  69.3792105
  34.8647738  51.7402649  70.5741835  43.9846992  64.0681982  67.3545074
  43.9886904  64.0259266  68.3107615  44.1086197  64.9961948  67.1552610
  15.0935602  71.0887289  69.0295887  15.1064277  71.5907526  69.8444796
  14.3109763  70.5417633  69.0975714  35.8529758  92.3156357  64.8923492
  36.1909103  92.2640896  63.9982700  35.4029417  93.1595993  64.9300194
  34.3765211  48.5943079  49.5179605  34.3292689  47.7779388  49.0204287
  34.7327709  48.3363867  50.3681326   5.8647352  49.2278528  88.8800621
   6.5522045  49.8886442  88.9635658   6.2207508  48.5884762  88.2630730
  49.4584990  46.7744017  56.5591621  50.3635979  47.0800972  56.4993525
  49.0091181  47.4534225  57.0623779  41.0730791  46.6460133  47.2209978
  40.9783506  47.0951653  48.0609512  40.2819443  46.1127138  47.1440029
  32.7156615  42.0913029  60.5544424  32.1682763  41.3087368  60.4896593
  33.6104393  41.7667866  60.4529762   8.1489736  49.0132093  84.7847557
   7.9379582  49.2169189  85.6959152   8.9918661  48.5617876  84.8292732
  28.6137629  73.1636524  85.7265186  29.3817568  73.5928917  85.3494644
  27.8731322  73.5306597  85.2438164 108.1143774  95.5292993   0.4879588
 108.3732952  94.8656802  -0.1514226 107.5872387  96.1517339  -0.0129777
  54.3177319  37.9503918  58.3116055  54.1146994  38.8846540  58.2650900
  53.4720898  37.5157285  58.2011652  52.1044445  89.6463299  55.0042629
  52.9143381  89.5992279  55.5122805  52.2894001  89.1428757  54.2114401
  55.4367208  42.3406458  28.7605715  55.1092577  41.8387079  28.0142117
  55.2304792  41.7991018  29.5224285 106.4780522 108.0571204  74.0713501
 106.7932559 108.0584579  73.1675386 105.7257129 108.6488608  74.0635109
  54.4715166  65.5381918  57.8155041  54.4913340  64.6549416  57.4471140
  54.8003674  65.4327917  58.7082386  87.0857620  62.4628830  65.9287548
  86.3583851  63.0668497  66.0783339  86.9445992  62.1330643  65.0413275
  80.3507913   8.9059973  49.5074320  80.7785762   8.6555911  50.3262901
  80.4919113   8.1593085  48.9253902  64.4308186  84.3457890  87.5953960
  64.6855736  84.5126057  88.5028648  65.2522182  84.3829632  87.1053314
  62.9109716  76.5079451  84.1338539  62.4006891  77.2831488  83.8995361
  63.5794783  76.4460278  83.4515762  62.8421974  82.7190685  57.0219135
  62.4255753  82.0067501  56.5368748  63.3241224  82.2812748  57.7235651
  32.8740954  80.2075291  69.4161177  33.5046268  80.8751965  69.1461611
  32.5162911  80.5356026  70.2410841  29.3443441  58.8472033  60.3802633
  29.1413236  59.6555662  60.8509731  29.7894311  59.1387177  59.5845556
  57.0163965  67.8781319  51.4922333  56.9512463  68.5503244  50.8138943
  56.1608458  67.4489069  51.4870501  56.3588858  64.4985199  62.0484543
  57.0987892  64.4354343  62.6524353  56.4079809  63.6985159  61.5251780
  52.1683502  86.8274593  52.1099281  52.1982241  86.1390686  52.7743530
  51.4602995  87.4050140  52.3951006  85.4198456  70.8491659  60.9070683
  85.5994892  71.7450523  61.1922932  84.7008038  70.9366655  60.2813196
  38.4964013  25.3660941  70.1771450  39.3243170  25.4541469  70.6494093
  37.9291534  24.8811388  70.7765436  92.5498260   5.5881644  48.5458231
  91.6465629   5.8723784  48.6857080  92.4798168   4.6526862  48.3555317
  54.2916346  77.0066547  70.7176399  54.7315216  77.6627254  71.2582922
  53.7807274  76.4877892  71.3389158  42.8963137  89.5490742  60.1205778
  43.6068249  89.2042255  59.5797682  42.9125118  89.0085983  60.9104204
  72.3936892  84.0953636  58.2971907  72.4880314  85.0474262  58.2667780
  71.5134001  83.9529037  58.6450672  83.7805653  73.4556627  75.9530640
  84.0780640  73.1141472  75.1098013  84.4860840  74.0360308  76.2387943
  30.7767868  73.9940643  84.2212391  30.5356932  74.8784018  83.9454556
  31.4166212  73.7061930  83.5701084  95.4135704  56.9572210  58.9980507
  95.1238537  57.7039623  59.5221376  94.8507309  56.2353611  59.2779970
  38.1845522  25.8874679  78.8492346  37.2665954  26.0862827  78.6646748
  38.3334923  25.0374866  78.4350109  80.1467718   6.4741469  65.9638834
  80.0649370   6.0664798  65.1017094  79.2438949   6.6090060  66.2517309
  62.2111940  56.5466690  56.8557644  62.1392965  57.4262190  57.2265148
  61.4873838  56.0604191  57.2505951  60.0514460 107.2204876  56.7549419
  59.3073559 106.8868637  56.2536907  60.8122110 107.0410156  56.2024355
  48.3353615 100.1486588  52.5532913  49.1412592 100.3998470  53.0045795
  48.4985638 100.3626823  51.6347122  37.3189878 101.2940216  60.9030581
  36.5358853 100.7538319  61.0087919  37.5384855 101.5741539  61.7916393
  29.7344661  84.6622944  78.5570621  30.1682258  84.4842815  79.3915653
  29.6087193  83.7988567  78.1634998  99.7709730  30.7573419   0.2222651
 100.1628234  29.8911958   0.3339213 100.0501730  31.2479883   0.9952754
  43.0858803  74.0737581  56.7970276  42.2433853  73.6210489  56.8356800
  43.5073185  73.8671112  57.6312447  63.2632923  91.8023109  75.4967213
  63.3051538  90.9241581  75.8753157  62.3361206  92.0366955  75.5373430
  40.1964426  75.9664059  68.9850760  40.9415770  75.3656340  68.9759302
  40.5495405  76.7805004  69.3439722  45.4469299  88.7812901  62.5869226
  45.6048870  89.7253132  62.5974560  45.6575489  88.4932804  63.4751320
  58.3753443  85.8648014  85.7701015  59.1709566  85.4178524  85.4811859
  58.4919262  86.7705917  85.4833984  54.5706177  77.9493523  62.1334887
  54.7059250  77.2895479  61.4533520  54.9370813  78.7527657  61.7640781
  12.3638487  69.3861008  69.1018105  11.9497108  69.8855305  68.3980370
  11.9162846  69.6760416  69.8966980  47.9952145  72.8756189  52.1773338
  47.8594828  71.9931078  52.5222778  48.1640244  73.4121656  52.9518366
  51.5913677  64.1623878  58.1335211  52.3744345  63.6119270  58.1273508
  51.5234756  64.4923401  57.2375536  49.7806406  61.0569239  64.4868183
  49.0997839  61.0290813  65.1590490  49.8653364  61.9853926  64.2700100
  56.9939947 100.8732224  74.7249699  57.0947409 100.3630638  73.9213371
  57.8888798 101.0978699  74.9798155  59.8561478  81.7766571  57.5620174
  60.5939531  81.7064285  58.1677771  60.1316357  81.2814236  56.7905998
  63.6047649  68.6014986  12.6316440  63.1376314  67.7971458  12.4057293
  63.9680624  68.9088058  11.8010974  70.7656384 104.9370861  43.5151768
  71.1591387 105.6248856  44.0521240  70.0069523 104.6438599  44.0198088
  53.5476494  56.7495728  55.5299950  53.6330986  55.8215141  55.7482672
  54.0088081  57.2047663  56.2345266  66.6258335  80.1932526  60.7941914
  65.9122038  80.1255608  60.1598549  66.2886572  79.7643661  61.5807009
  37.9650068  61.7808485  86.0621548  37.0388722  61.8782663  86.2835503
  37.9684782  61.5939665  85.1233864  14.7312045  46.9165802  83.9961338
  15.6454945  46.7931128  83.7410641  14.2822599  47.1357250  83.1796455
  53.9582872  59.0977955  57.1723747  53.9184618  59.8390770  56.5681028
  53.5907650  59.4348145  57.9894304  67.1918535  79.3448305  65.7428980
  68.1096649  79.5134068  65.5297518  67.1750402  79.2840433  66.6980171
  50.3249550  88.6298943  69.3467283  50.6799126  88.1975079  68.5700178
  51.0938263  88.9720249  69.8028135  44.1054869  98.6846638  73.8302374
  44.2293739  99.4161606  73.2254219  44.8886442  98.6935997  74.3805265
  50.7453775  91.3261414  14.5109534  51.6480637  91.0400772  14.3711019
  50.2548933  90.5149460  14.6436918  57.3125648  82.5335789  58.2029915
  58.2045507  82.1869564  58.2241297  56.7531633  81.7586994  58.2564306
  50.3526306  67.7861786  55.9403992  50.6152916  68.7060404  55.9734869
  51.1749554  67.2999716  56.0005665  59.4887161  95.0225544  87.9166889
  59.1433048  95.4889870  88.6778450  60.4225445  94.9216366  88.1011009
  74.4652414  73.5579348  54.4657660  74.8411417  73.7905216  55.3147840
  73.5188866  73.5939646  54.6048594  36.6220331  81.9327736  84.4358826
  35.9667516  81.9014549  85.1329136  37.4056745  82.2831345  84.8594093
 100.4397119  26.5015841  58.5278511  99.8902572  26.3505126  59.2969465
 100.1673092  27.3600722  58.2037735  24.6625543  99.5309067  35.1112413
  24.1179132  99.7071648  35.8784008  25.5165339  99.9018192  35.3334594
  35.1350741 101.4205317   4.3376941  35.2186714 101.0296731   5.2074546
  35.0573201 102.3600059   4.5037669  85.7201672  81.9937134  52.4099874
  85.9027100  81.6683388  53.2914877  86.3626194  82.6901150  52.2739220
  85.7511616  67.1895313  59.4467783  85.4727936  67.5091743  60.3050137
  85.4168034  66.2936068  59.4048738  95.5093397  14.0290404  79.3900967
  95.1411070  14.9017001  79.2518997  94.9975218  13.6647177  80.1122761
  73.6143923  64.0151739  58.6043930  72.8895617  63.5061455  58.2414293
  74.0379333  63.4208345  59.2237473  45.2798986  91.9780731  24.5161104
  44.3482065  91.8304729  24.6785712  45.6877089  91.9070721  25.3791761
  31.1489391  96.6654778  40.8017826  30.3073454  96.5476131  40.3612614
  31.3443494  95.8074856  41.1784554  31.7226005  86.3177872  64.9771214
  32.3374748  85.9791279  64.3263769  30.8939219  85.8849907  64.7716618
  52.7781725  65.7199955  64.6149683  53.2633400  66.1599922  63.9169359
  51.9892740  65.3884363  64.1860867  34.2265344  84.4293785  67.6709175
  33.2974768  84.4961834  67.4504185  34.6450663  84.1409683  66.8598175
  63.8812876  69.7221327  38.7516451  63.4215736  69.6897316  37.9126906
  63.8489008  70.6440639  39.0070510  86.3088226  88.0354214  82.7710629
  87.1071911  87.6597023  82.4000263  85.5980682  87.5586605  82.3423862
  89.2355061  67.7207851  35.9628987  88.7967968  68.4306002  35.4939318
  89.8246765  68.1648588  36.5727377 102.3671818  65.3897667  60.1776886
 102.5659657  66.2691593  60.4992247 103.1819630  65.0931168  59.7722769
  66.9509792  87.2429657  58.1218958  67.1077776  87.0769024  57.1923399
  66.6048479  86.4161873  58.4578466   3.4036230  19.6918631  49.9611330
   2.8758406  19.2995406  49.2656040   3.8893866  20.3929568  49.5266914
  64.4066954 101.8790054  50.6261349  63.5690641 101.4579964  50.8193779
  64.1740799 102.7756405  50.3849316  46.7580652 109.4028950  42.4335575
  45.9222174 108.9807796  42.6320982  47.3935843 108.9472294  42.9855728
  80.0560188 106.9847870  38.3301687  79.3870211 107.1576786  37.6677704
  79.5639324 106.6890144  39.0960670  33.5663080  58.5079575  70.5226088
  33.2770443  58.6813974  69.6267986  34.0883946  57.7085114  70.4551649
  17.4487948  99.1709328  69.6038055  17.4085295  99.6930408  68.8025475
  17.9590642  98.3983803  69.3608809  59.5142508  97.9339981  71.1150694
  59.1327524  97.0590973  71.1875200  60.4564333  97.7795410  71.0467339
  41.7803097 101.6908169  69.7403145  41.4899063 102.4403286  69.2205715
  42.4208927 101.2474632  69.1841459  31.1480367  35.3617101   6.1242789
  30.3540552  35.3440195   6.6586131  31.4827001  36.2531572   6.2220115
  50.7225990  67.5869465  73.0267048  50.2935505  67.9212284  72.2390461
  50.4409933  66.6738844  73.0836582 102.9595627   1.9593383  46.0768700
 103.2033600   2.5199366  46.8134356 102.3590673   2.4939872  45.5574560
  61.8074274  86.0608101  16.0066581  61.4558125  85.2490616  16.3722384
  62.6936817  85.8329010  15.7258713  41.2683725  86.6093636  48.6864948
  41.1951685  86.5849876  49.6405792  40.3947210  86.8591595  48.3855486
  30.1591921  64.3424511  94.2980194  29.4261360  63.7712669  94.0686512
  29.8186541  65.2289724  94.1782379  47.4444056  94.4888783  51.6577005
  47.6131773  94.0765667  52.5049019  47.7237034  95.3970814  51.7734480
  48.0391359 110.1251602  37.8741622  48.2394552 109.3502331  37.3491883
  47.3728657 109.8287296  38.4941983  54.1374111  62.8266191  57.4772787
  54.0912056  62.7461481  56.5245867  55.0720930  62.7745008  57.6769924
  48.4734011  57.8109932  62.1346140  49.1739225  58.2428265  61.6457129
  48.4975672  56.9020939  61.8353701  44.3731022  65.2554178  72.3506308
  45.0077248  64.5389557  72.3638153  44.7465611  65.9169245  72.9330111
  50.4111624  73.3970833  72.2882557  49.8670435  73.4918880  73.0700350
  50.6577063  74.2928600  72.0579672  64.9065685  73.9820671  58.7816858
  65.2137423  73.8793230  57.8809500  65.6807613  74.2657471  59.2678785
  44.0497637  72.7485991  58.9808464  44.7566175  73.0463552  59.5534992
  43.2791710  72.7175617  59.5478153  74.2290735  78.4128952  64.7804880
  74.7141552  79.1316652  65.1858187  73.7435770  78.8246822  64.0656757
  48.7655067 109.3145180  70.5220985  49.2950726 110.1097393  70.5805540
  49.0551567 108.7790298  71.2607431  68.1140661  78.7370825  47.0483780
  68.6019516  78.0165720  46.6495514  67.2308302  78.3891869  47.1712494
  42.4194050  69.5509338  53.5602713  41.5545416  69.2212439  53.8042784
  42.8896904  68.7791967  53.2448530  91.2239838  81.2993050  39.3285584
  90.4993057  81.1541367  38.7202811  91.7241669  82.0161629  38.9384818
  64.1249514  79.6190405  83.8846588  65.0704288  79.7660065  83.8581753
  63.8976955  79.3601513  82.9916000  54.0465117  87.4623394  47.7391529
  54.6689653  87.9313755  48.2948351  53.8984394  86.6325760  48.1928158
  62.3930883 106.5129852  55.5018616  63.3150721 106.2756824  55.6012058
  62.1108246 106.0517788  54.7120237  41.1103487  68.2127857  56.5689421
  41.6037941  68.7101507  57.2211456  40.7397032  68.8788223  55.9899378
 106.1417010   7.8898435   3.1177443 106.6440442   7.8984743   3.9324874
 106.1191656   6.9682699   2.8600043  82.9115486  79.2418385  78.8783884
  82.9779530  78.7256336  79.6817255  81.9766712  79.4270134  78.7892723
  39.6243620  64.4181108  74.6483612  39.8812914  65.3083658  74.8884964
  39.3597364  64.4844389  73.7308598 107.2968461  23.9157634   0.3261298
 106.5325644  23.9216428  -0.2501279 107.0160725  23.4137779   1.0912436
  46.4294434  97.0007515  61.6268873  46.6095114  97.9093552  61.3855171
  45.8943987  96.6635895  60.9083652  42.6567554  66.7052126  63.0504799
  42.8417397  65.8675146  63.4750700  43.3223438  67.3005581  63.3951378
  67.3838377  67.5336933  55.3849888  67.3162794  66.9014549  56.1004925
  67.4281454  68.3847761  55.8207941  55.1391649  82.8183937  62.8809309
  54.2314482  82.7297401  63.1714964  55.2402496  82.1495914  62.2036457
  44.1274248   6.3560433  90.3403774  44.2108237   6.1776061  91.2770930
  44.7112547   5.7226653  89.9229944  82.7757168  80.9786797  50.9923458
  83.3972454  81.7065716  50.9821844  82.8167439  80.6163311  50.1073313
  63.0783796  78.0933952  68.1273603  62.1415615  78.2648182  68.2233524
  63.3322334  78.5818005  67.3442554  71.7429018  62.0162106  58.5509157
  71.5221024  61.6832352  59.4207430  70.9877825  61.7885637  58.0085135
  74.3292570  76.6084576  58.6917543  74.2276049  77.4761963  59.0828133
  75.0608158  76.7047405  58.0820131  78.7437248  56.4057589  42.8016663
  79.3131351  56.3555002  43.5694456  78.9194584  57.2698736  42.4292994
  73.7436008  89.5045376  47.7186394  73.1655884  88.8505173  48.1115627
  74.6269321  89.1869545  47.9059696  39.0144515  66.9616270  75.4908514
  38.0821872  66.9021749  75.2820969  39.0416884  67.3943806  76.3442039
  60.8528662  73.9411354  87.2362804  60.1490307  74.5352840  86.9758320
  60.8706093  73.9951468  88.1917953  46.7911625  80.2229023  54.8683405
  46.7948866  80.4074669  53.9291096  46.1650467  79.5059204  54.9690533
  21.7717218  94.5480537  56.1436272  22.5313544  94.5895576  56.7245483
  21.4912963  93.6336136  56.1809969  61.2762547  84.1454601  59.3644714
  61.9034624  83.5024643  59.6952295  60.7246542  83.6517906  58.7576246
  47.7089357  84.8425961  71.8452406  48.1596804  84.0280533  71.6225767
  48.2204151  85.5256367  71.4115715  34.0124178  61.9900513  60.8952141
  34.0794110  62.6533461  60.2083492  33.4616613  62.3942995  61.5656471
   2.8651417   9.0184456   5.5910605   2.2871769   9.5305591   5.0254363
   2.6354492   8.1077200   5.4065150  85.7029629  75.7479811  36.3473487
  85.2961445  74.8999119  36.5248656  86.6396713  75.5949450  36.4714146
  48.2006836  74.5833731  62.6086521  48.3399296  74.4946718  61.6657972
  48.9168978  75.1451683  62.9047298  70.2294935  14.9327327  51.0764503
  70.9189666  14.5405627  50.5406713  69.4963278  14.3210936  51.0085630
  70.2951813  80.4131222  75.3874588  70.1417065  79.8200607  74.6519613
  71.2480402  80.4868412  75.4408836  60.9621048  75.9522867  15.3912246
  60.7347631  75.2014399  14.8427904  60.3445625  75.9112453  16.1214244
  68.5153198  68.8788271  64.7638130  69.2188358  68.8975000  65.4126167
  68.1954765  67.9768562  64.7832298  63.9113665  86.5702343  69.8839903
  63.0069351  86.7030430  70.1678848  63.8591337  85.8632946  69.2407656
  38.3689382   8.8208628  52.4500561  38.0504823   9.0109874  53.3324766
  38.8801553   9.5931674  52.2083330  76.9440985 100.5000496  67.9813337
  76.1294651 100.9723377  68.1532335  77.6315546 101.1535549  68.1100321
  29.7428870  61.1355114  91.4157963  30.3037858  61.3908148  92.1482182
  30.2011275  60.4007006  91.0079861  58.2013702  83.2876205  67.7019167
  57.6105404  82.9958534  67.0076418  58.7350416  82.5184059  67.9012394
  89.1107368  78.4417820  50.8409357  89.0451050  77.5315428  51.1297131
  88.2095146  78.7638903  50.8574963  93.8206959  84.5224094  44.8180819
  93.5550976  84.1597080  43.9730167  92.9994202  84.6489906  45.2931738
  72.0507431 103.7104416  56.4358950  72.1117401 103.5785866  55.4897833
  72.6724863 104.4145012  56.6201782  56.2012005 100.8397865  47.2664690
  55.9059525 101.6991043  47.5675344  56.0065222 100.2507210  47.9953957
 100.4374374   2.5220633  47.6930046 100.7496084   2.2190810  48.5456419
  99.8467697   1.8304587  47.3946238  90.3137840   5.8649588  67.4925900
  91.0626520   6.4563227  67.5682497  90.2587093   5.6666232  66.5577841
  48.3745718  66.9396830  60.9448385  48.4954643  66.9529390  61.8942833
  48.6704922  66.0694122  60.6778383  87.8356743  83.6049271  16.6502964
  87.2270107  84.1900444  16.1993003  87.2811604  82.9106426  17.0062542
  65.1907063  90.3715134  82.7914333  65.6616354  90.0640869  83.5659981
  64.6368027  89.6327877  82.5390244  79.0824795  70.2543259  44.4683075
  79.0475702  70.8499670  45.2167845  80.0054359  70.0101137  44.3993950
  24.8562455  78.2693195  67.3321104  25.6606770  78.7847424  67.3909569
  24.9224687  77.6392365  68.0496359  69.4450998  92.5552464  54.1109800
  70.4001427  92.4928379  54.0958977  69.2601442  93.4595871  53.8576031
  89.0563310  33.5449553  50.0117111  88.3656276  32.9532195  49.7133493
  89.7333635  32.9657412  50.3615189  85.3539562 106.6743279  62.0331764
  86.2458420 106.8470001  61.7315912  84.8701286 107.4720669  61.8192816
  98.3691311  78.7794352  64.5208836  99.2702579  78.8154745  64.8416615
  98.0353165  79.6680450  64.6440744  91.0739326  67.1841478  71.0104942
  91.1705589  67.9973078  71.5061331  91.9485092  67.0104551  70.6623983
 103.6464882  70.9527445  31.3097548 102.8609276  70.4556227  31.5378022
 103.5209084  71.8043709  31.7283154  56.1710644 109.3721485  77.0368671
  55.7622433 109.5062828  77.8919125  55.4889631 109.6032619  76.4063501
  32.0173025  86.1144257  34.7563767  32.5196576  85.3006935  34.7976685
  31.4230704  86.0673237  35.5053115  64.7042418 103.4770870  41.1843109
  65.1859140 102.7728462  40.7504129  64.0503120 103.0262470  41.7184973
  50.0576162  97.9574776  54.2912722  49.7905970  98.8220024  54.6035767
  49.9299479  97.3807621  55.0444841  64.4922066  78.9912891  43.5882616
  64.1882229  79.8247576  43.9476442  63.8352442  78.3549118  43.8705063
  51.4502478  82.4607182  73.9032793  50.5926228  82.3736095  74.3193626
  51.9769573  81.7621803  74.2916870  88.1253529  82.2612667  70.4009295
  88.7756443  81.6096115  70.6630230  87.3462486  82.0409775  70.9115267
  82.1769047  92.5369358  60.9830904  81.6256905  92.7932930  61.7224646
  81.5985775  92.5930119  60.2224207  72.3281574  73.0435228  43.9003992
  72.1268511  72.9332924  42.9711199  73.2843304  73.0684471  43.9370203
  24.9135065 102.4419212  72.9817820  25.2691674 101.5644455  72.8411388
  25.6661677 102.9636288  73.2602549  41.5992235   3.9046050  31.3049960
  41.2500643   4.3825103  32.0572758  40.8555483   3.3999015  30.9756899
  82.6138020  85.4953671  28.6308861  82.5605965  84.5679569  28.8617563
  81.7812157  85.6823921  28.1972361  95.7813358 109.8440742  48.7227488
  95.5077934 109.1382885  48.1368446  95.4629898 109.5765591  49.5849133
  71.3922548  70.9138966  70.4025555  71.7777538  70.8140230  71.2729836
  72.1331835  70.8339071  69.8018408  93.0731392  94.9168205  73.0800867
  93.4343052  95.6386757  73.5946035  93.3548641  94.1280270  73.5434008
  73.9731121  70.7839108  19.1663587  73.1651402  71.2577009  18.9690506
  74.0279579  70.7915020  20.1219559  63.0892801  71.1785936  52.4509382
  62.1378517  71.2310791  52.3600483  63.2656956  70.2480173  52.5892878
  69.3964005  76.6717815  68.9048100  68.9165449  76.1049652  68.3009100
  69.0644979  76.4346504  69.7707415  63.2506609 100.3903008  40.6267881
  63.6509895  99.6546650  40.1633215  63.0905104 100.0582600  41.5101528
  82.2796535  92.5922585  55.7752180  81.6417408  93.2689095  56.0020494
  82.0930672  91.8746185  56.3805246  63.8106966  89.5285416  72.9725361
  62.8720903  89.6780682  72.8589725  64.1458130  89.4226742  72.0821857
  77.7339840  68.0737734  45.9196472  77.5089359  68.9036131  45.4989862
  78.4898853  67.7531147  45.4276991  77.0904684  78.5117769  90.6581306
  77.3084068  78.9590454  89.8404026  77.2537470  77.5863838  90.4758549
  36.6490483  72.5648403  58.7058020  36.5277553  73.3848810  58.2272148
  35.9509349  72.5642109  59.3606853 110.6167698  64.2895794  86.2538815
 110.3137398  63.4094906  86.4771271 109.8432827  64.8433542  86.3601208
 107.4637474   1.7815352  60.2060604 107.2868074   1.0342360  59.6346903
 108.4065498   1.7422438  60.3667259  70.9985079   3.6025859  36.4185190
  71.3894905   3.9312220  37.2280645  70.0652231   3.5263491  36.6170144
  69.0167379  90.5224323  60.5524969  68.4584761  91.2306118  60.2314901
  69.7877359  90.5496407  59.9858761  17.5894904  88.9479446  37.0063424
  16.9916654  89.6769524  37.1718240  18.3705735  89.1577816  37.5183129
  47.6083326  80.4027557  69.3400574  47.6807213  80.2754498  70.2859879
  48.3042812  81.0248375  69.1281605  59.2510271  87.0245075  48.7333393
  59.0431547  86.8655396  47.8126049  59.5083189  87.9459286  48.7651587
  19.2076826 105.9338665  55.2573586  19.5248818 105.0317574  55.2999449
  18.9951408 106.0696793  54.3339872  66.1044216  94.5528507  93.1209564
  66.7624712  95.2071953  92.8863716  65.6042385  94.9592304  93.8287067
 111.7219223   7.8587390  33.7369633 110.7953943   8.0899001  33.6710954
 112.1408714   8.6455489  34.0857220  59.7087002  99.3190193  88.4262848
  58.7917566  99.4406319  88.1799889  60.0813484 100.2004433  88.4049702
  48.9395237  77.1126461  72.6733208  48.8594532  76.2833214  73.1445360
  49.5772600  77.6154184  73.1800222 100.5002022  92.0814228  30.1439762
 100.0919437  92.8064442  29.6707916 100.3056049  92.2565269  31.0646820
  51.4470482  64.6499681  69.6988773  51.4646339  64.8840523  68.7709093
  50.6086779  64.9867582  70.0150061  44.8729038  85.1653194  57.5376225
  45.4667234  84.5750713  58.0015373  44.0928888  85.2039909  58.0910778
  62.2355127  94.1701698  58.5301590  61.9325209  93.5231304  59.1671610
  61.4328051  94.5643711  58.1888533  79.1681385  67.0822906  74.7414970
  78.2557249  67.1025038  74.4528341  79.4415045  67.9996061  74.7358942
  64.5292234  85.5101967  63.0910158  64.7424984  86.2194538  62.4846315
  65.3416920  85.0103378  63.1701851  58.9461756  72.0491791   2.2058129
  58.4963417  72.6661062   2.7831203  58.4367990  72.0643806   1.3955447
  85.1443733   4.3382407  56.9002008  85.5618967   4.1912127  56.0514975
  84.5384659   5.0631762  56.7466640  56.6540527  97.2850800  37.7381682
  56.8729639  97.3016644  36.8064833  57.0795727  98.0633068  38.0980706
  78.0153036  95.4154301  61.2919474  78.3810854  94.5646954  61.5341997
  77.7491760  95.8073425  62.1236992  30.5581177  58.3855920   4.9454040
  31.1664903  58.1260210   4.2535037  29.8230016  57.7787977   4.8580283
  53.7992430  98.0220413  30.2208495  53.2497835  98.0215359  29.4370604
  54.1806555  98.8996220  30.2454042  26.6012406  97.8946114  55.8612156
  27.1356225  98.6707115  55.6929016  26.8874025  97.5888443  56.7219400
  89.4279385  48.9536190  59.5225477  88.7941456  49.5248699  59.0887213
  89.0936661  48.8587666  60.4144526  12.2777056   3.3021022  22.3716831
  13.0973600   3.7963725  22.3819256  12.4330019   2.5684024  22.9664898
  66.1117172  77.8274441  52.7834320  66.1520815  77.8305149  53.7397766
  66.0203600  76.9035149  52.5505304  50.4659081 105.0148678  33.7593985
  50.3549671 105.0407219  34.7097969  49.7110462 105.4936123  33.4170318
   4.3473301  64.6367788  27.5656009   3.7581025  63.9602137  27.2319698
   4.3612538  64.4966269  28.5123825  44.0606308 106.7698860  62.9354668
  44.9949121 106.8039703  62.7300692  43.6407375 107.2492313  62.2212219
  62.9326391  99.0423679  58.9620018  63.3384085  99.6957302  58.3921766
  63.1824017  98.2017517  58.5783291  79.4264174 109.1036129  29.4215441
  79.1750622 109.6244431  28.6587954  78.6547899 109.1201782  29.9877119
  43.0491924  86.9388294  68.6136436  42.7821112  87.8069305  68.3114862
  42.3662138  86.3517570  68.2894278  68.5446405 108.5351753  38.6906910
  67.8992224 107.9295921  38.3260775  68.4927177 109.3078327  38.1280804
  35.6137252 108.8769817  65.7249498  35.9015942 109.7823334  65.6079102
  35.9387231 108.6324310  66.5914392  84.1744137  92.5307751  39.9661994
  84.5160866  93.2477093  39.4318819  84.3991089  91.7393112  39.4769835
  67.4797440  73.0213928  63.3339071  68.2592344  72.5600004  63.0244827
  67.2952414  72.6330471  64.1891146  49.3721056 109.4302464  19.7872961
  49.7227144 109.4519997  20.6777072  48.9830303 108.5596371  19.7042918
   6.2048697   0.4772330  39.2423058   5.6453585   1.2106848  38.9869213
   6.0976671  -0.1622915  38.5382080  17.6411605  88.6452198  58.7686396
  18.4770000  89.1093349  58.8155222  17.0716369  89.1154003  59.3775749
  79.1025877  94.0428448  45.4375744  78.2736492  93.5820961  45.3079224
  79.3545151  93.8340569  46.3371134  81.3632787  22.1203185  78.4228420
  81.6527427  22.1118117  79.3351841  80.5253710  21.6576815  78.4330845
  92.1725559  92.6103401  60.3948402  92.2587395  91.7387486  60.0086594
  91.2572002  92.8482246  60.2473450  86.0729885  82.7466011  28.9267540
  86.1943626  81.8802834  28.5381746  85.3007793  82.6528549  29.4845486
  52.7080107 104.4035435  67.5545979  52.4722052 103.5061073  67.7896261
  53.5004663 104.3122292  67.0255327  85.0171566  89.0082073  41.9606495
  84.0806293  89.2018127  42.0013380  85.1430416  88.3002186  42.5924206
  96.0864353  75.8329248  13.4043288  96.6212749  75.1307774  13.7746835
  95.9759808  75.5903864  12.4849772  30.3803754  83.2953644  94.6104717
  29.8598599  83.5794926  93.8591003  30.7555556  84.1031456  94.9611473
  57.4625826 101.5885258  44.8882675  57.2966576 102.5226307  45.0153637
  57.3928785 101.2113857  45.7652712  37.2595382  87.3944664  58.1547356
  36.6825175  86.8295670  58.6687040  37.7896047  87.8524017  58.8070822
  93.8021564  91.8352509  83.0343437  92.8460598  91.8811798  83.0377483
  94.0609455  92.1671104  83.8940716  41.3873768 106.4793205  78.3330488
  40.7587814 107.1814537  78.5007095  41.9661093 106.8323040  77.6572418
  75.1973295 105.0538635  50.9470606  75.9748507 104.5866108  51.2526083
  74.7081137 104.4021130  50.4449463  98.1462574  92.6942253  56.0489988
  99.0878296  92.5280285  56.0942554  98.0152988  93.4773254  56.5836382
  54.8158503  92.8138638  30.2974629  54.0007687  92.6334858  29.8291254
  54.6464586  93.6304474  30.7672811  62.7876329  93.1386662  70.7287502
  62.1865034  92.6112843  70.2026844  63.3766031  93.5396481  70.0895691
  49.7794247 100.7205296  55.0855589  50.3464603 100.7181263  55.8567238
  49.2087507 101.4788246  55.2102423  98.3399976  16.6611911  69.0160513
  97.7491296  15.9246779  69.1730690  98.3768858  16.7396498  68.0627871
   1.2044773  69.5481300  54.2685461   0.7345257  70.2224159  54.7591734
   2.0036087  69.3976593  54.7735119  64.0153694  70.8994389  62.4188995
  63.0715322  71.0559940  62.4487448  64.3155909  71.0750008  63.3106852
  85.1499844  78.0539846  77.8302097  84.9146175  77.8346348  76.9287014
  84.4717026  78.6676598  78.1122923  73.6324978  96.6871929  34.6884632
  72.8434610  96.7186737  35.2294469  73.5078001  97.3823261  34.0423489
  90.4816341  63.2440901  68.7862015  90.4662991  62.4687624  68.2250738
  89.6961880  63.7329960  68.5406971  56.8124151 100.5754185  50.6070662
  57.4231386  99.9632072  50.1966476  56.7489290 100.2781010  51.5147018
  20.5125117  56.4643431  77.7941656  20.0280499  57.2003984  78.1680059
  19.9606204  56.1542940  77.0761681  52.4226332  97.9519176  48.1602192
  51.6594124  98.2629490  47.6734066  52.0969629  97.8057861  49.0483761
   7.8480505  11.1997748  55.3326416   8.2974123  10.5780078  55.9051037
   7.9215693  12.0393897  55.7863760  96.0490036  64.8885345  36.4295197
  96.5644360  64.3536186  35.8258462  95.1868153  64.4729424  36.4413881
 111.0293102  68.3750343  76.9542694 111.2287807  67.6082134  77.4913263
 111.6388130  69.0467501  77.2601032 101.2716306   4.0996505  67.7551794
 100.7841457   4.4711352  68.4904242 101.5697731   4.8604441  67.2566462
   3.7955794  79.4058275  87.2721672   2.9822141  78.9808464  87.5443077
   4.3338594  79.4218206  88.0635166  46.7305803  98.7464714  94.2130184
  46.3838196  98.2926559  93.4448719  46.4001989  98.2437897  94.9575901
  75.7135391  69.7709417  67.8573036  75.1728392  69.4275427  68.5686064
  76.1652327  70.5224991  68.2411814  76.2641525  59.8571348  69.7931719
  75.8535814  59.1270590  70.2564812  75.9083414  59.8081923  68.9059067
  35.6353927 108.7502384  60.4636717  34.7510552 109.1165447  60.4636288
  35.7189298 108.3259487  59.6097231  50.0224590  64.9204016  73.0968761
  50.2265739  64.0394545  72.7830267  49.3950367  64.7824621  73.8064861
  93.4083748  79.7875595  28.3260942  92.7525711  80.3759670  27.9520202
  93.7820911  79.3340921  27.5704932  46.4523125  99.8676872  56.4053106
  47.0794725 100.0418091  57.1071529  46.1459398  98.9765835  56.5735006
  69.3196440  96.3076401  56.5492249  68.9628172  97.1323681  56.2194967
  68.5520983  95.8109379  56.8327665  29.6597028  73.1901407  94.6941853
  28.8799381  73.0455303  95.2301693  29.3735170  73.8007402  94.0148449
  66.4222527  92.6910305  54.9815226  66.5486956  93.1283855  54.1395187
  66.4280796  91.7575550  54.7698069  11.2760246  92.1526241  53.4829092
  10.9476864  92.7387428  52.8010750  10.8870077  92.4847412  54.2919779
  26.6300726  71.5975332  86.6494942  27.1306896  72.1622324  86.0606575
  26.9562554  70.7156229  86.4703941 101.8865980   9.3310977  68.7030411
 102.6151479   9.6224452  68.1548071 101.1586536   9.2153788  68.0923510
 105.5908012  64.4351721  30.5231977 104.8066044  64.8720789  30.8554411
 106.3030529  64.7786951  31.0625601 101.6380596  71.2790442  80.2185822
 100.7487392  71.3196182  80.5702877 102.1494007  71.8478870  80.7940674
  33.7661123  83.0315208  84.3197346  34.3946409  83.3909416  83.6936378
  33.3942747  82.2696686  83.8752651  49.7100210  93.5892487  32.0138860
  49.4344282  92.7260017  31.7055345  48.9273310  93.9586544  32.4227428
 115.7963575   6.1408091  38.0083752 115.6290973   7.0446444  38.2754564
 116.0142959   5.6869269  38.8224578  71.1131001  92.5786591  63.6428118
  70.5862761  93.1620121  63.0965614  70.7392311  91.7099190  63.4953403
  86.4401054  67.8908634  23.6080885  86.5682697  68.8339996  23.5065770
  85.8238792  67.6568222  22.9140306  96.8856157  15.7948733  63.5339260
  96.1959947  15.9918166  64.1678619  96.5437187  15.0565482  63.0297327
  77.8554058  79.6415043  39.1381335  78.5836983  80.2357197  39.3190527
  78.1865358  79.0576029  38.4557509  70.5564690 106.3263988  86.1475086
  70.9050560 106.8792629  85.4481792  71.0510826 105.5099773  86.0764408
  63.7797928 101.7359066  58.0710602  64.6834612 101.7945385  58.3811808
  63.4127665 102.6042080  58.2371092  91.5529919  98.2965755  82.2353935
  91.9152832  97.9279423  83.0410576  91.5188503  97.5575256  81.6280365
  72.4978304  77.3986673  70.9526014  73.2596016  77.4958467  70.3812075
  71.7897844  77.8419590  70.4852724  58.2730436 103.9842987  66.8699026
  58.0860138 104.7118664  66.2766933  59.2287064 103.9383507  66.8987274
  75.1406765  56.2719679  41.4684248  75.2401304  55.3370762  41.6482019
  74.5517397  56.5864420  42.1543455 104.6690429   6.1167098  48.7341881
 105.3541578   6.1279345  49.4025660 104.0736641   6.8213416  48.9896297
  58.3906984  73.8707447  56.7840052  58.6841869  72.9695702  56.6499233
  58.8217592  74.1451073  57.5934124  63.6235332  99.5726681  45.9451914
  63.8190460 100.2953243  46.5416574  63.0750608  98.9797878  46.4589119
  70.0099134  73.5343027  90.9114647  69.4592190  74.3168974  90.8889103
  69.3918562  72.8050280  90.8624744 108.3933414   9.6124507  18.5365069
 107.5114311   9.3677569  18.2561672 108.9594616   8.9370776  18.1628656
  69.0058661  79.3295717  68.2573700  68.0790758  79.3523121  68.4956408
  69.3612003  78.5884905  68.7480450  60.0050020  72.7718592  75.4949474
  59.8063374  73.1418324  74.6347809  60.7269335  72.1644258  75.3334713
  93.3682979   6.0849620  35.8354211  92.5588573   5.8432914  36.2855673
  93.1358494   6.0826159  34.9068761  61.2905693  98.3000660  49.7700214
  61.7954159  98.2485580  48.9584160  60.4215145  98.5907459  49.4934702
  93.5941471   6.6515399  44.4518185  92.8154386   6.0982848  44.3905687
  93.8474382   6.6073371  45.3738403  99.2754745  94.7341442  60.5574560
  99.7580147  94.9172688  61.3635874  99.1924858  95.5861664  60.1291895
  86.5399456 106.1203766  25.2663541  86.5232372 105.8439255  26.1826110
  85.8087635 106.7330837  25.1876640  73.0950106  14.0395404  79.4293261
  72.7586712  14.1774512  78.5438395  72.3358358  14.1716052  79.9971676
 102.8115905  19.9421454  56.7676592 102.7907146  20.2725077  57.6658010
 101.9264187  19.6122504  56.6131687  68.0349445  96.1901379  46.5362453
  67.5985289  95.8128357  47.3000622  67.4598598  96.9037247  46.2600088
  42.2366190  74.2701626  68.9795065  43.1578445  74.5127058  68.8859987
  42.2364044  73.3134890  68.9477730  57.4688387  79.5251226  48.9523411
  57.8218555  79.6961403  49.8254776  56.6149855  79.9577475  48.9502525
  87.5930119  92.3796654  50.2147388  87.1419334  91.6817284  49.7397089
  86.9141293  92.7744293  50.7620192  87.5215816  50.4293871  58.1716728
  87.0453072  50.0325060  57.4423742  88.0299187  51.1342669  57.7704668
  95.7083000   0.8335067  21.0960650  95.2611364   0.0644065  21.4492965
  96.5295757   0.4917479  20.7425952  59.2635298  71.3264799  56.7516184
  59.4803953  71.0414076  57.6392746  58.8690758  70.5563164  56.3423681
  59.1585922  69.1362333  60.1546955  58.3223486  69.5420551  60.3832388
  59.5351362  68.8741159  60.9947824  54.3771124  82.1022320  93.8953781
  54.7980499  81.5405464  93.2445621  53.8861465  81.4976692  94.4518661
  75.1108027  75.4329681  80.9204006  74.4577026  76.1210155  80.7927990
  75.2778435  75.0951481  80.0405121  51.1141539  79.5406771  62.1813631
  50.9492254  78.6745024  61.8088388  51.7596197  79.9348021  61.5946198
  61.7434216  71.5794277  89.3394566  61.5994549  70.6556797  89.5448875
  61.2019157  72.0525122  89.9712753  23.8183165 104.9130821  70.4373121
  24.2161846 105.7810688  70.3699017  24.4617748 104.3912411  70.9167624
  94.1343784  72.2715044  65.6903410  93.5431194  72.0491886  66.4095211
  95.0053406  72.2707987  66.0873938  82.8325462  92.2991276  52.3724794
  82.5315952  91.6166496  52.9723883  82.5612545  93.1184769  52.7863550
  52.7498627  95.0587940  61.4626074  53.2172918  94.2326450  61.3392639
  53.4258318  95.6774426  61.7393446  89.9891580   1.6575385  64.1583204
  89.0691246   1.9030810  64.0609217  90.3108276   1.5731002  63.2607508
  65.8055544  86.4449215  75.8354235  66.0716057  87.3371124  75.6130505
  66.6282749  85.9617138  75.9120512   2.8235493  88.4360313  60.4363632
   3.2995663  87.6975727  60.0564814   3.4810028  89.1265011  60.5214787
  76.7303085  60.4677010  58.7756968  75.8163834  60.2127600  58.6492777
  76.7286777  60.9682369  59.5915985  38.7018728  80.0230026  82.9883862
  39.1980958  79.2253828  82.8045368  38.7083650  80.5050755  82.1614647
  84.8837757  66.7640686  75.2786732  84.7709084  66.3861418  76.1508322
  84.0674877  67.2363615  75.1148224  36.1229062 104.1793442  32.4712539
  36.6076565 104.8473072  32.9560924  35.5840635 104.6748257  31.8545055
  85.1113129  80.9028339  60.8901644  84.6722889  80.9834576  60.0434113
  84.5672512  80.2898502  61.3846302  43.4114218 107.0406437  65.7989788
  43.3966112 107.8580379  66.2968540  44.0214205 107.2087097  65.0807238
  52.5317097 101.0998821  48.2892847  51.8560648 100.4455280  48.1116629
  53.1413031 100.6599808  48.8818264  60.9275818  71.0123873  19.9461424
  61.0731125  71.0039139  20.8921766  61.6276217  70.4644775  19.5912111
  62.8094435  75.4150820   1.7570968  62.2756672  74.6229744   1.6948341
  62.3016882  76.0829020   1.2961939  69.4862890  74.5492029  82.0999527
  69.9968958  73.7847471  82.3666477  68.6113644  74.2032385  81.9237518
  90.8672155   2.9140044  73.7748814  90.1170171   2.3558284  73.9794970
  91.2236179   2.5488520  72.9650211  44.2676878  70.2947092  66.5317869
  44.4366884  69.6724701  65.8243370  45.1375723  70.5625725  66.8280602
 115.5691221   6.9598442   1.2977618 115.7160451   6.0392910   1.0804290
 114.6555283   6.9961935   1.5810603  39.9666822  21.2433010  31.3470859
  39.4235313  20.5300337  31.0117167  40.0642813  21.8394952  30.6046123
 112.8701748   9.0061713  79.1313839 112.3210348   8.8281489  78.3678484
 113.5589184   9.5833922  78.8017225  60.3151560 106.1054802  50.4918861
  59.6448183 106.7877102  50.5297613  59.8277569 105.3001785  50.3181887
  58.1800079  94.6014786  47.8378582  59.0157080  94.2864799  47.4934483
  58.1865501  95.5418587  47.6593256  85.8643341  75.3072262  53.8100624
  86.0126877  74.8464108  52.9843092  86.4575958  76.0576105  53.7755299
  75.4006004 108.5655880  52.3559856  76.0965204 108.0382061  51.9638157
  74.6183777 108.0179977  52.2888899  15.2866733  36.1212164  15.0932425
  15.1427686  36.4212423  15.9907454  15.1118744  36.8913370  14.5523280
  55.4994154  72.6629066  66.6059494  54.9640131  73.4081936  66.8782139
  55.5604219  72.7467346  65.6543827  42.3156536  76.2944513  11.9849414
  42.3356712  75.3983122  11.6491145  41.5096081  76.3395506  12.4992293
  54.8932600 108.6959267  79.4516850  55.3859854 108.3277416  80.1850891
  54.0288210 108.8868904  79.8157120 111.4820684   8.1752825  54.1429377
 111.9120229   8.6438800  53.4275484 112.1732868   7.6339198  54.5242262
  91.8274975  79.5769548  23.2201934  91.5247917  79.1781759  22.4043679
  92.1800709  80.4264641  22.9551435  59.4359482   6.5351921  12.6429004
  58.5463989   6.8735986  12.7449340  59.6582496   6.1822849  13.5044497
   8.1228709 102.3570633  32.5180387   7.6361555 101.5479088  32.6749372
   8.1780374 102.7739525  33.3779168  84.7236538  88.6073685  51.6694403
  84.8037148  87.7146530  52.0054150  85.5325031  89.0397930  51.9433212
  16.1148584  40.4226213   4.4767493  16.4074934  39.8312097   3.7833327
  16.7533577  40.3021055   5.1796168  69.7469187  78.4043503  78.1827116
  68.8396263  78.7081480  78.2102823  69.9157619  78.0738831  79.0650463
  32.7127731   5.0746542  22.0746917  32.2132242   5.8077913  22.4341315
  32.3137272   4.9087864  21.2205905  82.4429131 105.2596188  34.3448806
  82.4492359 105.3443813  35.2982998  82.4848175 106.1604786  34.0240526
  96.9652176 102.2597122  14.7075009  97.7544498 102.8006268  14.6801186
  96.2433910 102.8880119  14.6867776  54.6001768  81.5839672  12.4770904
  54.2416430  82.0429420  11.7174709  54.1251183  81.9489288  13.2236469
  85.7966900  87.8221226  58.9794874  86.5492916  87.7707195  58.3902740
  86.0676765  87.3344231  59.7572660  87.7785206  82.5076294  88.1120110
  87.7148914  81.5678978  88.2825565  87.1498775  82.6663685  87.4078465
  63.0517244  83.4164810  79.9377871  63.1082869  83.9661694  80.7193756
  63.3884144  83.9684105  79.2319250  55.3542471 105.4242325  24.4951344
  54.4139767 105.5529213  24.6198988  55.5645609 104.6596336  25.0312233
  66.5860558  85.7934761  65.9659147  65.7629061  86.2799835  65.9216261
  67.1357870  86.3063049  66.5583992  55.0608540  95.8462620  49.5528746
  54.2003584  95.7229614  49.9535942  55.6320906  95.2363968  50.0197554
  48.0193663  84.8330021  78.6437941  48.7548637  84.8975277  78.0346012
  48.4192991  84.5818615  79.4763851  82.9200901  26.2197352  61.7858648
  83.6427940  25.8008433  61.3184738  82.7796329  25.6669760  62.5546026
  77.1566200  86.9573689  60.5501652  76.5895414  87.4649906  61.1306572
  76.6711235  86.1484528  60.3883266  23.7397468  32.4185377  15.3791732
  24.0038145  33.2624059  15.7457656  23.0371988  32.6332765  14.7655410
 105.1259708  97.9355621  47.8032446 104.9671078  97.4493599  46.9941759
 105.0188065  98.8539791  47.5557327  75.2655363 104.1417980  83.5813904
  75.9758472 104.5670795  83.1009579  74.5644426 104.7932625  83.5987091
  52.6611328 107.8460598  65.6459808  52.6019192 107.3667526  66.4724112
  53.5328770 108.2411480  65.6601715  86.0657419  17.8710032  66.0238075
  86.1849464  18.0634165  65.0937557  85.1295389  17.6928950  66.1134672
  58.0192327 106.9889545  84.8423958  58.0128908 107.8700733  85.2163315
  57.4348450 106.4844227  85.4082298  93.8183403  92.3376369  41.1956930
  93.1500435  92.4628639  40.5219460  93.9335632  91.3886929  41.2453079
 110.1246452  54.4750404  25.9193707 109.2470646  54.8570633  25.9075761
 110.3994465  54.4778967  25.0024700   2.4560045  14.8312999  90.7481480
   2.5569986  15.4457904  90.0212193   1.9582247  15.3175498  91.4054203
  24.5049167 107.5301266  41.2891150  23.9547467 106.9009781  40.8225155
  24.4873857 108.3154869  40.7421732   2.9088459 106.9161892  55.2870893
   3.6034832 107.0277500  55.9361362   2.7418194 107.8003693  54.9606466
  58.9099503 107.6922894  48.2918692  58.5923815 108.3862495  47.7141142
  58.7597132 108.0286884  49.1753244  20.5417621  66.5982824   5.7107371
  20.0814474  67.2817999   5.2237529  21.0964000  66.1712366   5.0578708
  88.9869404  92.4211979  59.9488926  88.4767914  91.8606472  59.3642902
  88.5709858  93.2805443  59.8800373  37.1904230  92.2552490  62.2180843
  37.5657105  93.1134415  62.4153185  37.0759559  92.2565746  61.2677526
  26.6333378  45.2088838   9.6855659  26.9891393  45.1138693   8.8020438
  25.7349146  45.5103975   9.5508212  65.9243250  92.5239468  62.1160460
  65.8549595  91.7715073  61.5284634  65.3544331  93.1863308  61.7252684
  37.8080057  12.5175715  58.5939503  37.2597002  11.9557238  59.1416073
  38.6045527  12.0069552  58.4489822 108.4256900   2.7101756  14.6592057
 107.5661052   3.0822325  14.8564959 108.3151926   1.7686034  14.7913694
  67.1692133  84.3281746  41.7484856  68.0419397  83.9363003  41.7803860
  66.9652081  84.3828773  40.8148766  20.3122305   2.3306323  33.8969803
  20.9407400   1.6154910  33.7980819  20.0316214   2.2782469  34.8106241
  15.0137877  16.3068629  74.1398525  14.3232512  16.3118983  73.4770060
  14.6351027  16.7752600  74.8837852  81.6395664  92.1290112  30.6452870
  81.0260582  92.1456242  29.9107313  81.1479187  91.7223358  31.3588190
 102.1609879  90.2150440  19.8620617 101.8352699  91.1147690  19.8369610
 102.6301575  90.1069927  19.0347528 100.7740593  80.2349281  65.4584599
 101.4956093  80.7975388  65.1772785 100.0174713  80.8196354  65.5022383
  52.0979738  90.9933186  74.4330072  51.1951733  91.2592793  74.6075010
  52.2688580  91.2964153  73.5412884  86.3836861  81.2405682  55.3194237
  87.1544743  81.2260532  55.8867979  85.7015705  81.6489983  55.8524609
  23.4016203   2.8171302  32.5893426  24.0963339   2.7931452  33.2473922
  23.0800413   1.9165278  32.5476241  43.3874798 106.7323112  55.5097771
  43.7865067 106.4368629  56.3281393  43.0179548 105.9384346  55.1232004
  74.1685486  72.2982359  38.6381388  74.9273491  72.2118711  38.0610824
  74.1769505  71.4997721  39.1659832  18.5207151  39.3953849  24.4024038
  17.7351355  39.4432593  23.8576055  19.2386698  39.6100283  23.8068271
 102.6381111 100.9423733  21.1547422 102.7047920 101.2878704  20.2645612
 102.2498703 100.0741959  21.0462523  80.2474607  21.6851092  89.4388580
  80.3998913  22.1957064  88.6436939  80.3546537  22.3146010  90.1519394
  71.8710126   2.6478244  43.3703995  72.4199427   3.0726767  42.7113008
  72.3104228   2.8293277  44.2011929  71.0116243 105.5577946  37.8685617
  70.4524660 105.4196739  37.1040416  70.4221535 105.4628658  38.6167192
  97.2673416  97.8855991  67.8494358  96.8056774  97.0634460  68.0142498
  96.5774441  98.5489655  67.8350258  70.0085020  77.3127842  52.7891397
  69.6763134  77.2850800  53.6864233  69.8733950  78.2188463  52.5115967
 100.7271194 106.3150978  78.4343290 101.3980675 106.8228531  78.8906622
 100.2887821 106.9509792  77.8688765  62.4503469  96.7911625  54.8617792
  62.6130199  97.0213890  53.9470291  62.4957514  95.8352184  54.8798847
  17.7895235   2.8930903  48.6755323  18.0029177   1.9635440  48.7570000
  17.4109434   3.1270934  49.5229721  76.9715357 105.6014538  54.0729761
  76.3717651 105.0346088  53.5879993  77.8279591 105.1859856  53.9721537
  75.8626890  85.7372570  32.0932245  76.0794449  84.8359871  31.8545365
  75.1925564  85.6509018  32.7712321  71.5150928  95.8640766  61.5633249
  70.7846975  96.1229038  62.1252537  72.1793652  95.5364609  62.1696615
  38.9066923   9.8235899  15.2838248  39.1858614  10.6758409  15.6184405
  39.2602623   9.1926103  15.9107894 103.6697197  76.0179377  80.9332466
 104.2088032  76.2488556  81.6897488 104.0147686  76.5553665  80.2202606
  64.1556215  94.4884968  61.2430906  64.0069675  95.2266502  61.8340731
  63.3152771  94.0310287  61.2151623  80.0477982  87.5830936  81.8307018
  80.0405121  86.6463661  81.6339397  80.4808998  87.6456547  82.6820183
   2.9673933   7.0107032  66.6360855   3.7510752   6.4621783  66.6706944
   2.2817635   6.4742137  67.0339727 114.1066707   7.0481158  68.9103127
 113.6165250   7.0059348  69.7314167 114.5239938   7.9094363  68.9244604
   9.5785021   9.3660498  67.5673485   9.9429106   9.7029639  66.7488575
  10.1780104   9.6808005  68.2439232   4.3601679   4.5047904  64.7601938
   4.1122889   4.0716220  65.5769825   4.4948076   3.7880278  64.1402388
  37.9296660  28.9588214  73.2423830  37.2400450  28.5186053  73.7392330
  37.7093672  28.7906600  72.3261833  41.3557327  32.7365308   1.7150897
  41.3926018  32.7547746   0.7587737  41.0033119  31.8716150   1.9247359
  46.6813803 107.5484753  34.7415948  46.6580009 108.1819630  34.0243936
  45.9800720 107.8272724  35.3303766  62.6311970 104.4429684  26.7299533
  62.1445417 104.1299152  27.4924493  61.9581032 104.7759438  26.1363983
  27.2120260  16.2403918  65.5644369  26.6398119  15.6817866  66.0905218
  28.0980944  15.9833384  65.8194637  70.0121927  98.5510445  47.4296427
  70.0104237  99.0151787  46.5925026  69.3966436  97.8288078  47.3043776
  48.4611845  94.9509907  57.1180582  48.5275936  94.4628716  57.9387665
  47.8026867  94.4770622  56.6101217  88.8743782  87.6479626  22.9816604
  89.6606064  87.9913616  23.4061050  88.9125443  87.9946899  22.0902848
  78.7527800  93.6884117  64.9560642  77.8147793  93.5701466  65.1057386
  79.1686201  93.3079243  65.7297182 110.4974950   8.6217070  87.4267864
 109.6461595   8.9046431  87.0930099 110.6997408   9.2440558  88.1253624
 101.9469738  98.9071178  69.4766617 102.4170208  98.4589291  70.1798010
 101.0789108  98.5037804  69.4738054  94.9494137   9.0464926  26.6809964
  95.8718408   9.2937613  26.7459750  94.4741262   9.8008300  27.0292950
 107.1723999   1.4140940  54.7426510 106.6867031   0.5895186  54.7225523
 107.0133318   1.7644644  55.6191015 110.7852461  48.8568693   9.4632358
 111.6477015  49.0763860   9.8156756 110.6200912  49.5267015   8.7996978
  76.6399860  68.1929350  80.9009361  76.9592094  67.3825741  80.5038834
  77.0490026  68.8889551  80.3866386  96.1422062 108.5544872  78.5473251
  95.7621670 107.6788998  78.4755802  96.0661793 108.7732124  79.4760942
  14.1981482  19.0139437  48.2745981  13.6548399  19.7865535  48.1193256
  14.1585039  18.8796378  49.2215014  49.6903706 107.5633717  93.0471420
  48.8302135 107.9819107  93.0125809  49.5913792 106.8656445  93.6949158
  89.7179331  13.3056021  55.5144358  90.1480879  13.8474990  56.1759043
  90.4312147  13.0012179  54.9533606  62.3702478 106.4325619  75.3905964
  62.1413612 106.8678570  74.5694017  61.5289259 106.2635803  75.8147001
 101.4336300 106.2204361  33.5695553 100.6568241 106.5423012  33.1121588
 101.2242222 106.3221645  34.4980121  94.2678738 101.7991734  38.6986780
  94.9076271 101.1283970  38.4599209  94.6233273 102.1971130  39.4933605
 101.5850843  32.6180125  76.6268396 100.6326450  32.5272608  76.5976238
 101.8724931  31.9333983  77.2309446  88.4394264  70.9939194  59.5232058
  87.9871464  70.4452467  60.1640129  89.3564796  70.7263327  59.5835876
  54.4439268  94.2458916  44.3628407  55.1453209  93.6066532  44.2377138
  54.8828506  95.0952530  44.3163204   8.4650969  20.3642226  25.4338741
   8.5070108  19.6807528  24.7650433   7.6223444  20.7931567  25.2855086
  37.4761664  28.2251210  83.1016892  36.5825449  27.9922814  83.3535975
  37.7304350  27.5515122  82.4709564  35.9958005 104.2456818  90.3016567
  36.7752147 103.8291168  90.6693840  35.4907894 104.5252037  91.0652447
   1.6781591  31.9987155  51.6455555   1.7161249  31.6411544  50.7584572
   2.4871801  31.6983557  52.0596790  78.6590338  98.0725384  57.3667336
  78.6066532  97.7349472  56.4725780  79.0199280  97.3468399  57.8759861
  73.8143778  97.4583435  48.6692095  74.2403460  98.3103466  48.7633944
  73.7766790  97.3126030  47.7239227  68.1186008 100.8987141  50.5572557
  67.9250240 101.2152767  51.4396048  67.2677994 100.6386566  50.2040672
  78.6923552 104.1436291  62.8514004  78.9390898 105.0149441  62.5413084
  77.8729391 103.9504433  62.3959112 111.2878097   5.9146643  85.8942032
 111.3712515   6.0776091  84.9546719 111.3714565   6.7795802  86.2956429
 101.5360511   3.5455752  53.8095856 101.0433830   3.0044795  54.4266176
 100.8822216   4.1338492  53.4318686  65.9728909  78.5223055  73.6165619
  65.4397392  78.1775141  74.3328714  65.3703690  78.5780764  72.8748894
  55.4146433  81.1623764  49.2910814  55.8535957  81.7345715  49.9204826
  54.5361662  81.5322304  49.2032528  44.2256521  28.3877707  47.6853991
  44.9046682  28.8444472  48.1820059  43.6219000  29.0790225  47.4135923
  20.8781122  36.2243510  61.1001825  20.5611300  36.9898177  60.6208038
  20.8828520  35.5205394  60.4514503  90.0126648  54.3716240  61.6890430
  90.5860329  53.6063814  61.7323828  89.4457245  54.2037964  60.9362888
  65.8755875  89.0207291  74.5667696  65.1586246  89.2296982  73.9679909
  66.6329432  89.4791794  74.2028093  92.3796190  26.6583014  56.8496180
  92.3462022  26.1111212  57.6342964  93.1695760  27.1874476  56.9600725
 104.3354000  17.4657298  22.4322367 104.3722166  16.9678450  21.6155434
 105.2506555  17.6552630  22.6386666  63.6804628  78.0974579  75.5224705
  63.3145332  78.9039469  75.1592875  62.9218054  77.6204157  75.8587885
  80.3992558  94.3046188  57.0308113  80.5778313  95.1507854  57.4410963
  79.5846319  94.4402504  56.5468502  97.7920068  15.5640460  73.5101700
  97.8149761  14.6686316  73.1726265  97.1951593  15.5230952  74.2573833
 102.9282249   4.0539504  33.2124996 103.6348165   3.6879206  33.7444615
 102.1648706   3.5174895  33.4263325  25.3301227  51.5783983   6.0832519
  25.1875198  50.9888750   5.3427333  25.7899845  52.3288065   5.7068938
  65.5037546  99.6159744  49.5324516  65.8105707  98.9193249  50.1127720
  65.2028275 100.3055096  50.1242495  86.5012169  72.9040766  54.8761702
  86.2637901  72.6316547  53.9898014  86.4004517  73.8559341  54.8692608
  95.0581039   5.2064849  38.2448196  94.6292604   5.6755400  37.5290608
  95.9764208   5.4704715  38.1879091  56.4254045  97.6529408  35.1005101
  55.8525467  98.3603859  34.8045588  57.2540712  97.8106308  34.6480918
 100.7045269  95.1102161  91.8069172 100.3533936  95.1876068  90.9198189
 100.6158066  95.9884644  92.1770954  84.1717529 103.3377552  34.0419984
  84.0720749 103.4389496  34.9886012  83.5249233 103.9359093  33.6677504
  83.3941234   8.5260058  65.0072861  83.7807335   8.5837222  64.1335392
  82.5198806   8.9028502  64.9077368 111.1811031  12.8422404  52.6686525
 111.1243738  12.8109313  53.6236572 110.8035530  13.6899520  52.4339533
  41.6243255  81.2362390   3.5635108  40.7887256  81.6329580   3.8097114
  42.2814453  81.8832880   3.8199443  81.4618969  75.2938890  32.1254277
  81.4378166  74.4841433  31.6155648  82.3849201  75.5473661  32.1289206
  56.8513000  49.8777300  23.8947791  57.8007877  49.9119478  23.7784022
  56.5873325  49.0610700  23.4709758  73.5883904  95.5373859  63.3730888
  73.6745596  94.9629307  64.1338873  73.6740112  96.4215565  63.7296534
 112.2342790   6.5547419  80.0047398 112.5899185   7.4238444  79.8192167
 113.0024685   5.9850455  80.0442696 107.9104055  17.5146056  53.9803791
 108.3880056  17.5502825  54.8091507 106.9909824  17.6084185  54.2295551
  67.5401783  79.3187904  57.6660156  68.1864643  80.0236702  57.7070284
  67.1829319  79.2694998  58.5526800  16.9341921   2.3801470  93.4845924
  16.0526156   2.0994902  93.7301540  17.4199461   2.3927737  94.3092823
  90.0594534   8.6320639  37.1665215  90.0048937   7.9782248  36.4695692
  90.0666107   9.4717837  36.7071247  76.6020536  93.9365387  39.9287796
  75.7367945  93.6932755  40.2579975  76.8849611  93.1791782  39.4163346
  86.0780430  83.6079693  61.3190937  85.8083153  82.7161598  61.5385485
  85.5003738  83.8627148  60.5996275  99.8063469 107.8497219  58.8413239
  99.6296120 108.4793949  58.1423903 100.6169701 107.4164867  58.5740566
  86.3335037  85.9412479  23.0033064  86.5393639  86.3442039  22.1598148
  85.3987312  86.1067104  23.1260157  68.4546375  89.8233414  84.0984631
  67.6660728  89.4168282  84.4578171  68.3518696  89.7480297  83.1497765
  47.2343445 104.8291397  77.8614235  46.3569736 104.5858288  78.1568146
  47.3163605 104.4262314  76.9970322  79.2085409  99.4652843  43.1574154
  79.9641275  99.8733044  43.5803032  79.4859886  98.5649300  42.9882622
  75.8838690   3.7690402  58.5804749  76.2648643   4.3824149  57.9520988
  76.5263952   3.7213755  59.2883730  86.5177883  28.5411978  67.2429609
  85.8175482  27.9245997  67.4567461  87.3042310  28.1527663  67.6261854
  98.0133690  28.6414195  72.0444441  98.8681234  28.2135630  71.9937944
  97.4353565  28.0842353  71.5232182   9.0351366   0.0153018  89.7679138
   9.9855970  -0.0171708  89.8765373   8.7511038   0.7179309  90.3526020
  63.5080767 109.7427750  69.0834427  63.8075495 109.0898323  68.4508133
  64.2484665 109.8560047  69.6794558  58.3914709 106.1396503  82.2902966
  59.3473196 106.1744785  82.3273468  58.1090260 106.3657856  83.1764793
  98.2839298 104.8054028  94.6352005  97.4116707 105.0895214  94.9084663
  98.7207603 104.5562458  95.4496479 105.2533438  89.0691471  54.4884586
 105.2429452  88.7164688  53.5986567 104.4326868  88.7651443  54.8761940
  67.9305840  95.4085445  41.3725328  68.8661146  95.6017399  41.3118362
  67.5132418  96.2666321  41.4483547  70.9400034  68.7819529  71.9084597
  70.3575516  69.0399361  72.6229000  70.7827759  69.4327545  71.2243748
  69.9570179  96.0503674  69.7178173  70.2830744  95.5043983  70.4332495
  69.0272760  95.8317852  69.6542883 110.8344949  21.7783881  34.3608212
 111.7037500  21.9335700  33.9912987 110.2313007  22.1573020  33.7214375
  70.7350063 105.6626987  46.8369579  71.1879063 106.4198208  46.4656305
  70.0248861 106.0395050  47.3565483 112.5264263 108.4223938  88.3479691
 113.4025097 108.8013077  88.2764053 111.9339371 109.1643810  88.2269573
  70.9894371  96.8285847  54.3872452  71.7604876  96.3356113  54.1067362
  70.7225418  96.4104080  55.2058506 106.0684789   2.6696921  57.1032381
 105.7594312   1.8781806  57.5439596 105.4120268   3.3334399  57.3147678
  52.5918293  89.2837524  70.6762218  53.2124615  89.9987984  70.8167934
  52.0585918  89.2697144  71.4710093  97.6980461  19.3019725  74.6412516
  97.0232118  19.3023349  75.3201008  98.4016861  18.7634135  75.0032997
  59.7465611  95.8290482  45.5417633  60.2060604  96.1104393  44.7506189
  59.3400097  94.9970341  45.2994967  63.7297237  59.8842054  21.7452353
  63.3678901  59.4659715  20.9639663  63.2567585  60.7135683  21.8137378
  72.6397896  60.7550621  63.6476469  73.1966782  61.4425993  64.0128851
  72.8485727  59.9774837  64.1653442  99.4596481  71.9787073  68.8228655
  98.5721016  71.8864202  68.4764767  99.3732452  71.7880440  69.7568941
  17.9148268  15.1807357  23.8096786  18.4750914  15.8599902  23.4342527
  17.5775789  14.7026683  23.0520868  45.0704718  82.2008324  89.1382599
  45.2166319  82.8777981  88.4774971  45.1564407  81.3763905  88.6595821
  85.1190853  74.3691206  19.6702778  86.0169983  74.4484806  19.9923003
  84.7000122  75.1913834  19.9242187   0.9406815  74.2394686  62.6101398
   0.6834183  74.6867704  63.4163475   0.1627026  73.7453127  62.3516846
  34.3164419  23.8301707  46.4849377  34.6154951  24.7389556  46.5150785
  34.9930834  23.3717585  45.9866953  86.4367008 103.9860821  73.8310814
  85.7792377 104.5084286  74.2905521  85.9301186 103.4312725  73.2379627
 100.0795234   4.8786498  39.1598439 100.7843794   4.6290637  39.7574353
  99.2836298   4.5494128  39.5774412  58.2651615  92.2018242  88.5183144
  58.9872503  92.8053665  88.3435249  58.6691570  91.3341904  88.5030365
 103.3204842 105.2539539  18.2154000 103.5363674 105.1854801  17.2853792
 103.9978886 104.7416496  18.6568725   6.6642355  30.9799720  70.2043200
   6.8965506  30.0626898  70.0599051   6.8563341  31.1328936  71.1294889
  22.0585798   3.1983615  82.2285748  21.8798136   2.8204108  83.0896378
  21.6988157   2.5635768  81.6090107 101.5176834   2.1199465  29.1497135
 101.2613596   1.6973925  28.3299708 101.0733951   2.9675914  29.1313720
  76.3940954 102.7382755  40.7351065  76.4357281 103.4678268  41.3533783
  76.7309618 101.9887733  41.2260199  11.4870142   3.9000846  51.4781713
  12.3608755   3.7067271  51.8176174  11.2653803   4.7504187  51.8577051
 111.0374165  87.1597958  64.6787167 110.1166725  86.9047165  64.7371244
 111.0985851  87.6500320  63.8588667   6.2103247   4.0225840  67.5873041
   6.5708613   4.7603274  68.0792236   6.4146303   4.2212821  66.6735125
  48.0548275  59.8753553  13.7959975  47.8296459  60.7015424  13.3682651
  48.8795078  59.6113973  13.3879966  58.6733103  81.5950680  61.0826302
  59.0392351  82.4793816  61.0650396  59.3555880  81.0616016  61.4902496
  12.7904009  27.6946402  70.3954363  13.5561060  28.0997134  70.8026743
  13.0084395  27.6525832  69.4643497  40.8971476  14.1744853  60.1412630
  40.4546236  14.6686984  60.8313036  40.8007597  14.7170592  59.3586063
  49.9629402 100.0632763  50.2295637  50.3837776  99.2421818  50.4843807
  50.3962660 100.7299709  50.7624626   7.1705889  34.6636058  58.6665964
   7.4229216  35.5621196  58.8792849   8.0000090  34.2134524  58.5063791
  84.7322369  93.2304859  83.9463997  85.4393387  93.8517475  84.1203880
  85.1138115  92.5975037  83.3381557  31.0244631   5.6508780  67.5094843
  31.8490004   5.1646949  67.5080252  30.5190634   5.2674437  66.7926979
 107.7970409  91.1071777  75.7671881 108.1626320  91.0161877  76.6471338
 107.0487785  90.5103493  75.7558107  84.3871593  81.2362480  44.0822029
  83.7990761  81.9906425  44.1178751  83.9602757  80.6280994  43.4787464
  98.0341434  88.6753178  29.9281764  98.3885670  88.7193489  30.8162475
  98.7128448  89.0686512  29.3796492  14.7530041  88.8608456  65.1939154
  14.6319733  87.9113483  65.1883602  13.9349804  89.2086601  64.8388243
  91.4668274  96.3825512  26.1708879  90.8284569  96.4852715  25.4650712
  90.9835148  95.9396553  26.8683720  11.6854058  89.3127155  34.0886092
  12.3993454  89.5917702  33.5153294  12.0814762  88.6570835  34.6626329
 113.7631906   7.3727847  57.4408913 113.8115133   6.4284850  57.2918653
 113.9961971   7.7606059  56.5973663  97.8910923  84.7782516  41.6912460
  97.5226879  85.4716778  42.2386694  98.6358261  84.4470692  42.1931505
 100.1829243  88.6045074  52.2885466 100.3569031  87.8234673  52.8138399
 100.6230545  89.3124676  52.7589750  30.0040650  95.5326748  51.9355679
  29.9731064  95.7365513  51.0008430  30.6596208  94.8389530  52.0078182
  71.5191317 100.5130672  28.5162973  70.9013033  99.8241615  28.7610960
  70.9685421 101.2738991  28.3313060  15.6507467   1.3939238  53.8173628
  16.5212320   1.1500979  54.1320658  15.0485014   0.8872939  54.3622065
  97.6770687  91.1544704  36.1824346  98.0233479  90.5007553  36.7898703
  97.3547840  91.8579769  36.7458463  81.6094589 100.7576084  43.9387178
  82.3340988 100.1367760  43.8632202  81.5518665 101.1647701  43.0743504
 107.3130226  96.0898876  44.2127848 107.3479652  95.8090210  45.1271820
 106.6544819  96.7844391  44.2005730  79.2927087   8.1860018  59.5362282
  78.5394372   7.6081515  59.6583366  79.9936451   7.6061011  59.2385054
 104.9899483  57.4776888  28.7996292 105.7463169  58.0039597  28.5404420
 105.2000904  57.1751404  29.6831083  64.1718864  78.7152386  50.8284569
  63.7448406  79.3225193  51.4326715  64.8176241  78.2568264  51.3661528
  54.6498060  87.1429729  77.1324158  54.5580244  86.3952446  77.7229309
  54.1381121  86.9024181  76.3600540  59.0686274  96.9643974  64.1402626
  59.4001818  96.4661121  63.3932543  59.8497534  97.1811676  64.6492672
  60.3183031 100.4728889  47.2419596  61.0904789 100.7784653  47.7179813
  59.8902941 101.2741470  46.9402695  97.2348690  86.4747143  36.3412261
  97.9966831  86.1369610  35.8702779  96.5232849  86.4398575  35.7019567
  97.8887558 101.4837456  56.0215092  98.5411167 102.1088409  55.7054186
  98.1006050 101.3640118  56.9472599  44.1939306  87.6932812  74.6053982
  44.7881603  87.3746872  73.9259720  43.8797712  88.5344028  74.2736530
  56.6782475 103.8304710  63.7495327  57.5774717 103.5050678  63.7078428
  56.2130213 103.3358383  63.0748940  82.1934032  95.4939938  78.6463928
  82.0831108  95.5320740  79.5964527  82.0032883  96.3831997  78.3473778
 103.3801902   2.8841353  42.7336359 103.9733661   3.6220408  42.5926971
 102.7229799   3.2183409  43.3440542   3.7901091   1.8310214  37.9820609
   3.8480734   2.2488738  38.8412881   2.9470991   1.3777400  37.9925466
  74.6304893  93.2697296  80.3966331  74.0129375  93.7154102  79.8167849
  74.4282913  93.6093712  81.2684155  40.2994716  36.0093980   5.6582755
  39.4000137  35.9693056   5.9832496  40.5258549  36.9387537   5.6940192
  85.2711309  10.5786467  54.6610785  85.6569065  11.4175273  54.9134588
  84.9152960  10.2238799  55.4757881  69.6226072 100.4905510  31.3333416
  70.0578547 101.1625576  31.8579435  70.0651836  99.6761608  31.5723491
 106.1942781   9.5115615  41.5527487 106.5150703   9.1042090  42.3573542
 105.9615244   8.7748671  40.9876442 109.5296396   6.1710788  52.9855251
 109.1305174   6.3194037  53.8428068 109.2164339   6.8975020  52.4465990
  96.1370182  96.9834709  39.5597768  96.6951275  97.6747036  39.9160671
  95.6426048  96.6623020  40.3138638  56.7197657  92.2666550  59.7239923
  56.3157225  91.3992214  59.7010279  56.3574219  92.7198887  58.9627266
 111.4009870  22.6923800  11.9023538 110.8371271  22.1935893  11.3111734
 112.2343410  22.2215796  11.8925369  91.5647221  80.9188747  44.2451334
  91.3412285  80.6923676  45.1478958  92.0648384  80.1675034  43.9264631
  90.8417320 106.9154072  44.3555260  90.0214767 106.4673805  44.5621347
  91.4496517 106.6283321  45.0368834  29.4883204  96.8349075  83.6775017
  29.4701910  96.4640236  84.5597458  28.7039042  97.3815250  83.6313152
  79.0555906 101.5670872  48.4963799  78.8617039 101.0916996  49.3042469
  79.8652697 101.1712170  48.1739712   5.8510851  12.2291518  53.6026382
   6.2777876  11.8686534  54.3799400   6.5586828  12.6501799  53.1145096
  66.2347078 102.7076721  36.2251878  65.3596067 103.0823517  36.1249661
  66.1198521 101.9959736  36.8548918  82.5482082  89.5859909  42.8033924
  82.2016048  90.4201221  43.1201458  82.4445534  88.9872265  43.5429621
  83.4365858   4.8729468  86.1021709  83.5366358   5.5870105  86.7317200
  83.1981672   5.3073168  85.2832031  28.6429762   0.7719565  56.0550642
  29.4047808   0.2213622  56.2359762  28.7870859   1.0955382  55.1658154
  54.9971390 109.2006683  65.2208614  55.6445551 109.1041660  65.9192657
  55.5114317 109.1852283  64.4137144 116.5031160  11.7424918  50.4932499
 115.6152071  11.7266608  50.8504581 116.3881267  11.5735198  49.5581245
  90.1686287 108.8022900  32.2832775  89.5303917 109.5156384  32.2867298
  91.0058784 109.2291069  32.4651241   1.5677094  26.1342383  50.5012751
   1.1417507  25.5458213  51.1246109   2.2540306  25.6014872  50.0995684
  15.4493021  31.5286303  63.4598541  16.3276075  31.7189360  63.7893867
  15.4873728  30.6101275  63.1931257 112.2992243   1.1602259  25.3918672
 111.3719286   0.9245539  25.3634119 112.3554243   1.9726134  24.8887777
  60.4428244  93.5558033  66.8083715  60.2020502  93.1647491  67.6482105
  60.2195549  94.4818211  66.9025707  65.4524326  85.0348949  58.7101841
  65.1596260  84.7882557  57.8328800  65.6883669  84.2055893  59.1259098
  22.8676390  13.4784461  88.4439850  23.6798929  13.9848471  88.4499836
  22.7768396  13.1607295  89.3423367  51.8665777  36.2744851  88.2623261
  52.3119532  35.5959554  88.7697524  51.6455923  35.8480973  87.4343192
 101.5448583  11.3449431  88.5731888 101.9795431  10.5103160  88.7483597
 101.7073024  11.5092803  87.6443005 100.1950073 104.7828960  28.1560087
 100.9403610 105.3317928  27.9123092 100.2598667 104.0213203  27.5797868
 111.7356682 106.9454956  53.1194496 112.5521278 106.5998840  53.4802341
 111.0934925 106.8213749  53.8183403  77.2079182  98.5515404  19.0834248
  78.1019258  98.2102489  19.1057730  76.8091106  98.2316017  19.8926377
 107.8270687   0.8829737  16.7336226 107.9039921  -0.0696420  16.6802418
 108.7148012   1.1845065  16.9265985 108.6887550  82.8367519  32.3287630
 108.6911392  83.5172176  33.0019569 109.1025066  83.2487679  31.5702820
 114.6956743  28.6411525  74.9567366 115.3033556  28.7947322  75.6801796
 114.5199217  29.5128203  74.6024179  73.8663960 107.7733135  36.1542034
  74.7073793 107.4799061  35.8036423  73.9157915 107.5781822  37.0900011
  10.3735231   2.4788428  42.4228144   9.9119829   2.7177096  41.6189766
  11.2848352   2.7197600  42.2563744  47.6579165  21.6059447  70.2391672
  47.8967165  21.5442801  69.3142891  46.9132303  21.0121394  70.3343630
 115.5513096  80.2158642  65.5812120 114.7097206  80.5899048  65.3203440
 115.9875774  80.9195423  66.0615683 104.7455515  20.0303698  54.5149279
 104.4156374  20.3392554  55.3587198 104.1210855  19.3567515  54.2456532
 109.0789093   9.9289466  60.4599667 109.3137134   9.7705222  59.5456362
 108.4753479   9.2189551  60.6787252 104.3632997  23.3840609  89.3066502
 103.7842144  22.6840544  89.6081257 103.7702860  24.0727854  89.0062809
 100.2338899  23.3379603  62.0323420 100.4648699  23.4423590  61.1093140
  99.5905603  24.0271712  62.1976900  15.9109758  33.3604098  15.7842863
  16.0086798  34.3080664  15.8771300  15.7746195  33.2244063  14.8466611
  99.8782791  14.7911120  54.8097086  98.9715446  15.0944949  54.8547173
 100.1096929  14.5924712  55.7170200 107.7591242  30.7130957  52.9190779
 108.2881607  29.9597884  53.1815147 107.8436054  30.7447863  51.9661379
   8.0253386   3.5481215  70.9385538   8.9669298   3.4489203  70.7978153
   7.6512407   2.7149726  70.6519318  41.8383383  32.3948813  39.8875880
  42.2321009  31.6234065  40.2950287  40.9778189  32.0970298  39.5925808
  13.5065245   5.4424144  59.9638414  12.9614710   4.7156096  59.6623421
  13.6542868   5.2619315  60.8921862  29.6920955  77.1639543   7.5572795
  30.3688228  77.0797926   6.8855685  29.3501413  78.0506521   7.4429816
  48.0089045  66.2829018  63.4745359  47.7147627  67.1110535  63.8538504
  47.2012997  65.8015442  63.2948208  85.7537174 104.7144318  53.1978416
  86.2318611 104.5996857  52.3765945  85.1564121 105.4427338  53.0274820
  68.5795116 108.9807987  81.9530392  68.9044666 109.8801994  81.9944382
  67.6324415 109.0629196  82.0650673   0.0034784  12.2828437  65.0281715
  -0.0828720  12.5758315  64.1210175   0.9053253  12.4992514  65.2649498
  44.3350649  81.0292244  56.8742275  43.8424492  80.7035542  56.1209059
  43.7071609  81.0122585  57.5965023  29.5585798   2.7775813  67.7168846
  29.5225405   1.9739962  67.1980524  29.7488379   3.4658766  67.0794868
  92.3413944 104.8371315  60.4214954  92.5524426 104.7801495  61.3534021
  92.5575256 103.9719582  60.0736380 100.1798404  28.2257033  78.3171892
  99.3461813  28.1629420  78.7833452 100.7803310  27.6808692  78.8259125
   9.5304451 105.6894875  71.9046116   9.5661221 105.6862831  72.8611374
  10.3908883 106.0097790  71.6339111  39.9763941  20.1212264  58.6581755
  40.7172941  20.6321860  58.9840794  39.4972204  19.8647738  59.4461203
  56.2973665   5.8997203  19.3650007  55.9757876   4.9982596  19.3517244
  56.2787317   6.1470748  20.2895021  42.7875399   8.0444480  47.2677088
  42.9301046   8.1662608  46.3290548  43.6097216   7.6740981  47.5887728
   5.6968760  10.8004428  59.7238684   5.0959276  11.0377646  60.4300976
   6.4389490  10.3906203  60.1684046 113.0921936  70.6877470  62.7920389
 113.7367630  70.5532122  63.4867764 112.2530174  70.4720926  63.1988716
  26.3242506   0.0294162  68.1315947  26.0313105   0.9331561  68.2485580
  25.7554220  -0.3198480  67.4455309  98.4125996  82.4598694  44.4195127
  98.5996914  83.3287621  44.0641880  97.6784515  82.5987625  45.0178099
  76.6535854  98.7171364  81.8036079  75.7530022  98.3960342  81.7580891
  77.1473026  98.1271267  81.2340736   5.3273367  21.5407229  25.0424933
   4.3870710  21.7023516  24.9650288   5.7035898  22.4007655  25.2295423
  21.1295485   4.2356349  64.3851662  20.9028887   5.1072360  64.7094679
  21.2375044   4.3519068  63.4412098  95.8782387  72.4706173  57.1543264
  96.0706520  71.5675449  56.9020033  96.7138481  72.8142023  57.4704504
  16.3219999   1.0877753  61.0565472  16.4376997   0.3494979  60.4583836
  16.7371821   0.8035994  61.8708563 106.5272344  35.4028464  50.5174446
 105.9367288  35.5935527  49.7886324 106.7472376  34.4773150  50.4115772
  49.6379828  15.5371237  92.2957611  49.0741514  16.0600234  91.7257595
  49.0421461  15.1648474  92.9458523 107.0122303  25.0963450  43.1468630
 107.3372091  25.8096171  42.5974369 106.6939176  24.4413996  42.5256109
  91.0251999  70.3377819  49.9357033  91.4722443  70.0600958  50.7352495
  90.2943802  69.7262764  49.8452091  54.0130997 102.5912571  36.0958219
  54.5993614 103.0150700  35.4690003  54.4864082 102.6250744  36.9271255
  87.9826654  12.5139285  30.2154398  88.4612621  11.7795706  30.6000209
  87.8869547  13.1397296  30.9333825  16.7543387   2.7493430  85.7582474
  17.2364782   1.9735480  85.4720211  16.0441946   2.8380442  85.1225948
 102.0583725  75.8623457  51.1997271 101.3908768  75.1991653  51.0240364
 101.5912819  76.6953325  51.1349869  12.8871893  14.7532798  64.0015984
  12.9859995  14.5814753  63.0651426  12.2704100  15.4838420  64.0473080
  29.3927168   4.6239138  48.0319881  29.9966024   5.2404929  48.4459734
  28.5941958   4.6819163  48.5566092  99.4171203  24.1306067  34.5800734
 100.3292144  23.8718463  34.7118282  99.0066112  23.3649779  34.1781831
  21.9333338  26.5527869  35.3975677  22.0186590  25.7500411  34.8832107
  22.7260946  27.0506430  35.1978064  78.3896923  80.9393597  55.4026318
  78.8209009  81.0087299  54.5508814  78.3902454  80.0018311  55.5957127
  67.5301922  64.4234186   8.2811374  67.3087108  65.3389078   8.4516162
  67.6229751  64.3726068   7.3297996  56.1028183  86.1127668  20.6913394
  55.6250847  86.8570905  20.3252906  56.8634880  86.0115915  20.1191730
  30.5858587  12.2890616  60.2823162  29.9457907  11.6006423  60.4629278
  30.6906199  12.2750903  59.3309689  91.7032589  10.5247260  79.0510416
  92.4810470  10.8264971  78.5817719  91.9914640   9.7356082  79.5098114
   2.7607798   1.5186072  61.1157608   2.2402357   0.8112193  61.4963770
   2.1288179   2.0432807  60.6242514  19.8179125  35.3186751  45.6713295
  20.5419134  35.8434535  45.3297520  19.7989248  34.5430709  45.1106930
  78.6846675  22.9274131  50.3759050  79.0076030  23.4284259  51.1248589
  78.5100688  23.5865641  49.7041416   4.5196019  84.9868107  27.0118022
   3.6290226  85.0879002  27.3477888   5.0072728  84.5993996  27.7386570
  17.9219030  23.8438750  54.7859478  17.0939707  24.3143225  54.8831129
  17.7701735  23.2396079  54.0592623 110.8675766  93.9266682  67.1744680
 111.2529278  94.0256023  68.0450726 110.5948067  93.0099583  67.1360350
  10.1615690  36.0604144  60.0837374   9.8837828  36.9756556  60.1213074
  10.8599638  35.9951544  60.7350588  22.9045080  21.4908553  80.8136654
  22.1409773  20.9420539  80.6346035  22.5552534  22.2339869  81.3056087
   4.1251062  17.3198176  79.2006588   3.5277247  17.9303599  79.6326447
   4.4289183  16.7447043  79.9029207  10.6403994  14.6749926  74.2604589
  10.5613493  13.8551284  73.7728071  10.1141047  14.5369578  75.0479794
  66.9735813  92.5699806  27.2833276  67.2084999  91.8050385  26.7580485
  66.0328102  92.4774837  27.4337387  48.6749720  23.1174422  63.0790758
  48.1592535  22.3732329  62.7685642  49.5583319  22.7663851  63.1916571
 107.0433010   8.9778281  55.9038591 106.4824165   9.3620921  56.5776396
 107.0141042   8.0366946  56.0760260  64.7275877  98.5761166  30.1743412
  64.0354443  99.1809082  30.4415488  65.5319977  99.0915394  30.2333975
   6.2202524   1.5004206  73.0007935   6.1763262   1.3726187  72.0531797
   6.5862917   2.3784304  73.1073523  81.7689323 108.2190228  40.2254343
  81.1995602 107.6876450  39.6689487  82.3289680 108.6936665  39.6111822
 106.7033768 104.6285152  65.9582949 107.3731518 104.6062756  66.6417742
 107.1362686 104.2630386  65.1867580  18.3692621  16.5097666  82.4044132
  18.3630919  16.9891501  81.5759277  17.8923487  15.7012988  82.2168827
  70.7583618  94.6513939  42.0215750  70.7147598  95.2424335  41.2699080
  70.4744816  95.1857948  42.7632427  90.6025791 102.4353409  43.7473345
  89.7045803 102.7175426  43.5735846  90.5891705 101.4896297  43.6001062
  69.9520922  82.0676041  39.7148824  69.9258137  82.9467678  40.0925303
  69.1351652  81.6592979  40.0014973   0.7320093   9.9971247  58.9743423
   1.3670181   9.7771025  58.2927370   0.8148836   9.2914248  59.6157074
  27.0046019   7.6064063  53.4736443  27.6120829   8.2170439  53.0561209
  26.2448000   7.5889445  52.8917265   4.5845102  28.2272483  62.7312708
   4.2984938  28.2058955  61.8180513   4.3936228  29.1192771  63.0212498
  83.6576713  37.7453185  42.5450325  82.9976667  38.1207705  43.1278324
  83.9949621  38.4931422  42.0518589  44.9230659  54.5252042   1.2327308
  45.2374256  53.8803011   0.5990809  45.7197178  54.8972994   1.6110629
 103.3020496  88.7801743  62.8481340 103.8579273  89.0894222  63.5633945
 103.8940144  88.2855988  62.2813797  12.7867674   4.1009570  78.2460642
  13.1203913   4.6431876  78.9608431  13.1859373   4.4706774  77.4585342
 103.7484802   7.8244830  79.0100384 104.4484771   7.5529147  78.4163380
 104.1999115   8.2829142  79.7187567  95.2985634   8.3000327  53.9958000
  96.0767235   7.8372431  54.3064737  94.6836151   7.6046706  53.7622881
 113.9147676  23.6279155  77.7206945 114.7799553  23.5737849  77.3147964
 114.0271677  24.2462874  78.4426498  10.9575914  49.3916751  55.7013559
  11.8988108  49.5645095  55.6797504  10.8888792  48.4708739  55.9536219
  52.6565254  75.6142336   2.7959270  52.7770126  75.4896837   1.8545455
  53.0355346  74.8294645   3.1918067  93.9277900   1.2690688  53.8467932
  93.4129633   0.4624224  53.8691521  93.4274162   1.8569613  53.2808924
  13.1041788  75.9057570  37.8766656  13.4712099  76.7321158  37.5626278
  12.2292494  76.1357833  38.1894445   3.6035799  29.5729495  67.6433039
   4.0934538  29.9032164  66.8901920   4.0470099  28.7579871  67.8787661
  94.3713093  92.2409630  71.3191414  94.5627213  91.3059711  71.2457085
  95.1461983  92.6730156  70.9598351  73.7113762  99.8299408  46.6034746
  74.2668438 100.4939842  46.1951399  73.0892372 100.3299904  47.1318007
 103.5138893 102.8194332  72.6875448 104.2753601 102.5037003  73.1740713
 103.8559628 103.5254288  72.1391106  43.5973429  24.2705966  68.9479923
  42.7946352  23.8595725  69.2688608  43.3826994  25.2015639  68.8890743
  95.7800293  99.3568039   9.1079366  95.9898949  98.4387207   9.2791218
  95.3973484  99.6717358   9.9268430  11.7761383  81.1676693  79.2110252
  11.4122353  81.7363834  78.5325241  11.4240990  81.5163708  80.0300026
  14.7332631  96.7546368  45.3450394  14.1899643  96.6684723  44.5616913
  14.1062317  96.8265820  46.0646772 114.3805946  43.0338526  36.7607903
 115.0818933  42.6816130  36.2127566 113.6893429  42.3730422  36.7192888
  62.0335674  90.5813885  50.8238792  62.9768801  90.5668831  50.6620646
  61.9182491  90.0558376  51.6155434  99.6806622  98.2184029  50.8534861
  99.4558525  99.1452694  50.9347582  98.9412689  97.7570152  51.2492657
   9.8417353  42.7693701  55.1380587  10.0956606  43.4185172  54.4820356
   8.9721178  43.0471850  55.4258299 115.3061403  29.8471118  71.4565802
 115.0446714  29.1666747  72.0769596 114.5125974  30.3647757  71.3203573
 106.0370601   6.4423323  51.0538816 106.9290460   6.7869616  51.0965586
 105.5558599   6.9407416  51.7143822 111.1310734  28.2212210  61.9892263
 110.5028881  28.0860854  62.6986980 111.9825996  28.0342818  62.3844337
  59.7849369  99.6689796  78.4639502  59.9081087  98.8578701  78.9570570
  60.6186485 100.1311398  78.5509682 114.5172228   9.5280600  59.0084457
 114.3420900   8.7624980  58.4612131 115.4516615   9.4711447  59.2079687
  95.6762123 105.4888630  33.1771684  95.5979061 104.7156715  33.7359810
  96.3376713 106.0299873  33.6083031  95.3184032 104.3390942  74.7506571
  95.8924675 105.0006390  75.1367044  94.4373322 104.6015358  75.0172472
  90.2155685 105.1137733  80.7838058  89.8179722 104.8114491  81.6003513
  91.1498547 104.9359703  80.8921432  85.6698860  17.6863909  48.9531994
  86.0362066  18.5650302  49.0533257  85.4986347  17.3948146  49.8486805
 112.6181186  31.4069415  54.9524164 112.6783098  31.3759089  55.9072208
 112.0374311  30.6806803  54.7253036   9.4220423   4.2729903  81.1713028
   8.9166712   3.5497618  81.5424919  10.2870821   4.1916609  81.5729427
  62.9328680 103.5791779  94.7208309  63.8746691 103.7391090  94.7813416
  62.8098345 103.1993675  93.8508701  91.9992924  88.5074043  46.2422657
  91.0619450  88.7013149  46.2433720  92.1527863  88.0623341  47.0756865
  15.8332705  23.4528495  74.5997286  15.1706385  23.9720011  74.1440630
  16.3220381  23.0204535  73.8994598 114.1770614  16.8193389  50.4915905
 114.3460239  17.6565505  50.0594282 115.0410570  16.5138102  50.7679987
  56.7958164 101.5342808  33.8117361  56.1596918 101.2750530  34.4783473
  56.7774343 100.8215237  33.1730914  73.7357998 109.7498798  87.3850822
  73.8721561 109.4768429  88.2923222  74.5781279 110.1164341  87.1160984
  81.3263893  67.7708960  61.5682459  82.1593475  67.9016447  62.0213652
  81.4025211  66.9024754  61.1729240  71.0633993  98.4980965  37.1939754
  71.9067430  98.7699413  37.5560617  71.2515593  97.6773739  36.7387414
 106.0233701  16.6341925  63.9343643 106.4109482  16.3035632  64.7447300
 105.9350837  17.5764132  64.0781116   0.5874168  99.4607603  48.7553787
   1.2968575  99.5622193  49.3899107   0.8843170  99.9447065  47.9847431
  58.4882713 108.0439755  50.9620714  58.8395716 108.0482370  51.8524647
  57.5535203 108.2179446  51.0725546 106.8089057  81.1024880  51.3313103
 106.2751366  81.8535971  51.5904522 107.5979162  81.1725568  51.8686962
   0.5407845 105.8607575  54.6394396  -0.0038017 105.4366397  55.3026009
   1.2817513 106.2166988  55.1298523 109.8528648  95.4376804  40.8074617
 110.6290866  95.9969734  40.8375406 110.1356507  94.6612858  40.3242731
  86.8155200 103.1766062  32.9725790  86.7473240 103.1831008  32.0178342
  85.9096337 103.1227451  33.2770467  43.5263920  47.3278809  53.7095451
  43.3341694  48.2654381  53.7258339  44.1299963  47.1944046  54.4403505
  51.4836502  10.8408475  52.7426052  52.2932768  10.5146134  53.1354332
  51.4112043  11.7421103  53.0567837  84.1968341 100.3473460  62.7809095
  84.3605472  99.7547960  63.5146093  84.3287415  99.8065256  62.0022249
 112.9624580   1.7382976  61.1449099 113.7778228   1.8120810  61.6408634
 113.1100573   1.0036758  60.5492783  47.6124954  21.0721612  33.1697536
  47.7735662  21.8151426  33.7513590  47.0137501  20.5092287  33.6605144
  35.3790736  17.4915278  47.7300549  35.1787233  16.8548155  47.0439863
  35.1637959  18.3389962  47.3405886  16.5608275  23.6862201  93.1011162
  16.9392669  23.0393023  92.5057059  16.0327279  23.1706662  93.7106597
  32.2726130  30.5914140  22.9709077  32.2150540  31.5401053  22.8573108
  31.4136600  30.2654672  22.7022243  40.2350569  31.9219756  28.5369992
  39.5249033  31.5768671  29.0781236  39.8019695  32.5154901  27.9234791
  99.5298053 110.0291502  33.9917231  99.6812082 109.4381115  33.2541704
  99.4915105 109.4538068  34.7557545   0.6803523  68.0036544  35.2580690
   0.2008902  67.7207660  34.4794011   1.5548359  68.2209157  34.9351048
  22.3347068  34.7825050  29.3430233  22.8329921  34.5911646  30.1375866
  21.7985582  34.0020514  29.2027736 109.7794362  25.9182644  94.0563107
 109.4246074  26.8063927  94.0168381 110.5128928  25.9803534  94.6682072
  54.2774916  28.4765959  55.5342245  54.6810341  29.1908479  56.0274076
  54.9555731  27.8023863  55.4909563 101.7044116 106.2914115  58.0883551
 102.0274449 106.0867303  58.9658451 102.1885348 105.7009303  57.5111294
  30.3592777  12.3699617   1.0379406  30.3529119  12.4632740   0.0853210
  30.8871818  11.5877962   1.1984608  44.7661591  10.3188932  37.0209527
  44.8719072   9.9292994  37.8888607  43.8194513  10.3384948  36.8809509
  16.6996026   4.3164724  35.6845355  17.3325634   3.6068439  35.7941747
  17.0855129   4.8801687  35.0140500  49.4215059   5.4492241  36.6001916
  49.5375681   4.6829605  36.0384083  48.5891676   5.2947998  37.0469618
 109.1227890  95.7483649  58.2901239 110.0023604  95.8086669  58.6628866
 109.2169691  96.0838329  57.3985958 114.2672182  57.7059221  62.7506113
 114.7170783  57.9994201  63.5428953 113.8878919  58.5033511  62.3812151
  56.4721727  50.0415230  28.0718470  56.3217068  50.7233095  27.4170494
  56.6667080  50.5213785  28.8769078  67.2143460 105.8038633  17.6145148
  68.0108524 105.5802413  17.1330559  66.9627214 104.9906033  18.0521500
  23.4164834  29.3390584  51.7520857  24.0140271  28.5914993  51.7701912
  23.9908838  30.1041126  51.7206526   3.3421648  12.0051837  44.1421461
   3.2656530  11.8876493  43.1952763   4.1564262  12.4949408  44.2576790
  14.5365739  19.4144499  41.3845682  14.2911017  18.5376203  41.6797733
  15.4937303  19.4064844  41.3801956  58.6883546 110.0318157  57.3827505
  58.8144577 109.0964025  57.5419140  58.2879067 110.0751759  56.5144253
  11.9967890  45.4426622  17.7449143  11.8398035  45.7873201  18.6240029
  12.1433949  44.5060968  17.8774941  32.5206017  24.0645742  77.2066784
  32.3267603  24.9925733  77.3388767  32.7922034  24.0047336  76.2907743
 113.5770323   0.7558914  34.3258834 114.2678993   0.9955084  33.7082124
 112.7627396   0.9306021  33.8540411  33.2824755   8.4577328  55.6774187
  32.3638868   8.2100368  55.7826471  33.4945989   8.9369309  56.4784193
  23.6927509  30.5196404  76.9990826  24.2733073  29.9536276  77.5078201
  23.3860922  29.9652362  76.2815619  21.3392568   0.5542991  62.3546982
  21.5938830   0.8886035  63.2147217  22.1209812   0.1070133  62.0305490
 100.0883580 103.1536650  92.0526886 100.6412340 103.6004727  92.6937294
 100.7055736 102.6976507  91.4805698  62.8504373  78.0125880  59.0946674
  61.9074393  78.1544017  59.1775894  63.0914284  77.5344919  59.8881292
  81.2714551  79.4709157  64.5880032  81.9931740  80.0177287  64.8984051
  80.8780081  79.1179442  65.3860283  19.5010364  14.2270625  71.0728741
  20.1030064  13.8135386  71.6916323  20.0007319  14.2910254  70.2589655
  65.6240451  35.1534218  93.7269594  65.3826153  35.3320796  94.6358182
  64.9279678  34.5823283  93.4020635  30.6944084  35.7960153  32.4040747
  31.5187573  36.2680125  32.5219631  30.0521469  36.4796472  32.2133446
  49.3485641   8.4191817  12.0576429  48.7701130   7.6741189  11.8948424
  50.2222347   8.0970299  11.8359411 103.9946009  91.8140244  45.6745243
 103.2502867  91.2181246  45.7589769 104.7613550  91.2635946  45.8337212
  41.7653084  27.4098945  50.2665901  42.1959639  28.2028913  50.5858421
  41.0483456  27.7304530  49.7193813  59.8052645  21.3275647  47.9189825
  60.7614326  21.3675427  47.8996134  59.6025419  20.8231759  48.7068462
  21.6516304  51.4092350  71.9182253  21.3229132  51.7015934  71.0681057
  20.8825397  51.0525084  72.3626089  15.6067443   8.9523530  67.6484060
  16.2362146   9.3586004  67.0526171  16.1342895   8.6615425  68.3922863
   6.1674887   6.8120074  46.8722010   6.1808467   6.7470294  45.9173012
   6.9959658   7.2365320  47.0949936   8.1894749  40.3670311  46.3995695
   8.5895342  40.7413816  47.1844530   8.6609197  39.5459652  46.2587833
  18.4910952  88.8040065  71.1859083  18.2217966  88.1452321  70.5458069
  19.3699919  88.5340380  71.4521551  47.7678919  19.9012244  55.2360916
  48.1176424  20.5959582  55.7939911  48.1755972  20.0509667  54.3831015
 100.6792069  92.1762347  33.2882643 101.4540268  91.7144822  33.6086869
  99.9487019  91.7715728  33.7560701  30.5578113  17.9685128  55.5033159
  30.4055834  17.0813525  55.8289003  31.3503551  18.2570446  55.9559250
  30.6741381   5.8001131  12.0275259  29.9645710   5.8973092  12.6625872
  30.7032132   6.6405874  11.5703738  29.1990649  86.4869260  82.4808788
  29.0028511  86.7962074  81.5965271  30.1098524  86.7423415  82.6273727
  60.1118851  28.1551266  25.6426764  59.8533249  27.3447895  26.0816884
  59.7338438  28.0838203  24.7661877  49.9564314   6.2129080  24.4657469
  49.6979618   5.3346539  24.1862941  49.1638088   6.5838242  24.8535562
 110.7038512   5.7505840  27.2128677 109.9646904   6.3587540  27.2145939
 111.1597832   5.9254104  28.0361485  52.0382929  15.2697301  27.0576167
  52.7652884  14.6685994  26.8952847  51.5246153  14.8444545  27.7442837
  25.4742742   8.0002511  51.1013842  24.7483587   8.4652156  50.6853485
  26.1160755   7.8825432  50.4010534  44.1334677  32.4974942  52.4969673
  44.8006296  33.0004072  52.9640913  43.3029222  32.8106546  52.8552294
  98.2038165 102.1875393  38.2891655  97.6199890 102.2482424  39.0452695
  98.8904930 101.5803599  38.5649180  10.6545079   0.6473454  29.6545362
  11.5380502   1.0144340  29.6833444  10.7898545  -0.2956495  29.5614052
   0.1405593  31.7239428  30.4490709   1.0069637  31.3394403  30.3159046
   0.2183842  32.2115684  31.2690687  53.8031673   8.9901620  17.2879279
  54.6107101   9.5033824  17.3146284  53.1036949   9.6435052  17.2985685
 107.9234513  50.3931761  28.7235308 107.6288935  51.2762547  28.9463162
 108.1306239  50.4381514  27.7901030  24.8951912   6.9513798  57.6855183
  25.4690909   6.6108948  56.9992685  25.4056287   6.8628204  58.4904051
  58.0804777  29.6593618  67.0504475  59.0344191  29.7308826  67.0838451
  57.8225899  30.2311707  66.3274288  37.2178674  22.0704699  22.7131915
  36.5192652  22.6241469  22.3644400  37.7031422  21.7818379  21.9402552
  17.1795774  25.1259518  85.7587719  16.4410663  25.0067091  85.1616001
  17.7795076  25.7025361  85.2856350  89.3808509  79.9394488  48.4378386
  89.6070803  79.4940686  49.2543507  90.2037967  80.3277802  48.1408691
  96.5944673  88.1439685  38.5788608  96.4359547  87.6300573  37.7870250
  97.4684108  88.5137367  38.4534574  75.1143360  10.7216966  27.6508927
  74.6522236  11.2315059  26.9854736  74.8446274   9.8174876  27.4899721
   7.4824679  46.8473101  74.1404581   6.6556579  47.2275877  74.4371176
   7.2316658  46.0204887  73.7285185  15.8290017   8.1661808  44.6148300
  16.3321865   7.6232809  45.2217054  14.9154854   8.0078167  44.8528194
  87.0326270  99.3495297  34.6055245  86.5926922  99.7319304  33.8462758
  86.6649021  98.4686684  34.6769023  11.7436743  14.8571658  45.6297731
  11.4486647  14.3479848  44.8748302  12.0410633  14.2008603  46.2598991
  32.5296521  17.9968321  50.2887106  33.1852508  17.9884696  49.5913219
  32.5952554  17.1300673  50.6895161 110.2521707 100.0666761  32.0750976
 109.6068645  99.7966253  32.7284622 110.9574867 100.4646998  32.5853348
  27.7381444  30.2611542  17.6557350  28.3859873  30.3054047  18.3589935
  27.2930598  29.4248152  17.7923763  47.8879356  23.3066869  15.1054144
  47.5375319  23.5558844  14.2502248  47.1799040  23.4998870  15.7199013
   3.6230217  99.6711993  23.3053923   3.7657105  99.9349611  22.3963809
   3.5786902  98.7155639  23.2733512 107.0244302   4.6841866  41.4198828
 107.3612179   3.9579642  40.8950949 106.6885730   4.2697772  42.2146797
  30.3118420  34.6252728  48.7222099  30.0670981  35.4929590  48.4005690
  30.4916859  34.1182899  47.9304695  34.2460990  48.7964487  37.3521447
  33.5194969  48.1750298  37.3061490  35.0278044  48.2470751  37.4100637
  29.8936987  37.7245164  56.0026264  30.0950861  37.9081941  55.0850534
  29.1713428  38.3164716  56.2124348   2.1741283  36.7556357  77.0993567
   2.6517922  36.4944577  77.8866673   1.3160899  37.0327115  77.4206543
  38.8521481  11.1745918  83.0046558  38.9993262  12.0366049  82.6154232
  38.6964822  11.3539135  83.9319324  13.4038758  38.1692481  43.9360523
  13.5168028  39.0485406  44.2970562  13.7015915  38.2425618  43.0292845
  61.5111256  13.1723189  37.4127555  62.2072506  13.6928320  37.0118618
  61.4828777  13.4699833  38.3220553  53.7040997   8.6923486  45.7936049
  54.0025902   8.7398338  46.7018318  53.0348539   9.3733096  45.7255220
   0.1429712  95.2879297  42.1139145   0.8417093  94.6343731  42.1432447
   0.5891620  96.1059188  41.8947363  57.3189640  17.6318812  76.3817406
  56.6868353  17.0795619  76.8417311  57.8154659  18.0597234  77.0793581
   8.9274293  18.6075866  70.7106304   8.1705910  18.3926022  71.2557983
   9.6736443  18.2321072  71.1779737  28.3333874  10.3757942  49.1348600
  28.5899615  11.2902510  49.2538977  28.5735202   9.9505460  49.9581051
  21.9846439   2.6951566  58.3182287  21.4283681   2.5462040  59.0828228
  21.4909983   3.3136725  57.7797318 105.7395364 103.0293595  62.7921391
 105.9427167 103.7189239  63.4241581 106.4081741 102.3613035  62.9433250
   9.5784533  -0.0778179  46.3494921   8.8038349   0.0093032  46.9050169
  10.2012861   0.5556355  46.7059326  34.6133518  47.8533268  62.3330307
  35.2265048  47.9682541  61.6070366  34.6117330  48.6990547  62.7813339
  35.4590297  42.0440722  34.9354219  34.6773577  42.3535204  35.3930879
  35.5587554  42.6459551  34.1978455  36.0610962  24.7796726  42.5030661
  35.6694651  25.4414058  43.0731249  35.4892492  24.7557211  41.7358351
  75.0793196 103.0363172  31.7079663  75.6697960 103.7877070  31.7625880
  74.7440828 103.0597990  30.8116984 102.5693775 100.4242247  94.7056103
 102.5872422  99.4772374  94.8439121 102.4863316 100.5262875  93.7575054
  66.6987837  78.4629469   2.1897048  66.1585702  77.9982619   1.5505904
  66.2063683  78.4028487   3.0083293  56.3970852  16.9779134  57.8039837
  55.6320715  16.7873597  58.3468294  56.0705471  17.5753868  57.1312046
  92.9164447  38.9808249  49.8978758  93.6912861  38.6698103  50.3659868
  93.1680789  38.9553833  48.9746952  88.2463075  97.2298848  38.4907126
  88.5516811  96.3291549  38.5987163  88.7626089  97.5719415  37.7608752
  80.9309123  96.4044964  30.8698559  80.1955993  96.6461157  31.4330316
  81.4775253  97.1896910  30.8395863  24.5057750  19.8772931  38.7238860
  25.3197694  19.4918847  38.3996844  23.9733028  19.1265166  38.9866424
   6.4395523  14.2485881  39.9653983   6.6485167  15.0081277  40.5091476
   7.2866523  13.9516389  39.6330214  15.0555599  30.9918356  40.5901670
  14.5537269  30.5954909  39.8779130  15.6378257  30.2938557  40.8902025
  56.2889277 108.8974560  41.8866110  55.4389559 108.4795431  41.7482996
  56.5154730 109.2676295  41.0334539  19.8915184   8.7879992  27.3265433
  19.8359168   9.6244824  26.8645525  20.7142973   8.4023947  27.0255876
  47.2430706  16.1310947  21.9072533  46.9563866  15.8769131  21.0300779
  48.0914497  16.5523350  21.7692804  51.7256212  21.7816949  31.4667368
  52.3524857  22.4562836  31.7278886  52.0032930  20.9993458  31.9432449
  13.6941372  89.4505691  70.7924509  14.4995056  89.9644613  70.8518648
  13.0049454  90.0519108  71.0746574 112.8920055  94.2442273  51.0315895
 113.4124328  94.8733687  50.5320168 113.5005713  93.5317599  51.2272167
 107.7919151  22.4696279  57.0014191 107.7272286  23.4178519  56.8877697
 106.9071068  22.1469903  56.8303919  21.0196781  25.4228234  43.5714197
  21.3612199  26.1046553  44.1499376  20.1579714  25.7437873  43.3055735
 102.0310927 107.1447047  27.6179862 102.3661614 106.8105938  26.7859221
 102.7518488 107.0174339  28.2348680 116.1694766  89.0689182  52.8544188
 115.8435155  88.2006358  52.6176310 115.8709408  89.1995906  53.7544346
   9.2994541  22.8485084  51.1873388   8.8149571  23.6656618  51.0700607
   8.6287600  22.2017741  51.4067411  96.6499520  93.5980725  53.7999964
  96.2480081  94.3608891  54.2156696  97.0758201  93.1304275  54.5184469
 110.2706279  30.0044107  32.2811532 110.1556255  30.4654360  33.1120944
 110.5057063  29.1114235  32.5332355 114.6189333 106.7855611  63.1479263
 114.0290714 107.4881318  63.4212255 115.2535773 106.7147043  63.8609791
  99.1605068 109.9532510  48.1693363  98.5720182 110.1030889  47.4294329
  99.1162992 109.0095393  48.3232403   5.3059851  85.5674314  54.8691702
   4.8672711  84.9834155  55.4877901   4.6340500  86.2026572  54.6217394
  54.0679121  25.7374859  42.5753832  53.1425762  25.5008554  42.5121737
  54.1650009  26.0904169  43.4598255  40.0447226  42.7487421  36.1237144
  39.3986487  42.3236036  35.5597281  40.0624895  42.2108793  36.9153094
  23.1803036   0.8953213  39.1834593  24.1273975   0.7998762  39.2841363
  22.9009891   1.3586514  39.9731064  13.6788130  21.3727570  34.6173692
  12.7452779  21.5836191  34.6005964  13.9968550  21.6245842  33.7503839
  95.2513028 103.1522697  34.6373677  94.7153521 103.3958691  35.3921175
  94.8103095 102.3875564  34.2672729 102.2881032 106.3072779  46.7472839
 103.0047728 106.9292571  46.8728161 101.5176536 106.7561825  47.0953083
  15.3676641  15.3381038  18.8908947  16.2563288  15.2863085  18.5390079
  15.3618753  14.7170150  19.6192122  44.7481775   5.9170079  93.1696701
  44.6187258   4.9973089  93.4012508  45.6952620   6.0459244  93.2210827
   5.0684136  24.8352838  46.8165159   5.9283227  24.6449661  47.1914387
   4.8781246  24.0811038  46.2586308 108.7630702 108.8164705  34.8762417
 108.2233501 108.1112161  34.5191002 108.6880804 108.7182638  35.8254313
  66.6254711  13.6981094  27.1791959  66.3341284  12.7911174  27.0858359
  65.8155966  14.2053819  27.2340393   7.9478079  46.4068127  55.3456783
   7.4991333  45.5632544  55.4034233   8.8189012  46.2399101  55.7056379
  33.5257435  45.6785870  30.0204873  32.9070592  46.3090467  29.6517229
  33.0825043  44.8338699  29.9416399  56.1442041  19.1121340  34.0252805
  55.4924488  18.4374738  34.2157650  55.7583761  19.9201834  34.3635488
  25.5138874  16.6574836  49.2097092  26.1874747  17.3369455  49.1806555
  24.6935773  17.1267903  49.0578127  53.2704639  41.4000607  55.3467083
  52.4876642  41.9406986  55.4523802  53.7951565  41.5833902  56.1260176
  46.3573980   4.2714375  42.1100092  47.3076439   4.1840842  42.0349550
  46.1142445   3.6563504  42.8019476  47.8832054  32.6182580  45.1310539
  48.5774755  33.1083846  44.6906042  47.7489328  33.0829620  45.9570408
  16.3047647  23.5062623  22.9200912  16.9443393  24.1352773  23.2540298
  16.0668182  22.9788923  23.6826468  29.4131541  33.8283014  56.0813475
  29.5839715  32.8875208  56.0367632  28.4613824  33.8955593  56.1577559
  33.9399385  48.7662220  46.2657881  33.8544226  47.8348207  46.4692688
  34.8640156  48.9614964  46.4212942  34.3787122  47.1952057  51.8639708
  34.3471336  46.3585472  51.4000368  33.4603953  47.4347973  51.9885635
  34.8135018  25.3458333  56.0305166  34.2009974  25.1114249  55.3332901
  34.2844534  25.8372593  56.6588783  12.4972045   3.7198821   0.7591677
  13.0655181   4.0724361   0.0743632  11.9160831   3.1137735   0.2996435
  22.3257052 108.9781278  76.4180660  22.8721415 108.3650223  76.9097376
  22.0551239 108.4881898  75.6415510  14.2839110  35.4864216  55.5040455
  13.7016428  35.5500937  56.2611055  14.4902420  34.5540380  55.4383230
  27.5449967  17.7162540  78.3191586  28.2996392  18.2805717  78.1509542
  27.7974916  17.2006369  79.0850687  20.5696249  28.7901664  31.5580058
  19.6855187  28.7960315  31.1911893  20.6225538  29.5982289  32.0683622
  90.0817967 106.3640570  59.3012476  90.2529801 106.8464559  60.1100826
  90.9388662 106.2877666  58.8819122  21.2103176   8.2839286  43.2349920
  21.2217116   9.0672809  43.7849569  20.5786800   8.4852076  42.5445175
  48.0107307  43.0597687  55.4710579  47.3108530  43.0117416  56.1222839
  48.3358717  42.1621180  55.4022455  16.5460181  28.9873481  17.6416743
  15.9028792  28.3048320  17.8334391  16.0496807  29.8044086  17.6895547
  11.6284895  37.8255320  36.4629912  11.3601279  36.9332075  36.2439704
  12.3072457  38.0357456  35.8216381  15.5703306  29.2021108  59.0348196
  16.2777233  29.7152853  58.6443329  15.5385566  28.4011221  58.5117149
  15.4490304  28.3688354  46.1306477  16.0822582  28.4289408  45.4153538
  15.5694735  27.4873209  46.4837122 102.9332996  94.0978419  46.8389988
 103.1515885  93.2907318  46.3729954 101.9900418  94.1999673  46.7122459
  47.1333790  30.7632971  54.2345333  46.9859409  30.4703093  53.3352804
  46.3330030  30.5202556  54.6998930 111.3762761 104.0356254  26.8336463
 110.9387828 103.2769203  27.2199059 112.1098114 103.6649977  26.3429379
 107.2729922 100.4173594  58.6320734 106.7011095  99.6959447  58.8942623
 106.7478944 100.9272128  58.0151844 113.1109430   5.9424073  54.4889545
 112.5842681   5.5456883  55.1828241 114.0003446   5.9578234  54.8424482
  30.8696151   6.7671031  36.6767502  30.4566479   6.3565546  35.9170532
  30.3170633   7.5245637  36.8695521  13.0514038  26.1997008  41.0408115
  12.6352727  27.0617080  41.0442305  12.5792968  25.7031775  41.7092514
  29.1411686   3.5556510  58.4526491  29.0207362   3.2061109  57.5697279
  30.0885653   3.5417429  58.5885906  26.8093562  42.5453758  66.6047668
  27.0213103  42.9083872  67.4647284  27.6562762  42.2969675  66.2342930
 112.7324902   2.8920764  36.0114837 112.9354902   3.7347382  36.4176178
 113.3398866   2.8289399  35.2743864  50.2939034   7.4259496  63.9137411
  50.5336952   7.1991915  64.8122454  51.1262226   7.6327938  63.4886599
  27.8066015  32.2646856  41.6985273  28.1769729  32.2003746  42.5788212
  28.0402613  33.1449962  41.4040947   3.5495088  16.8283069  26.6460347
   4.1569531  16.4687002  27.2925067   4.0678084  17.4712026  26.1620092
  39.1968131  38.9176154  37.7241898  38.7838626  39.7000003  37.3587036
  39.5932627  39.2161870  38.5426736  10.5115163  44.5397377  52.9051828
   9.7518802  45.0785112  52.6840258  10.9379244  44.3705750  52.0650721
  34.6377611   6.4736193  41.1873579  34.8851800   7.2654414  40.7098293
  35.1713753   5.7816792  40.7965851  87.3595948 107.5539566  60.6117249
  87.3589105 107.3728827  59.6718121  87.6821745 108.4523939  60.6823254
  54.7057390  18.9835620  47.5979567  54.2313433  18.4388685  48.2260418
  55.3557062  19.4472253  48.1259680  15.0498545  40.5327845  58.0772591
  14.5977783  39.7580409  58.4113789  14.6448386  40.6978369  57.2258186
   5.5346715  45.3120947  46.2921000   5.9807289  44.4963169  46.0645723
   5.5244809  45.3206158  47.2492075  16.5200579  63.5552931  84.7543526
  15.8836019  63.7537718  84.0675068  16.1360145  62.8196764  85.2314377
  30.2138792 100.3030842  63.9086771  29.4615303 100.1776790  64.4870138
  30.4466473 101.2254363  64.0150642  38.0548906  30.0513482  57.9606199
  38.9406538  30.4023981  58.0523682  37.6246524  30.2676296  58.7878704
  37.7792954  16.6267276  35.9300113  38.6210084  16.2320697  36.1580348
  37.6258492  16.3571656  35.0244617  18.4293234   0.3607848  55.9393024
  18.4602582   0.5413289  56.8788099  18.9221203   1.0783298  55.5411673
  23.7125230  24.9473619  70.8817053  23.9731765  25.8593941  70.7532978
  24.4679594  24.5397186  71.3052320 101.0024382  99.4451582  57.2786665
 101.6052772  98.8098263  57.6648903 100.3830601  98.9140379  56.7781496
  36.1903596  32.0229721  53.8150263  36.3569760  32.9004979  54.1591454
  37.0102310  31.5500522  53.9578056  24.9599624  37.3609805  53.9463091
  25.7908511  36.9258022  54.1372967  24.5146441  37.4088192  54.7922611
  49.3754101  66.6504145  69.8500681  48.6358690  66.2512970  70.3083420
  49.2599201  67.5913000  69.9828577  95.5940081 103.8880318  58.1557226
  95.6251229 104.8352807  58.0216169  96.1223687 103.7396770  58.9399767
  21.1722970  25.5062437  71.5716219  22.0600748  25.1789999  71.4267397
  20.8960795  25.8360529  70.7165432  27.8627515  48.3026457  25.5942130
  28.7059474  48.7522078  25.6502938  27.2952247  48.9154530  25.1266575
 101.6331983  99.7730707  53.2945967 101.9972182 100.4658090  53.8458109
 102.1380211  99.8227453  52.4828577  32.3032832  41.3856888  44.5803881
  31.5847135  41.5332699  43.9654827  33.0951166  41.4869022  44.0521955
  46.1310291  10.7493544  54.8905993  45.1841021  10.6906176  55.0175381
  46.3745880   9.9051636  54.5107937  17.8944527  69.9679612  67.1532106
  17.1755968  70.5735397  66.9722366  18.5670553  70.1960134  66.5114689
  34.1636372  41.4557743  82.2428036  34.0890718  40.8671951  81.4916420
  33.4593844  41.1836052  82.8311825  60.3848935 102.7538245  39.4188142
  61.0375477 102.0722549  39.2583895  59.9900020 102.9138099  38.5616684
  34.6572280  12.6000202  79.5791054  34.0326476  12.8641093  80.2546692
  34.1118884  12.2768021  78.8619089   2.7460548  23.3763480  39.1737866
   2.4491271  23.7067652  38.3259130   3.3923629  22.7046871  38.9560962
  37.4197459  22.0749140  48.5926867  38.3046961  22.3756313  48.7992382
  37.3363924  22.2065306  47.6482487  22.6668191  42.3055410  49.9417210
  23.5360527  42.0823669  50.2746773  22.2854543  41.4657021  49.6858549
  29.7426486  30.8098412  51.6034365  28.9795518  30.9962988  51.0564899
  30.3961515  31.4537239  51.3303375  28.1153297  39.9216866  56.5681553
  27.6678991  40.5748844  56.0302258  28.9611435  40.3196955  56.7741251
  36.1958361  39.8418522  36.7614174  36.9130611  39.3803000  36.3269186
  35.6787205  40.2096319  36.0447860  37.0937395  12.1529257  35.7803249
  36.4613962  11.7331123  35.1971149  37.8206253  12.3989666  35.2081966
  54.6309710  43.9343357  31.8705893  54.9088335  43.3525801  32.5781107
  55.1284170  44.7395802  32.0133018  21.6587973  18.3978689  54.5285797
  22.5207686  18.0699468  54.2722511  21.7063832  19.3415833  54.3757010
 113.1457554  46.8832111  22.3279285 113.2039463  46.1097336  21.7670512
 113.5329877  46.6065168  23.1584263  53.8493633  13.1468987  28.4532857
  53.8232517  13.6991417  29.2346811  53.0850029  12.5768650  28.5372090
  36.1515903  24.6232319  50.9104490  36.8765211  25.0981641  50.5040646
  36.3620734  24.6182203  51.8442106  44.0995169  33.8527870  32.6947188
  43.7109184  34.0122008  33.5548401  44.1522455  32.8993225  32.6287055
  57.8928995  29.1304827  51.7409420  56.9384670  29.0578604  51.7362022
  58.2020998  28.2304454  51.6381788  52.8757572   4.9456182  63.0378819
  52.4394703   4.3559462  63.6528349  53.0921555   5.7184058  63.5596132
  33.9569259  31.0846496  40.5862141  33.4604883  31.8568182  40.8573961
  33.4179306  30.3438282  40.8635187  17.0765722  12.3249960  49.5163870
  17.6177406  11.5450919  49.3934393  17.6556027  13.0551946  49.2978334
  17.7828300  41.1566162  56.9892073  17.9405093  41.8795252  57.5964737
  16.9203556  40.8216047  57.2344303 108.2067301   2.6829335  39.6439981
 108.8668944   1.9998309  39.5265841 108.6481847   3.4904295  39.3807483
  81.8144512  15.7904446  51.6341829  82.0404053  15.9537971  52.5498772
  81.0384750  15.2314878  51.6750145  34.2892861  23.5803676  49.3907547
  35.1158786  23.7675619  49.8356533  34.4622874  23.7788939  48.4704876
  66.8853092   1.1382750  42.8321981  67.8270769   1.1707856  42.6641321
  66.4924002   1.0071294  41.9692659  58.4644413  25.1927304  34.4295621
  58.9925098  25.4471636  35.1862884  58.6815929  24.2718124  34.2847013
 105.1829482  98.9905285  35.6402993 105.6133724  98.1936204  35.3306174
 105.7902528  99.3563103  36.2834287 113.2140105  45.9932852  63.8704872
 112.9914599  46.6792154  63.2410383 113.9156502  45.4984140  63.4473658
  27.5360417  39.4860935  47.7064419  27.7363586  39.8828769  46.8587017
  27.9335809  40.0759983  48.3469200  20.5360532  36.0328126  54.1124058
  20.1797152  35.3158426  53.5878038  19.9112928  36.7485404  53.9956188
  15.1976204  40.0928736  34.2641449  15.6736398  40.8885717  34.0264511
  15.1629066  39.5836234  33.4543967  56.9810057  41.0636234  40.1310492
  56.5853834  40.8452368  39.2872334  56.9866991  42.0205641  40.1524115
   8.3419597  16.3272607  75.7484102   9.0873045  16.8936729  75.9480858
   7.7099091  16.5090430  76.4438963  15.7621694  43.6919165  60.2733660
  15.7503939  44.6397734  60.4062700  15.5024970  43.5749531  59.3595171
  45.0693750  33.7173176  44.7912884  44.9816704  34.0107679  45.6981659
  45.9349823  33.3104277  44.7538662  90.7538021 105.9245872  23.3210301
  91.1651362 105.0866311  23.1092143  89.8678769 105.6928548  23.5997224
  41.5307856  22.5988984  29.3640471  42.4778128  22.4616838  29.3408346
  41.4273024  23.5499215  29.3968916   9.8747760  13.6335087  36.6678476
  10.8158028  13.4920824  36.5644097   9.4740319  13.0757320  36.0011244
   6.6722155  54.3650532  25.4799604   7.2570527  55.0815105  25.2332044
   7.1748674  53.5714579  25.2961802  16.6495800  16.2594748  54.1711283
  16.0564172  16.2001967  54.9200439  16.4217174  17.0883787  53.7501383
   1.6253077  94.6005105  59.9246407   2.0478569  94.6123802  60.7834435
   2.3509775  94.5734977  59.3010187  10.9694457  44.7908878  43.1145763
  10.7533801  45.7218218  43.1685019  11.7832780  44.7626448  42.6114750
  34.5958042  33.0341220  47.6328468  35.5193186  32.8685284  47.8224039
  34.1335940  32.7389121  48.4173489  45.2834702  60.0939894  38.4694934
  45.4717827  60.6955242  39.1898561  46.0408401  60.1706839  37.8892016
  21.2280798  25.7183003  20.2762961  20.6560183  25.3708816  20.9606051
  21.5624833  26.5391994  20.6375861  32.4630284  24.0058208  37.8501916
  32.4097323  24.5914125  37.0948958  33.0190110  23.2845950  37.5553203
   2.8407036  93.1479155  79.2721319   1.9533144  93.1393945  78.9133883
   3.2776438  92.4094259  78.8479280  52.6795673  44.2252493  42.5012636
  52.7599764  43.3979750  42.9760075  53.2251978  44.1090393  41.7234325
 113.8972665 108.5581977  46.2832546 113.0478264 108.1571970  46.0991859
 114.4905950 108.1675575  45.6416988   7.2245944  45.3015041  52.2502661
   7.0372319  45.1602459  51.3222694   7.4339801  46.2334013  52.3131847
  49.6756935  24.4650698  81.3506508  50.5676937  24.1478038  81.2095356
  49.6744013  25.3482342  80.9815216 102.6483705   9.9522930   3.2551974
 103.3370330   9.7175365   2.6332110 101.9348314  10.2823740   2.7091712
   4.7438475  42.6995182  16.5694368   4.4944236  43.1927872  17.3509121
   5.2075887  41.9334793  16.9076061  37.0924735  12.0438135  64.9354935
  36.3382316  11.9196701  64.3593550  37.8387380  11.7317247  64.4237041
  16.9337118  30.9052944  50.0504255  16.4128268  30.9523821  49.2487431
  16.5588856  30.1710153  50.5368090  24.0603900  28.0539274  66.6667700
  24.8444247  27.5088358  66.7330885  23.7079573  28.0758429  67.5564575
  44.8704624  22.5228953  50.2386808  44.7442532  22.7761364  51.1531067
  44.3154240  23.1260347  49.7443247  94.9666191 102.1679556  49.0762377
  94.6831573 102.8685575  49.6636391  95.6711675 101.7274087  49.5513821
   3.9364895  32.8372979  49.4253826   3.0846870  32.4373889  49.2500639
   4.0176383  33.5266805  48.7662935  48.0236816  24.0133882  39.1500020
  47.3952770  24.6862674  39.4118690  47.9169846  23.3197165  39.8009014
 111.0277273   1.0753892  28.2219481 111.2611010   0.5670888  27.4451613
 111.8046560   1.6037837  28.4047413  21.6932297  44.5580149  25.8467841
  22.0444822  43.7912989  26.2995577  21.0476255  44.9197721  26.4538741
   2.3812186  82.2212052  50.5650568   3.0047737  82.9333782  50.4228783
   1.5448510  82.6616716  50.7157612  11.2288797  24.4681883  63.9299393
  12.0058346  24.1179585  64.3657303  11.2221980  24.0417099  63.0730247
   0.3364709  29.1890740  39.2301583  -0.5596329  29.3982601  39.4937325
   0.8433937  29.9655485  39.4675350  51.0910892  14.9186289  31.8364787
  50.2583742  14.4891858  31.6405201  51.2531376  14.7176743  32.7582097
  27.6344967  41.2882710  29.9998546  28.0613184  41.6439199  29.2203879
  27.9658580  41.8245840  30.7201338  11.9749856  41.3970804  42.4934483
  11.3356566  40.8102036  42.8972626  11.4639008  41.9186878  41.8746185
  25.1750016  15.0795305   7.3161042  25.6635499  15.0559664   6.4933050
  25.2994204  14.2087352   7.6935524   4.6974465  10.7252836  82.7847767
   4.6647322  10.0109899  82.1484184   5.5972451  11.0481620  82.7363682
  43.2735538   1.2570567  45.6256056  43.5755491   0.3638890  45.4604340
  44.0745211   1.7534745  45.7936954  34.5337915  13.8816309  42.3964787
  35.2392125  13.2514954  42.5432539  34.6246243  14.1330576  41.4773655
  86.0033788  22.2778130  59.2722416  85.1051178  22.6068115  59.2388010
  86.2769189  22.4199176  60.1784515  16.3126600  15.1772630  62.0822191
  15.9740043  14.4784009  62.6418066  17.2062147  15.3216279  62.3935890
  69.4188179  99.3800359   7.2800368  69.8541321  99.1406064   6.4618701
  70.1148332  99.3587403   7.9368037  53.6389542  12.4417877  77.3554182
  54.3793297  12.3561740  77.9560423  54.0264988  12.3586380  76.4841413
  50.7934046   6.2314969  33.6809444  50.7053947   5.8050752  34.5333815
  49.9248123   6.5920550  33.5026836  96.0689867  88.2661056  12.2320926
  96.0038007  87.6180243  12.9335010  96.0661806  87.7486228  11.4268374
  60.6167746   0.9339407  65.0831699  60.6902075   0.3288580  64.3451214
  60.3529978   1.7643179  64.6867752 106.7404915 101.7817795  67.3961020
 105.9686399 101.9767343  67.9275799 107.4266554 102.3445880  67.7547884
  16.1878705  46.6072369  20.6539512  17.0187092  46.3955116  21.0795236
  15.9941125  47.5005674  20.9379458  10.7438636  25.1295900  34.4948483
  10.9386194  24.2128849  34.6896553  10.2449632  25.4347253  35.2526212
   8.6165607  17.3957074  28.3137059   8.6970127  17.6891649  29.2212534
   9.2712134  17.9067647  27.8378057  38.4789133  25.4039717  31.8123245
  37.6266050  25.5762720  31.4121795  39.0420794  25.1562285  31.0790467
   0.2350884  31.0721636  64.7317934  -0.4361980  30.4134130  64.5538759
   0.6292398  30.7951403  65.5589151 106.4354744  36.5386534  42.6948738
 105.4784276  36.5538168  42.7028847 106.6655304  36.4267492  41.7724943
  90.7322884  35.1811385  26.2987590  90.2394581  35.0207877  25.4940009
  90.4839611  34.4615650  26.8790889  25.7229996  18.5455155  19.0157425
  25.0808740  19.0890121  19.4723809  25.6648922  18.8231444  18.1015337
  56.5891409  72.1623499  88.3245623  56.7742169  72.6478023  89.1284990
  55.8385396  72.6143927  87.9392230  14.0343070  19.7561288   1.1160266
  14.2079473  19.2754674   0.3066778  13.1286895  19.5369101   1.3351896
  40.8125687  16.5502894  42.6111460  40.9710026  17.2691369  43.2230186
  41.6844368  16.2979293  42.3071861  47.7336073  37.0385194  13.1990969
  47.9035187  36.6373467  14.0514016  48.4975386  37.5924706  13.0385506
 112.4176004  58.7862062  76.0524035 112.0675950  57.9138279  76.2331915
 111.7785897  59.1826534  75.4601860 111.2125393  21.8860793  71.7901897
 112.1210127  21.6404581  71.9650555 111.2173196  22.1912599  70.8829546
  43.0382395   1.2057103  92.3385429  42.4114132   0.4848162  92.3988056
  42.4994135   1.9957432  92.3803616  54.3878889  33.4724450  57.2091293
  54.8840332  34.1550088  57.6609898  54.8969412  32.6739764  57.3489523
  53.7079334  25.7778072  31.5258455  53.2345390  24.9462748  31.5520144
  54.5577288  25.5821490  31.9205594  40.6942987  26.4088464  43.7490225
  40.2416992  25.5685592  43.6762094  40.6484842  26.6256666  44.6802187
  18.8017404  10.7042420  39.0501738  19.3428481  10.9486639  38.2993793
  17.9031634  10.7540083  38.7241149 116.0851027  53.8416529  17.8169227
 115.8954841  53.4021091  18.6458266 116.5465545  54.6412182  18.0698836
  42.0030069  49.7343016  66.0220671  42.1202993  49.0178823  65.3981876
  41.1762857  49.5359659  66.4618635  46.6468334  17.8029954  44.5704842
  45.8662605  17.8957176  45.1166868  46.3063765  17.6972580  43.6821508
  87.9839719 109.1084041  40.7695484  88.6673547 109.1219082  40.0994492
  88.4618891 109.0886186  41.5986681  22.0295668  34.5090866   8.0687273
  22.9500198  34.5735502   7.8140897  22.0281076  34.6879315   9.0090704
  24.6081257  23.5053253  75.0597143  24.7405910  24.2449522  75.6527042
  23.7376189  23.6489153  74.6884584  42.5317812  51.2670851  11.2811577
  43.0644941  50.5757236  10.8881319  42.9597044  52.0804596  11.0137057
  49.8851572 101.3559424   8.6363423  49.5687472 101.6782247   9.4802928
  50.3627192 100.5543309   8.8498491  45.1930237  45.6872177  48.4880114
  45.3940010  45.4708672  49.3985224  45.4792500  44.9209023  47.9909515
   0.4407703  90.0675344  42.5282526   0.7071625  90.7392763  43.1559753
  -0.3260459  90.4383957  42.0915794  19.9361157   2.2933468  72.8426981
  19.4887388   2.9205146  72.2745895  19.2323112   1.7589274  73.2105064
  42.1124697  42.4882030  32.2268796  42.3872328  43.3899784  32.0609355
  42.6852512  42.1894264  32.9331994  24.5101595  57.6617002  25.7638431
  23.8601565  57.9163265  25.1089430  24.1095257  56.9248009  26.2250423
  57.6354122  29.2674923  54.6913910  57.8272247  28.3328509  54.6146727
  57.6253128  29.5848370  53.7883854 110.0890525  54.9233770  51.7790222
 109.4070890  55.4687452  51.3869333 110.7368024  54.8126221  51.0830450
  39.5628381  39.0178370  46.8370914  38.6966729  39.2984271  47.1324873
  39.9546790  38.6019182  47.6050091  72.8006983  27.2654366  52.7085876
  71.8974495  27.5763369  52.7695513  73.1058216  27.2366762  53.6153984
  48.0903053  37.8624225  32.6529980  48.0019569  37.9654360  31.7054653
  48.3818817  36.9581842  32.7694607  17.4213278  10.1497602  45.3493547
  16.8403685   9.4402176  45.0750065  18.0901253   9.7193342  45.8819675
  48.0749607   0.6083240  63.2265091  48.5799122   0.0216644  62.6634073
  48.7096691   1.2603828  63.5234785  25.7743144  25.6562138  46.4944220
  25.5923319  25.0386596  45.7860851  26.1996770  25.1276374  47.1696329
  17.0858227 105.4364034  24.0183258  16.3304030 105.0188720  23.6045146
  17.8031241 104.8159396  23.8889480  39.7412562  12.7997720  24.0670705
  40.5519009  13.0720448  23.6370111  39.0458393  13.1754804  23.5271883
  47.7327728   7.6739746  27.7915716  47.7255964   7.6560563  26.8345666
  48.4697247   7.1142000  28.0360866  23.6740422  16.1062932  76.9669485
  24.3275881  15.7438660  76.3688231  24.1175199  16.8421578  77.3889256
  27.5203347  31.3961363  46.9128084  27.6670909  32.3409414  46.9579411
  26.6282821  31.2764812  47.2386217  63.1475163  40.0745630  40.1575708
  62.9054499  40.1263428  41.0822058  63.9859629  39.6127892  40.1549864
  69.6805668  48.2949734  46.7497730  69.7152233  48.3307552  45.7938719
  70.0268221  47.4301434  46.9697905  57.6121426   3.7800920  62.6921701
  57.8660345   2.9245955  63.0384302  57.4642038   4.3187752  63.4694529
  35.5104113  20.3010654  46.9238043  35.0573730  20.9604764  47.4493170
  36.0304737  20.8077598  46.3000822  19.8043633  23.1024790  68.8353825
  19.3774986  23.9592052  68.8292217  20.6714988  23.2642555  68.4637165
  43.7173510  21.8792915  43.3471918  44.6416187  21.7750335  43.1211615
  43.7007046  22.6219487  43.9508629  19.3473256   8.5373396  41.0186625
  18.5019791   8.3668256  41.4340496  19.2559588   9.4115490  40.6396627
  48.8383102  42.1922159  60.3499222  48.9561987  41.2869787  60.0620365
  49.1941309  42.7193260  59.6345377  24.9464488   3.3413911  21.6205716
  24.8042250   3.9161834  22.3726463  25.0035834   3.9356524  20.8723593
   6.5229952  16.9270039  77.7356720   5.7838881  16.9192111  78.3438587
   6.8835592  17.8107250  77.8082132   5.0189911 107.9902429  38.0126500
   5.1017081 108.1480487  37.0721793   5.3843771 108.7754408  38.4203124
  88.7376559  45.4467142  91.0355770  89.3632948  44.7282690  90.9426248
  87.8818190  45.0183547  91.0524297  23.5561848  18.2218075   8.4328169
  23.1434774  18.0299568   9.2748958  23.8057184  19.1439509   8.4929514
  25.3866529  29.7377658  22.5480747  26.0377955  29.0781808  22.3089337
  24.9369049  29.9389029  21.7274022  57.7612925  48.3995914  37.6605487
  57.8987551  49.2965126  37.9652882  57.3865557  48.4987736  36.7853522
  20.5729723   0.9715512  26.6855645  21.5101099   0.8037947  26.5862441
  20.5197001   1.6310950  27.3772264  16.7038715  49.7894716  74.8082733
  16.9115639  50.6895876  75.0590420  16.2203836  49.8752403  73.9866209
  52.9020739  32.6761842  35.0564289  52.1778631  32.2643352  34.5851207
  53.4724140  31.9480038  35.3027916 111.0324264 103.1359749  35.0674009
 111.6916896 103.3649545  35.7225108 110.3656150 103.8176929  35.1502013
   1.7064892   6.9037503  44.7595263   1.3218227   7.1730316  43.9254093
   2.1426150   6.0740846  44.5654106 102.9702688 104.5005929  56.6192150
 103.4496618 104.3749207  55.8002996 102.8517152 103.6161362  56.9655037
  58.5495281  81.5864605  95.2109292  57.6712048  81.3432020  95.5035120
  58.4017813  82.2387022  94.5261060  44.4659758  25.2749825  60.7677269
  44.1420650  26.0058618  61.2941599  45.3711987  25.1555490  61.0550213
  38.2690263  22.5397730  27.8356218  39.1145897  22.4306679  27.4004817
  38.0501771  21.6649437  28.1565738  20.2413641 103.5476845  55.3090096
  19.6384703 102.8243785  55.4809904  21.0140358 103.3461057  55.8368158
   8.4296113  25.8942056  36.4994383   8.5806614  26.3114882  37.3475480
   8.7942225  25.0145602  36.5969801   9.4617593  45.6030226  75.4154158
   9.3100762  45.5621576  76.3596344   8.8149816  46.2321854  75.0959396
  16.0187101  13.9579737  41.7970943  16.0826170  14.0978849  42.7418518
  16.5103376  14.6842504  41.4136124   4.0623699 102.6757085  54.2229462
   3.2016884 102.3521232  53.9569569   4.0713059 102.5777917  55.1750803
  41.9243288  54.0284204  54.0962601  41.0073566  54.1739607  53.8634205
  42.2141743  54.8642254  54.4618511  35.3354549  35.4957509  92.0652962
  35.2776003  36.4504385  92.1034431  34.5050740  35.2208161  91.6765690
  28.5853648  45.4356337  41.4408827  27.6410556  45.5451250  41.5527916
  28.8571906  46.2021065  40.9360456  45.2711630  15.5953836  14.1884840
  44.3719006  15.7678258  13.9095199  45.6269741  16.4591241  14.3972528
  47.8539610  41.3985109  46.8921375  47.5796795  40.7067776  46.2900543
  48.7103987  41.1132383  47.2105122   9.7787762  20.8869004  44.6781349
  10.0780678  20.0987840  44.2247772  10.3390443  21.5852857  44.3396235
 100.8835174  87.7989888  12.9554021 101.2082148  87.0844530  13.5033441
 101.6017462  88.4314536  12.9361498  95.0141335  41.7154837  45.4644346
  94.3398476  41.7860174  46.1401510  95.2499580  40.7878160  45.4573107
  26.5234314 100.4243737  29.9441814  26.7290388 101.2398254  30.4013419
  26.5168272  99.7590875  30.6323552  72.6769543  27.3948908  25.1841688
  73.4883165  27.6048374  25.6466031  72.3649836  26.5914369  25.6005383
  35.7329297  35.9381652  36.5708542  36.6793513  35.9164286  36.7124271
  35.3579712  35.8852458  37.4499655  40.4214001  45.2812052  64.0678978
  39.5895171  45.0404501  64.4756222  40.9994602  44.5396185  64.2471361
  37.4691439  29.5560694  34.7227836  38.2679868  29.9619293  35.0594735
  37.0413637  30.2497077  34.2206836   4.1680446  30.0934386  16.8681681
   4.6544605  30.4199672  17.6251423   3.3636424  30.6121635  16.8584383
  10.1105487  38.7814021  59.1899109  11.0196304  39.0437508  59.3347406
   9.6310276  39.6069884  59.1213608  71.5512323  49.1996622  21.7862153
  72.4624920  49.4185448  21.9809699  71.6006565  48.3718920  21.3081098
  25.2652574  20.9466314  30.8292484  25.9091043  20.3603220  31.2266588
  24.5640874  20.3665233  30.5324864  51.7494774  27.1815276  40.1576805
  51.9844627  27.7876806  40.8602428  52.2996616  27.4449754  39.4200373
  36.2160301  16.6907120  29.5626831  36.7729950  16.9932306  28.8453937
  35.6839085  15.9954035  29.1758728  42.0853472  31.7225409  70.3973770
  42.0243740  30.7991433  70.1527405  42.5581264  31.7191029  71.2296629
  58.1810331  37.6949406  56.1320066  57.5835180  37.0026064  56.4146423
  59.0523386  37.3068285  56.2121582  75.4653502  44.7298479  47.1504354
  76.1075735  44.0817833  47.4399090  75.2943373  45.2614069  47.9278898
  30.1051450  47.3589754  27.6661444  30.6727004  47.5450897  26.9181657
  30.1813889  48.1336069  28.2232499  43.7950993  33.4543729  47.6071692
  44.2837095  33.0073166  48.2982779  43.3667946  34.1860294  48.0515385
  63.4069586  50.1884651  41.6229391  63.3202696  49.9110079  40.7109451
  62.6371002  49.8228931  42.0587206  62.0353127  48.7298679  34.5665598
  62.3128891  49.5746613  34.2122793  61.8708897  48.1886721  33.7943554
  56.5774632  33.5785913  48.6113119  56.2574768  34.3880033  48.2129478
  56.3938284  33.6822772  49.5449924  40.6054831  35.0815177  52.9054403
  40.6900215  35.0034690  51.9551802  40.8356714  35.9916162  53.0924273
  43.4462690  55.1931238  33.2898164  43.4940481  55.7019186  34.0991831
  42.6540422  54.6645117  33.3856297  55.5855513   2.2480635  24.5992732
  55.6308079   2.6146868  25.4823184  56.2384510   1.5481031  24.5967937
   4.9722134  98.2265472  44.6835995   4.1649424  98.6004960  44.3304634
   5.4386841  98.9739143  45.0578737  15.1956189  25.4192305  51.4562225
  14.9742222  26.2365770  51.0099459  15.2607203  24.7726417  50.7534266
   6.5063846   9.3347603   2.0200652   6.8757475   8.9529949   1.2237853
   5.7154024   9.7857814   1.7248363   7.0984012  37.6215839  75.4873037
   6.7501688  37.4946570  74.6047783   7.3157591  36.7392898  75.7882071
  17.8016077 109.2525010  28.9870882  18.1047570 108.6750142  29.6876884
  17.3141323 109.9414624  29.4386768  62.3434114  26.0668707  21.8934202
  63.1786108  26.4190841  22.2010231  61.7143536  26.7712307  22.0496035
  48.1252623  33.6731744  21.5038300  48.4024477  32.8463435  21.1091757
  48.5925055  34.3444514  21.0065317  41.1250639  42.4952173  47.4071407
  40.5399370  42.5785780  46.6542053  40.5863667  42.0873117  48.0851126
  47.2101164  42.8371716  42.8894424  47.4199438  43.5007477  43.5466099
  48.0609560  42.5554562  42.5533772  56.1160088  17.3538721  66.5858364
  56.7204618  16.6174662  66.4932442  55.3445816  16.9786060  67.0104694
 114.6206224   3.8956258  48.3865881 114.0669314   3.4819815  47.7243519
 114.0127688   4.1548660  49.0790796  33.2021689  20.4941964  38.5450459
  33.9330649  20.3147840  39.1365099  33.5462523  20.2997541  37.6732492
  54.2548752  35.6746578  47.8204393  54.2379856  35.4171586  48.7421989
  53.8560247  36.5447044  47.8074646  61.2209214  70.1248305   1.9379443
  60.3112162  70.2290742   2.2168750  61.3764037  70.8620732   1.3475818
  42.8923178  33.9440727  60.0263405  42.4112463  34.5349240  60.6057358
  42.3706675  33.9179182  59.2242002  38.1681871  53.0579519  50.7331562
  37.3725653  52.9478645  51.2538290  38.5760140  52.1919775  50.7329321
  34.3357968  53.8744259  63.2643700  34.9851584  54.4111347  62.8099394
  33.6169147  53.7870598  62.6384258  12.8519607  16.9162202  29.3188047
  12.9210901  16.2610710  28.6243725  12.3648524  17.6373398  28.9201283
  20.7664204  64.5491600  77.7901793  20.5770087  64.1750479  78.6506414
  21.6272473  64.9556732  77.8899765  56.0702085  49.4192600   7.7482003
  56.4630127  48.5686874   7.5520730  56.7335606  50.0563097   7.4829400
  39.7137809   3.0239448  67.5389528  40.4192352   2.7262190  68.1133461
  39.8777103   3.9599255  67.4236298  35.4196262  47.3038292  57.0505238
  34.4990659  47.5661182  57.0518208  35.7400346  47.5585604  56.1852598
  14.4605613  61.3929272  79.2630768  14.9650025  60.5806017  79.2195320
  13.5610580  61.1079502  79.4240522  41.3844252  23.4022760  17.9946685
  40.5653715  23.1267643  18.4063423  41.2990522  23.1251502  17.0824480
  14.5401633  12.6161432  50.3027248  15.4192114  12.3303211  50.0541067
  14.1746593  11.8745542  50.7850981  55.3798628  55.0554371  28.8613343
  56.1313009  54.7391510  28.3598042  54.6260595  54.6193218  28.4640718
  26.1747313  39.7972655  22.1747231  25.8324575  39.5588732  23.0362630
  25.4216409  40.1628780  21.7105961  41.6135979  12.1218812  70.0994539
  41.2779713  12.5529420  69.3134689  40.9815741  11.4258718  70.2793074
  50.2847052  24.4401097  48.0234385  49.5712709  23.8255119  47.8516388
  51.0530901  23.8845563  48.1544924  47.6134157  39.6356821  22.4004841
  47.0487261  40.3867292  22.5829363  48.4873962  40.0124025  22.2981691
  50.6789732  48.8531303  12.1904409  50.2974796  49.6080303  12.6385748
  50.2517891  48.8420153  11.3339221  51.1977530  37.1369958  41.2554646
  50.2417612  37.0916915  41.2717104  51.4618778  36.4180827  40.6813288
  15.4045844  57.2347260  36.8557787  16.1006093  57.8918266  36.8551707
  15.8289456  56.4366198  37.1706963  30.8992529  40.6838083  56.7083836
  31.0662222  41.5942621  56.4646006  31.1691594  40.1773739  55.9422874
  15.7788014  26.1794662  48.0186558  15.8794034  25.2941608  48.3684349
  16.4271617  26.6996336  48.4933043  36.9724655  28.2634211   6.2034655
  36.7527628  29.1742945   6.0078359  36.1506867  27.8790784   6.5087378
 106.0333873 109.4941715  78.3884430 105.2309180 109.0196177  78.1714821
 106.4470626 108.9657135  79.0709639  22.6921010  56.8563747  15.0877011
  22.8567600  57.7979040  15.1391280  22.2038388  56.7428064  14.2722666
  41.0039616  49.4064808  46.2894154  40.3264713  49.8850012  46.7671776
  40.7253551  48.4916544  46.3307524  51.1419344  25.4663897  63.3235216
  51.7202473  24.9491453  62.7629471  50.5728769  25.9350586  62.7129889
  22.8020644  32.7793574  40.0175142  23.3385491  32.2755885  40.6295872
  23.0537009  33.6899066  40.1718187  57.7402592  39.2809319  53.5490322
  58.0136681  38.8383412  52.7455425  58.5342503  39.3216920  54.0820885
  58.4948158  34.8352671  53.7249756  58.1858301  34.3446279  54.4865751
  59.1389036  35.4479432  54.0799618  46.5632010  29.8600316  41.7148113
  46.1829710  30.5898666  41.2259388  46.2904930  29.0801001  41.2315178
  36.9636369  44.6388149  50.8545303  37.7068615  44.2539930  51.3190365
  36.2404013  44.5925426  51.4798450  28.1188369  47.3650074  19.6965742
  27.5621819  47.6768684  20.4100919  27.5607419  46.7646694  19.2022538
  24.8130608  41.0561371  71.7333317  24.6151662  41.1678362  72.6631689
  24.9802256  40.1187944  71.6349506  25.5794263  34.5567441  50.5773211
  25.0321269  33.7741351  50.5123758  24.9566340  35.2772474  50.6734324
  33.6777115  14.3649507  48.6314392  33.3035207  14.8592210  49.3607616
  33.5989356  13.4488583  48.8975239  51.4757776  13.9538145  34.5176172
  51.2020636  14.5059609  35.2500415  51.0818338  13.1008077  34.7004294
  55.6076145  30.5550599  14.9810231  55.4625988  29.6604395  14.6730363
  55.2035093  31.1072588  14.3116903  37.8549337  39.4166684  50.2454948
  38.4404588  38.9616632  50.8507729  37.3488426  38.7178826  49.8310041
  20.5358601  51.8077898  37.1006179  21.2436152  51.5485096  37.6906109
  20.0221825  52.4383497  37.6053524  51.5374756  38.1478786  90.0795364
  51.7310953  37.8102589  90.9540367  51.7393017  37.4199414  89.4916534
  36.1340237  32.8516579  72.3223209  35.4697394  33.3806276  72.7640772
  35.6721902  32.4552512  71.5835381  65.4313564  27.7797174  46.1521006
  66.2811613  27.9315543  45.7385731  65.6228495  27.1949363  46.8853092
   7.7088152 108.3432280  52.7647924   7.2236763 108.7183239  53.4997606
   7.1834551 108.5611046  51.9948816  68.8503218  25.9037352  28.0171037
  69.7498226  26.2158656  28.1156349  68.8839579  25.3087640  27.2680306
  59.6701479  43.7729692  14.7490001  59.0718937  43.4084749  15.4012811
  59.8206997  44.6728468  15.0384605 101.3812757 101.4419579  44.1318369
 101.1513854 100.9545266  43.3407640 102.2827793 101.7275714  43.9836788
  39.0547442  47.8534555  41.8461323  39.9842119  47.8032446  41.6229773
  38.7067437  46.9914341  41.6180038  61.3650703  43.7392092  24.3371820
  61.3553476  43.5901976  25.2826619  62.2290134  43.4378386  24.0560889
  27.4634981  26.7533803  33.8523388  26.6446710  26.8925095  34.3281507
  27.1884537  26.4857221  32.9754448  59.3886662  12.5184584  73.2859135
  58.7072468  12.6539969  73.9443398  60.0287771  13.2090163  73.4580231
   9.7617549  60.0180435  19.4281411   9.1814107  60.6873512  19.7907186
   9.4495273  59.1978168  19.8101985  27.1213579  43.5395050  45.9089041
  27.1926498  44.4898605  45.8195925  26.8810678  43.2340908  45.0341368
  45.2869987  13.8257015  52.2753477  44.6400738  13.7935805  51.5705872
  44.8199224  13.4988832  53.0442858  12.7919400  25.2023983  47.8959513
  12.7405334  24.3374634  47.4891663  13.6978769  25.4787135  47.7575350
 105.8093835 107.5658476  52.4182796 105.6575514 107.2647756  53.3141232
 105.6300808 108.5056403  52.4478197  42.1462154  44.0611839  49.5078659
  42.5627947  44.6023178  48.8371420  41.4994955  43.5424185  49.0294695
  47.9697466  29.3194914  37.3237491  47.4515820  29.8561621  37.9235172
  48.4370184  28.7077117  37.8926182  84.8325253  39.4524741  35.7647514
  85.2403164  38.6516666  36.0943747  84.8886013  40.0681210  36.4955497
  40.6156015  54.5693302  57.0876884  40.6423950  55.0695705  57.9033279
  41.4938307  54.6648788  56.7191601  52.8363800  44.2850924  21.4458966
  52.4788809  45.0176764  20.9441495  53.5831308  44.6576548  21.9147158
  46.4774370  24.7658348  52.7080250  46.6316319  24.8642516  53.6475801
  45.8158302  24.0769935  52.6447439  62.0015335  26.0061502  31.1648011
  62.1142483  26.9565701  31.1496186  62.8933191  25.6596375  31.1943388
  30.5576611  42.0893288  63.1165075  30.5958533  42.9975653  63.4163046
  30.6715822  42.1452856  62.1677589  51.2423754  30.7312489  71.4719248
  51.5981627  31.1492801  72.2560787  50.2931833  30.8056283  71.5705729
  53.8009691   1.4010902  13.3962119  54.6369362   1.2501608  13.8373590
  53.6164331   2.3287007  13.5435784  49.6642685  40.4909420  42.3935413
  49.7406769  41.4432049  42.3336124  49.7875214  40.1837730  41.4953852
  29.1095853  50.5999851  49.2940235  29.9519038  50.1693630  49.4399452
  29.3390179  51.4776087  48.9884567  34.9438357  49.2037582  42.7431345
  34.6667933  48.3519268  43.0805683  34.4508767  49.8389578  43.2625008
  18.3493137  50.9073925  64.5437431  18.6901104  50.1437330  65.0094843
  18.0427742  50.5599785  63.7061453  81.9905962 103.7544351   7.0758647
  82.0157732 102.8551345   6.7489737  82.9062570 104.0333085   7.0805282
  29.8882937  44.4884014  51.9560051  29.8200083  45.3965187  52.2507858
  29.2947698  44.4344568  51.2069702  34.4924974  12.5091839  37.8360796
  35.0958228  13.0433285  38.3527231  33.6232066  12.7582049  38.1500125
  29.2831230  34.7863150  90.4812813  28.8425779  35.6359196  90.4631996
  28.7776709  34.2677021  91.1072159  40.9143686  40.5662203  43.0092382
  40.3550768  40.3493071  42.2633314  41.4317036  39.7748756  43.1588173
  56.1326361  13.1183898  62.1517372  56.1887836  13.8144577  62.8063917
  55.2331591  12.7980626  62.2192764  72.8567457  30.2843547  50.1265001
  72.2102785  30.9809494  50.0122023  72.8411913  29.8048949  49.2981815
  58.4074783  43.0532694  37.1610141  57.6007891  43.3727503  37.5652695
  59.0680122  43.7044811  37.3973393  24.0701151  49.7577572  28.5626268
  24.2165565  50.5424547  28.0343866  24.4640517  49.0493488  28.0535078
  39.9439335  35.7950878  33.9405847  40.0259209  35.0565696  34.5439935
  40.7168961  36.3325644  34.1134405  32.1912670  23.1294036  42.9908323
  31.6807270  23.7898898  43.4591675  32.5120282  23.5829616  42.2113276
  19.6485078  53.7892818  56.2618160  20.5741811  53.6280107  56.4444447
  19.1830695  53.1496525  56.8007708  56.0452843  22.6331472  48.2713318
  56.1640787  23.1436849  49.0722466  56.9302559  22.5243735  47.9231548
  34.7022295  46.5169573  43.6068678  34.2791796  46.7166471  44.4419670
  35.4907632  46.0308695  43.8480330  18.1211019  27.9989314  49.2137766
  17.8139699  28.8749027  49.4473886  18.7290919  27.7634811  49.9145889
  75.8867741  18.5243356  29.6314740  76.1882401  18.2724047  28.7586141
  75.7170010  19.4639611  29.5642924  33.6684775  20.8343744  10.2834761
  33.3307242  21.4432812  10.9402776  33.2273006  21.0877275   9.4726706
  65.3021013  78.5838265  86.4270478  64.4301355  78.2067699  86.3098496
  65.8684122  78.0577010  85.8624977   1.9253527  57.2577667  68.4650326
   1.8528782  57.1515321  67.5165129   2.4716841  56.5241718  68.7471533
  50.2552366  37.3849058  48.7832594  51.2058258  37.4835849  48.7296295
  50.1252079  36.6153002  49.3373585  40.5559349  50.2756739  61.1471415
  39.7139549  50.2473545  60.6927204  40.3343821  50.5141163  62.0473003
  34.1728806  45.4906416  72.6461172  34.0659404  45.0472260  73.4876537
  34.9257231  45.0591803  72.2420120  38.1698442  33.9881253  57.9566479
  38.6059785  33.5435724  57.2297430  37.2402191  33.9624119  57.7299976
  37.4691892  11.7738461  80.1873589  36.5236568  11.8962979  80.2722645
  37.5729513  10.8444870  79.9830151  57.4455916  96.8539452  51.4412451
  57.4410616  97.0443725  52.3792982  58.1452929  96.2101435  51.3309145
  72.8533506  22.0574331  49.2370081  73.5993814  22.4716020  49.6707535
  73.1199217  21.1454844  49.1207409  60.4076576  36.2198687  56.9536352
  60.8413982  35.9161592  56.1562252  60.3738689  35.4468775  57.5171709
  69.1267347  45.0322437  56.5027428  68.9248514  45.8857155  56.8862200
  69.6712780  44.5975447  57.1590471  29.4507527  78.1745577  63.8638830
  29.3364406  77.2688675  63.5759830  29.0872598  78.7001133  63.1512117
  57.8930569  35.8090162  26.9926143  57.2345114  36.0213351  26.3312006
  58.1869078  36.6592860  27.3196054  36.6796756  48.9929581  46.3657856
  37.3218513  49.3622541  45.7595968  37.2042513  48.6380148  47.0834684
  36.2167573  20.2448583  50.1455164  36.7515492  20.8223844  49.6008253
  36.3438201  20.5706191  51.0365677  24.8642421  46.7651510  59.9422550
  24.9858856  47.4768972  59.3138838  24.6560121  46.0023594  59.4027948
   9.6798736  53.9474583  44.3815470  10.0036418  54.3895054  43.5966921
   9.5296919  54.6539879  45.0096321  49.0633106  22.1894574  43.9131832
  49.7233009  22.6251888  43.3739424  49.5646095  21.7676258  44.6110296
  33.1034136  43.9566088  63.9438677  33.2161903  44.8753452  63.7000751
  32.4802732  43.9762926  64.6701860  29.5410967  56.1780167  87.2741318
  30.3072739  56.6761208  87.5589085  29.5646167  56.2279224  86.3185215
  24.9103498  45.0076437  57.9235983  24.6626568  45.5177879  57.1524763
  24.8883247  44.0980673  57.6262474  25.5783582  19.0037227  16.3784456
  25.0099206  19.7438288  16.1654842  25.0922704  18.2348657  16.0804355
  35.1482248  55.6682348   7.4517804  35.5696940  56.4406300   7.0749503
  35.3906608  55.6907558   8.3774960  36.7010570  34.7967029  33.2395530
  36.7391992  35.5463791  32.6456141  35.8401036  34.8620439  33.6527395
  44.0135813  60.8696461  32.5266123  44.5895720  60.1454544  32.7715874
  43.4948397  61.0396194  33.3129001   6.9659215  40.1107931  80.8951283
   6.8066978  40.8218622  80.2744389   7.8488678  40.2751112  81.2262440
   1.8572651  98.2085013  61.8972540   2.1696745  99.0255009  62.2860289
   2.5828444  97.9118394  61.3479280  90.5953407  36.4042497  22.6076794
  91.3365364  36.8887162  22.9712033  90.4394341  35.6985831  23.2353425
  18.7431300  37.9945755  52.8667688  18.6834872  38.9471722  52.7944136
  17.9507017  37.6717067  52.4377680  52.0667648  23.3840466  81.1378860
  52.3548698  22.6428509  81.6706657  52.5442696  24.1339636  81.4926243
  60.2194357  40.9771729  37.8584194  60.6160355  40.8262253  37.0004249
  59.4205713  41.4695597  37.6697326  22.4151778  53.7858105  18.9065230
  22.0432711  53.0825567  18.3742142  22.2771955  54.5779133  18.3871353
  48.5412884  61.1492538  35.1709270  49.1588879  61.7162895  35.6327415
  48.0710649  61.7379379  34.5805240  54.6817636  11.5336716  46.7515469
  54.7018385  12.4529171  46.4854336  55.0288630  11.5349281  47.6435947
  48.3150482  55.6953478   5.2693677  47.9985237  56.3804913   5.8581138
  49.0693855  56.0872984   4.8293859  54.2037725  37.1801639  64.2205858
  53.5174561  37.2563577  63.5577154  54.9625635  37.6142931  63.8307190
  45.2614069  30.2345228  38.3373475  45.6139803  30.8113956  37.6597476
  45.3057957  30.7533693  39.1405034  44.8799896  38.3326650  61.1608124
  44.3395567  37.8647137  60.5242729  44.6436119  39.2529726  61.0451078
  67.1345472  30.2316904  48.4791851  67.4692249  29.3392897  48.5677671
  66.1839771  30.1278210  48.4360313   0.7532407  22.0644999  59.7257519
   0.2583715  22.8043461  59.3736696   0.3468204  21.8863964  60.5738878
  27.4489450  26.1315441  39.3024158  27.4287748  25.6649113  38.4669042
  26.7865872  25.6939268  39.8372102  50.1075697  40.2866077  32.7627778
  49.5366716  39.5605421  32.5115037  49.9811554  40.9398937  32.0746899
  38.1826472  54.9096060  55.8434725  37.8541470  55.6625891  56.3347340
  39.0825152  54.7977400  56.1499977  70.3410864  33.0741572  39.4749141
  70.7963610  32.3835087  39.9565363  69.8202896  33.5258698  40.1389599
  27.9157138  21.9858098  54.9663305  27.0786428  21.5760565  55.1846123
  28.1252861  22.5238705  55.7297468  41.2815428  22.4562240  45.5745316
  41.6153908  21.5845156  45.7864332  42.0582151  23.0156827  45.5704451
  49.8731470  43.2208586  42.0137644  50.5710077  43.8604879  42.1555185
  49.6003437  43.3610201  41.1070299  20.4528642  70.5744267  65.9273958
  20.9038019  69.7491169  65.7492304  19.8251617  70.6640482  65.2103281
  49.2445946  27.9056001  59.1001177  49.6114159  27.6652670  58.2492876
  48.5559845  27.2590947  59.2553091  62.5570965  14.5944548  22.0256734
  63.3972359  14.4162941  22.4483490  62.6194763  14.1588032  21.1756468
  67.9809999  14.6861553  43.9685774  67.7708149  13.8752389  44.4316816
  67.9128075  15.3681433  44.6367645  60.7660532  34.1455960  61.4637899
  60.2986574  34.9779677  61.3935804  60.8937502  33.8654232  60.5574656
  46.2606049  40.9091187  19.2991865  46.0049105  40.2209330  19.9133980
  45.6965065  41.6499138  19.5211065  32.5903368  21.4081335  78.3438444
  32.6175785  22.2204018  77.8381634  32.3667884  21.6863251  79.2320251
  43.0359936  47.3634195  29.7392821  43.7722492  47.2404718  30.3384852
  43.3986521  47.8748751  29.0160084  39.3750000   8.7792456  74.9734974
  39.6326375   8.2015860  75.6919432  39.9693704   8.5519111  74.2584610
  94.1488457  69.4783592  37.5853872  93.9858055  68.9938545  38.3946466
  94.1238785  68.8123608  36.8983245  27.7719831  35.3535819  52.1471596
  26.9602752  34.9734998  51.8111563  28.0237722  36.0011148  51.4887238
  29.8150992  29.4708943  42.2657156  29.8176551  29.1478038  43.1667328
  29.5324230  28.7205029  41.7429924  46.4685249  56.1968565  68.9346075
  46.8023252  55.6845236  68.1981754  45.7058239  55.7065105  69.2413425
  17.5376713  18.1594276  21.8105054  17.4777567  18.9073384  22.4048734
  18.4133434  17.8033924  21.9610643  69.0507698  43.8147688  23.1739020
  69.4556141  43.6089277  24.0164948  69.2658043  44.7352791  23.0233741
  38.0292678  56.1385393  59.8355532  37.2728658  56.3788700  60.3706503
  37.8185010  56.4671469  58.9615822  61.1729193  41.1329079  43.5894156
  61.0928154  41.7844534  42.8927803  60.3504896  40.6443024  43.5560989
  42.2749662  27.8453183  31.1027694  42.9747343  27.3036242  30.7379127
  42.3886061  28.6980510  30.6830478  27.2386646  26.5774274  31.0079718
  27.5065660  25.8705425  30.4207945  27.5309443  27.3766088  30.5696630
  55.0544500  31.5244341  50.0930691  54.1273785  31.6236258  49.8764420
  55.3967667  30.9384060  49.4180727  20.4569459  32.4337935  60.8023405
  20.8660388  32.9773617  60.1289845  19.5200741  32.6098943  60.7157803
  40.6734943  26.9288635  67.9953146  40.7110977  26.8087101  67.0464277
  41.5730143  26.7875409  68.2904720  48.8210726  44.0927315  39.4699240
  48.9045525  44.5423317  38.6290169  48.2017088  44.6272326  39.9668479
  33.7151694   7.6592708  37.6957011  32.8043818   7.3670304  37.6596856
  33.6606407   8.5839868  37.9368615   1.7150711  45.3436375  72.6331806
   1.9566062  45.1545286  73.5398912   1.4476903  46.2626791  72.6432371
  17.4202049  56.4185858  15.4548156  17.0087254  55.5607414  15.5597770
  18.3257830  56.2221098  15.2149057  58.8587141  44.2316628  52.6857901
  58.2592583  43.5721827  52.3365450  58.6279106  45.0355959  52.2203398
  50.8977747  60.2457952  43.0611038  50.6673002  60.0795794  43.9751530
  50.2505064  59.7523403  42.5573444  58.9133072  43.0860376  56.1610794
  57.9644585  43.1497049  56.2700081  59.1787195  42.3975182  56.7707777
  60.9189034  30.7929754  58.3180714  61.7893648  30.4582214  58.1025028
  60.4438400  30.7775784  57.4872208  39.6569085  50.6535006  50.5827141
  39.6009707  50.7193851  49.6294260  40.5747080  50.4431248  50.7548141
  39.8527646  42.0005941  50.0478506  40.0171661  41.2143564  50.5684614
  39.6388650  42.6746225  50.6929541  70.1210499  27.8294182  52.8159475
  69.6652985  28.6234307  53.0953550  69.7212458  27.1295261  53.3322287
  52.8219366  52.2203827  22.5732946  52.5581455  51.5266371  21.9688439
  53.7621641  52.0878839  22.6943278  49.1314840  33.6895871  72.3027802
  48.3697033  33.7565470  72.8784895  48.9651775  32.9082966  71.7753744
  14.1570497  40.0010347  65.4419136  13.2901144  40.2152777  65.7865191
  14.6626735  40.8068895  65.5476427  51.6751385  63.7071562  24.0479946
  50.8908129  64.1447592  24.3790054  51.3588572  63.1603861  23.3288026
  49.4528103  54.5168114  31.9525623  50.1315928  54.8662901  31.3752007
  49.5714855  54.9904442  32.7758622  49.2747545  56.4231586  47.7102804
  49.5428228  56.3712120  46.7928553  48.7816525  55.6168509  47.8617525
  53.9456320  22.6348901  37.5935483  53.2897615  23.3319402  37.6070452
  53.7960005  22.1494889  38.4048629 107.5882876  88.2642931  90.2823514
 107.5947296  88.5081167  91.2079543 107.0811331  87.4530620  90.2518898
  33.4559011  27.7049160  56.8819666  33.5427189  27.8140020  57.8289557
  33.9155936  28.4580922  56.5109682  92.8662312 103.9554495  81.9626027
  93.0332529 104.8196883  81.5865272  93.1961643 103.3410878  81.3069111
  39.3674922  41.9411993  45.2715063  39.1914296  41.3557482  46.0080385
  39.6273351  41.3577366  44.5585680  23.7962484  37.8680754  56.4217997
  23.3534384  38.3324265  57.1321011  24.7214031  37.8814507  56.6670418
  65.2710772  43.4221983  27.7619815  65.6365633  43.6967182  26.9209766
  64.5030260  43.9804745  27.8830385  48.8885593  31.0609698  23.7015676
  48.0384254  31.0366869  23.2623458  49.5020962  30.7114172  23.0553341
  23.5380626  31.3464618  30.9378672  23.4557152  30.5616522  31.4796472
  24.4819355  31.4719248  30.8399129  88.1881142  88.2507229  48.7970114
  88.0239868  87.3721027  48.4544945  89.0753746  88.2069397  49.1535091
  73.9632654  70.5025339  36.4447403  74.0780926  71.2545109  35.8637238
  74.6411514  69.8839235  36.1726689  88.5827065 103.4282112  64.9588013
  88.6207867 103.0096436  64.0988111  88.5047245 104.3627644  64.7670746
  84.9343300  36.9757509  39.6279454  84.3537712  36.6128278  38.9590144
  84.4281387  36.9229698  40.4386330  89.5546150 107.8942871  52.5875902
  90.1995945 108.4566116  52.1586180  88.7088299 108.2682705  52.3405695
  76.5230513  70.7634926  41.1894894  76.5933228  70.5442286  40.2603960
  77.3544359  71.1892605  41.3986492  83.1387043  72.1410227  57.0258999
  82.3194027  72.5890684  57.2362185  83.4172058  72.5281715  56.1959743
  71.7697334  54.0240479  20.7974577  71.2974119  53.3181715  21.2389183
  71.9339371  54.6691418  21.4852929 105.9791088  86.6471672  69.7038364
 106.7077637  86.7509842  69.0918541 105.4203129  85.9829044  69.3004465
 101.2825012  62.7515602  45.5706167 101.2786198  62.6579618  44.6180105
 100.8584213  63.5947275  45.7301664  63.3029270  66.3085604  49.2850113
  62.4908447  66.4234877  49.7785234  63.9965963  66.4783335  49.9223709
  87.8996754  61.1432457  57.9788399  88.3544350  60.8954668  58.7838459
  87.3863506  61.9139385  58.2212448  67.9790592  77.8731203  22.8011084
  68.2436132  76.9684315  22.6344275  67.5198269  78.1390190  22.0044661
  87.3905277  57.9785061  29.9011254  87.2365379  57.0671272  29.6523070
  86.8712234  58.4877014  29.2788124  45.1125860  67.7164316  77.0418978
  44.5675659  68.1032658  76.3566637  45.4957294  68.4671879  77.4955463
 113.6480904  77.5479555  18.6076987 113.9793968  76.8127489  19.1233850
 113.6360645  77.2229242  17.7074540  54.4474745  99.6466255  34.5751357
  53.7854671  99.7210503  33.8877964  53.9490700  99.6753502  35.3918362
  39.9902129  86.9825172  60.0846291  39.5986056  86.3207150  59.5146275
  40.2447891  86.5005779  60.8714962  75.9832954  36.5389299  24.0496206
  75.8534622  37.0879507  23.2763457  75.1539612  36.5939260  24.5243931
  46.4117956  89.1361427  56.4180756  45.8845091  89.2526722  55.6277418
  46.9573927  89.9215126  56.4599419  78.8791227  78.8298416  61.3821125
  78.6666965  79.3479824  62.1584082  78.0521011  78.4144545  61.1377335
  61.6146708  51.2883568   3.1551746  61.0582638  52.0179510   2.8825319
  61.9931555  51.5735483   3.9868286  62.2958469  59.4289589  25.8653593
  61.4191246  59.0614033  25.7535768  62.4761295  59.8744345  25.0375414
  62.6874876  77.0263243  44.1924953  63.3083916  76.2997246  44.2450476
  62.1233845  76.9151545  44.9577808  74.1241693  73.2875299  35.2784729
  74.6894503  73.6569691  35.9568596  74.1599369  73.9237785  34.5642304
  95.8228016  58.3334684  53.7493801  96.1119843  57.8053236  54.4934702
  94.9157333  58.0649614  53.6032104  58.4181309  81.0301590  51.1925411
  58.6388636  81.7837811  50.6452131  57.6807070  81.3285542  51.7248869
  60.1839256  81.6181183  28.6994171  60.3870201  82.5320244  28.5000086
  61.0341644  81.2181568  28.8820457  54.1371107  76.6874933  58.4805346
  54.5686436  76.7212057  59.3342781  54.7880363  77.0324469  57.8693581
  65.0111818  91.5009880  37.5786734  65.2523708  90.7359695  37.0563722
  64.2156410  91.2350464  38.0397797  66.7553902  74.1485310  92.3639870
  67.1913338  74.8450089  91.8729687  67.1970415  73.3463717  92.0852089
  66.3537550  70.5823755  46.6947889  67.2752810  70.7885551  46.8513489
  66.3258743  69.6264791  46.6533804  90.5764389  66.9264030  60.2447653
  91.3184929  67.0703983  59.6575165  89.8336887  67.3298025  59.7955227
  91.6625690  85.5905914  37.9444742  90.7185745  85.5624580  38.1003547
  91.7461967  85.8507442  37.0271087  72.6230001 102.2585869  37.9775000
  72.8286028 102.7422523  38.7775159  72.8159809 101.3461399  38.1929731
  74.4211340  64.6342087  26.2251687  75.0949717  65.2115297  25.8661842
  74.9105406  63.9242983  26.6407847  80.9744453  85.2020931  31.2307024
  81.7819500  85.6840897  31.0522246  81.0806465  84.3747044  30.7612562
  69.6197414  74.6935892  44.2968845  69.9843645  75.1105165  43.5162067
  70.1815939  73.9333010  44.4469309  83.8532066  60.1379299  39.8845220
  84.5521641  60.7612514  40.0824261  83.5720634  60.3666687  38.9985967
  76.0251904  64.7995472  71.6030884  76.1285019  63.8658810  71.4191675
  75.0781107  64.9377823  71.6158819  76.1090899  82.5654507  61.5335751
  76.7942429  82.8811932  62.1227264  75.4155922  82.2564793  62.1165276
  82.6809883  57.9027700  41.1647797  83.1757355  57.1410704  40.8626747
  83.0107021  58.6282444  40.6344891  52.5167656  59.6318913  59.5451498
  51.6410589  59.4285631  59.2164660  52.5144529  59.3113756  60.4470921
  47.0714951  81.9151974  78.9486837  47.6646280  82.4850750  79.4382381
  47.5415421  81.0843563  78.8780499  65.1039267  66.5491581  51.4342833
  65.2733946  65.7236862  51.8882799  65.9733391  66.8880701  51.2209845
  63.2948303  88.1394482  29.0854979  62.7824640  87.7305412  29.7830009
  63.7115383  88.8925076  29.5043921  59.8220491  95.8181000  33.0442214
  59.6620226  95.9382439  32.1081710  59.9991894  96.6997910  33.3720350
  74.5425272  69.0348434  51.9011164  74.3798542  69.8127508  51.3676071
  75.3282690  68.6430073  51.5199232  39.5432711  87.3660088  69.1739035
  39.8473287  86.7257023  69.8171663  39.8559570  87.0290661  68.3343029
  73.4246063  70.5088806  25.2814460  73.7677193  71.2690973  24.8117948
  74.0746117  70.3344345  25.9621048   2.6251660  57.1332312  33.9256144
   2.6937065  58.0094242  33.5463786   1.8409310  57.1699238  34.4731998
  97.4587154  59.0814209  42.3347664  97.4835300  59.2491961  43.2768202
  97.6244354  58.1421137  42.2543240  88.2627678  94.1105556  68.1413269
  88.6653423  94.7019291  68.7772799  88.8151073  94.1838741  67.3630047
 109.2437458  53.2949018  31.7882991 109.5072556  54.2075872  31.9057918
 109.6480656  52.8324747  32.5224137  96.2996292  40.6377220  30.6610298
  95.6344032  40.0445175  30.3120112  96.7133141  40.1437950  31.3689375
  69.8156357  81.1560726  45.4952955  70.0302553  80.8717632  44.6068478
  70.6552124  81.1596870  45.9549999  70.7458067  81.5373135  24.4975686
  70.7968092  82.4510002  24.2168427  70.9478712  81.0329914  23.7094998
  79.3991518  61.7177105  38.1273174  79.1046286  61.9856501  38.9977741
  78.8384056  60.9751654  37.9027700  57.9501295  79.3647671  46.3960314
  57.8750944  79.3243933  47.3494339  57.0522404  79.2622709  46.0805607
  69.3922901  99.7016907  44.9060488  68.7123203 100.1251411  44.3820620
  70.1768064  99.7433758  44.3592119  21.5533327   4.1358710  38.7612009
  21.4344668   4.9906588  39.1752696  21.9088816   4.3365050  37.8954268
  95.5536270  45.4521847  44.9683666  96.1400223  44.6977472  45.0248337
  96.0816860  46.1894417  45.2746964  83.5001183  92.1621799  58.5906792
  83.5223579  91.8976498  59.5103312  82.9933453  91.4760971  58.1562901
  87.3826218 100.9045696  42.2039032  88.1555271 100.3624153  42.0460701
  86.7198944 100.2905750  42.5201893  71.6766405  56.9719934  36.4053440
  72.0034456  56.2013912  36.8696690  71.4979315  57.6099825  37.0961905
  60.6078291  77.8780222  12.4561906  60.1752567  78.7295437  12.3927689
  60.5039597  77.6243305  13.3732975  74.1533375  72.5819826  63.7844419
  73.8600159  73.4314156  64.1140652  75.0565720  72.5047398  64.0917301
  89.8148441  47.9250431  56.8855858  90.1048183  48.4970856  56.1750126
  90.2214432  48.2927990  57.6702213  71.3022804  42.1915197  11.2541509
  70.7009840  41.6119528  11.7218876  71.9841480  41.6092587  10.9190953
  90.8384800  83.9466763  16.0155463  91.2875843  83.3746815  15.3931725
  89.9097157  83.7482738  15.8960605  80.4704571  74.8185921  66.0575581
  79.8014641  75.4403639  65.7710648  80.0632477  74.3463612  66.7837906
  71.8884325  80.4293728  47.2693825  71.7093945  79.4904661  47.2181129
  72.8040409  80.4840088  47.5430822  75.7270813  66.3534355  67.2130299
  75.0979376  66.1320639  66.5264368  75.2304935  66.8934393  67.8278685
  67.3234177  58.7910795  60.7555771  67.6313210  59.5450163  61.2585735
  67.5904560  58.0320454  61.2740326  97.4428844  46.0749435  66.0054445
  97.3785591  45.6422377  65.1540565  96.7595577  45.6641769  66.5351200
  55.1270247  68.1563473  37.3224616  54.8174143  67.8637362  38.1796384
  55.5696487  67.3918390  36.9538951  72.9411364  56.6371393   8.8926178
  73.7921429  56.3473415   8.5639280  73.0611324  56.7063856   9.8397392
  74.7884750  55.5368757  49.2432261  74.9233007  54.6459389  48.9202833
  75.1431370  55.5256319  50.1322269  73.6106825  60.5422497  36.5637851
  74.1625500  59.8234320  36.2556052  72.7726984  60.1288271  36.7713809
  69.7760916  93.1580162  38.3317709  69.9879313  92.6816750  37.5289893
  68.8194084  93.1610966  38.3630681  77.4686289  64.9045610  50.6909990
  77.3330688  64.0244818  50.3398466  77.1543169  64.8533058  51.5936708
   2.4337063  29.2964506  53.8253736   2.6294003  28.4621525  54.2518520
   2.2081814  29.0586209  52.9260349  73.4768248  57.0865297  54.1817570
  73.8922310  57.0529604  53.3200502  72.5380802  57.0956087  53.9949131
  76.7042208  68.7638664  65.5335855  76.0355377  69.1540909  64.9707270
  76.2738609  68.6636448  66.3826895  70.6528044  63.1773138  48.8132906
  70.9405804  63.3195782  47.9115248  71.2093401  62.4672365  49.1331100
  81.4078808  95.3057480  44.2928982  82.0694351  94.6628380  44.0374660
  80.6264019  94.7847939  44.4776630  82.2654343  62.3370409  52.8622723
  82.6421547  62.8115320  52.1212101  82.9129791  61.6632223  53.0693817
  63.3735275  96.6260052  57.7494335  62.9017496  96.7598438  56.9273996
  63.1188059  95.7474804  58.0314732  61.7604113  79.9805021  36.4699340
  61.4876413  80.2569389  35.5950546  62.5241423  79.4238520  36.3179827
  86.9085884  82.4420452  84.3764114  86.2129593  83.0212784  84.0652752
  87.5203991  82.3866940  83.6423397  84.3156528  57.1461773  31.4906144
  84.8998165  56.6999722  30.8775234  84.7339439  57.0345926  32.3443222
  12.3924027 107.1895218  59.3122721  12.9425869 106.8036366  58.6306429
  12.5734005 108.1281757  59.2633152  74.0710497  86.1749077  77.4890995
  73.6285877  86.8117809  78.0502176  73.4422827  85.4590511  77.3972178
   0.2545809  20.5598689  72.6237726   0.7924723  20.4542113  71.8390799
   0.0708889  19.6652842  72.9104805 107.9210962   5.4275370  62.2960567
 108.7080778   5.1442672  62.7615118 107.2017730   4.9959040  62.7570343
  72.6202536  60.5112934  33.4696579  72.8310013  61.1243057  34.1739511
  73.0400085  59.6919250  33.7317085 110.9710789  66.3713551  79.6599913
 111.0739422  66.9459486  80.4186058 110.1611805  65.8908701  79.8315334
 103.4060669  97.1083069  56.1574316 103.8043785  96.9789982  57.0181608
 103.1408310  96.2308121  55.8819771  21.7983399 102.1659851  46.6631842
  22.1260510 103.0585670  46.7733288  21.8832550 101.9936657  45.7254601
  67.9439259  66.7006874  30.1763868  67.8900480  67.0639038  31.0603571
  68.7054634  67.1303415  29.7869110  58.7233496  93.1560898  56.0829544
  59.1819668  92.8266144  56.8558359  58.9562178  92.5421906  55.3864384
  80.1282406  96.4660835  53.0174637  80.5198193  97.1104336  53.6071396
  80.0721550  96.9159031  52.1744013  16.7494272   1.5800238  15.8312297
  16.2279104   0.8409548  15.5181372  16.2025332   1.9930602  16.4994609
 104.8038673  71.2888288  55.2752542 105.0334358  70.3622675  55.3460503
 103.8467979  71.2981558  55.2624559  92.7316666  90.4610443  58.6583614
  92.7119350  89.5560265  58.9694595  92.1475220  90.4664516  57.9000902
  62.6128578  73.7857389  23.2933736  62.5004435  72.9331589  22.8730130
  61.9872808  74.3568897  22.8476501  56.5429640  79.5485735  53.1116962
  56.0550833  80.3341007  52.8644276  56.1375093  79.2625618  53.9302540
  59.3738079  96.2077618  67.5356960  59.3682098  97.1535206  67.3882437
  60.2122593  96.0372162  67.9648304 107.9241371  63.3129215  41.4058399
 108.4464359  64.1058493  41.5270853 107.6750469  63.3291674  40.4817581
 115.3394426  14.7173930  59.6398449 114.6205772  14.5295573  59.0363741
 115.0653852  15.5112410  60.0991154  73.1510353  74.9085236  20.7548594
  72.6261997  75.7087278  20.7335567  74.0446281  75.2123499  20.9142804
  64.3422461  85.6553650  25.1012039  63.8362074  86.0474014  24.3895364
  63.7071609  85.1255512  25.5830717  64.3403959  79.0017462  48.1191111
  64.2260313  78.9899254  49.0693855  65.0403690  78.3700180  47.9542351
 102.0684052  66.2817144  35.5423236 102.3797894  66.9467545  34.9283290
 102.5630951  65.4946756  35.3141236  80.8884239  69.0603971  71.2439728
  80.0303078  69.4438601  71.4251280  80.7413769  68.4898376  70.4896021
  63.7120247  96.9168758  28.4431553  63.9691496  97.4126816  29.2205143
  63.0418348  96.3098145  28.7571001  70.9931993 105.1727390  30.8592272
  71.0855770 105.2914143  31.8045402  71.1980534 104.2492867  30.7126164
  82.1973896 100.6119823  73.0967188  82.5934601  99.7492886  73.2196712
  81.4259148 100.6042862  73.6632776 101.0351467  86.4609909  53.7154818
 101.6419983  85.7221317  53.7606478 100.1812077  86.0827351  53.9250946
  67.1844196  68.4360743  51.3043880  67.2771406  69.3520594  51.5663099
  67.9797554  68.0128288  51.6277075  74.6187162  75.2272224   9.1373920
  74.5494461  74.3550968   9.5257574  73.7226677  75.4481697   8.8834095
  67.5150013 108.6876202  52.8911209  66.9474602 108.4053516  52.1738672
  67.9946566 109.4362736  52.5365877  67.7463770  66.2675953  62.4049282
  67.4713326  66.1371946  63.3124399  68.6548758  65.9668732  62.3844337
  98.3725929  72.2302723  47.1593904  98.7197876  71.3685560  46.9288969
  97.5540447  72.0435572  47.6191187  58.0292749  70.8068180  73.6176586
  57.2971153  70.5722475  73.0474329  57.6600933  71.4400482  74.2332506
   3.2107411  99.6591473  49.9608755   3.7086926 100.3908730  50.3253698
   3.4807835  99.6190739  49.0434313  71.8043137  58.0293465  39.3740439
  70.9186840  57.6661921  39.3778133  71.6890097  58.9389849  39.0992856
  76.4961004  84.6593380  57.3658085  77.2443676  84.1001129  57.1570015
  76.5814590  84.8335266  58.3031464  72.8909922  47.7132273  60.2274799
  72.3008013  47.3995638  59.5422602  72.8473568  48.6672497  60.1629353
  28.9546465   1.8330813  23.9576602  28.2007956   1.2496234  24.0443897
  29.6995901   1.2450362  23.8332224  66.3406086  82.9736805  60.3917456
  66.4860582  82.0859051  60.7187557  67.0989370  83.4697533  60.7000971
  76.0356808  47.2455931  31.3078356  75.9173250  47.0349693  32.2340441
  75.2070284  46.9974184  30.8979869  85.0424194 104.7005272  70.5991983
  85.3186703 105.5048084  71.0385752  85.4437065 104.7515678  69.7316742
  21.7243359  99.9049944  89.8105120  22.3299668 100.4919810  90.2631560
  21.0928509 100.4894060  89.3910742  70.9532642  97.3718834  67.5038099
  70.0548220  97.5780964  67.2459030  70.8593893  96.8367863  68.2919073
  73.0888987  66.7012787  57.9667616  72.3154688  66.8678522  58.5055494
  73.3123732  65.7876635  58.1445026  79.7723389  72.1652126  56.8039417
  79.3934250  72.1573210  57.6829100  79.4738197  71.3469124  56.4070749
  67.7152681  98.6718941  16.9169557  67.9729986  99.1527748  17.7034426
  66.7784691  98.5114670  17.0305324  92.8077030 109.4037437  10.8024931
  93.4665394 108.7321949  10.6258810  93.2482910 110.0248623  11.3824320
  94.8996544  48.7826157  69.2753029  94.1572952  48.3374882  69.6839523
  95.2657223  49.3270397  69.9723196  89.8657227  74.1714764  54.1532898
  89.6283722  74.8499537  54.7853994  90.0878429  73.4109163  54.6903610
 100.7125568  85.8349991  39.1218019 100.2308846  86.0441399  39.9221015
 100.0874519  85.3456974  38.5869646  88.8165474  85.7850075  37.3914361
  88.4776592  85.7946587  38.2865882  88.3200741  85.0928116  36.9548368
  59.5669746  76.9110298  51.9812632  58.7577581  76.4120054  52.0925188
  60.1122046  76.3609076  51.4188385  81.8797302  64.9767256  61.1181021
  81.1465645  64.4412184  60.8149052  81.9234276  64.8117542  62.0599651
  42.4954771  13.2448436  51.6396761  42.0085024  13.0845881  52.4480152
  41.8233465  13.2866717  50.9594393 103.5104275  42.3025274  50.1284027
 103.3866787  42.5443125  51.0462570 103.4025860  43.1233168  49.6478701
  65.6333828  75.0213766  52.4196720  65.1900387  74.6430635  53.1789827
  65.1346111  74.7023439  51.6675615  84.4908619  94.9649334  62.4564648
  83.8170052  95.2204609  61.8265009  84.5103359  94.0089703  62.4117994
  82.2399712  67.1038055  83.5211182  81.3056660  66.9149733  83.6086273
  82.5516224  67.1932316  84.4217396  57.0215607  53.0250216  20.4185343
  56.5523195  53.5217810  19.7482550  57.3720455  52.2658825  19.9525940
  65.0893116  67.1957874  40.7805824  64.2562151  66.7435932  40.9136343
  64.9461651  67.7383423  40.0050974  82.3422718  39.8156452  47.0219469
  82.7751160  40.6664610  46.9513273  81.6044331  39.9705100  47.6117229
   5.8339155  54.5106798   4.5808906   6.5980804  54.0231424   4.2733211
   5.2027166  53.8351541   4.8288459  82.6073265  89.1311264  49.9021578
  83.2689285  89.0343952  50.5871058  82.3859596  88.2334042  49.6544981
  76.4838362  91.9993210  51.9925928  76.1496401  91.2594891  51.4854527
  77.2684908  92.2782707  51.5206432  89.8208714  51.1487103  35.2266383
  89.3474293  51.2483931  34.4007182  89.7490215  52.0048094  35.6487322
  80.3257370  58.7249660  66.4435291  81.2575722  58.8009644  66.6488171
  80.2604675  57.9274225  65.9182739  66.0328627  33.5990310  56.0407829
  66.3465643  33.5437775  55.1381397  65.0801134  33.6449671  55.9608412
 101.7070866 103.7531948  94.3552208 102.3059177 103.1448746  94.7883320
 101.8233395 104.5790195  94.8250389  63.6568689  68.4044933  52.6009893
  64.2171383  67.6723623  52.3434687  63.6325169  68.3627367  53.5569715
  99.2859077 102.2618484  73.1036854  98.3589649 102.3789310  72.8955841
  99.7486496 102.7182388  72.4009657  96.0725784 102.2211170  29.6559930
  95.5258369 102.7801228  30.2080917  96.5322590 102.8307533  29.0786910
  69.4050503  90.7329273  31.4037871  68.7921286  91.4201164  31.6651940
  69.2102671  90.5771065  30.4796600  95.2085590  84.7520638   3.4574899
  95.8254051  85.4336452   3.1906849  94.3585014  85.0632095   3.1463164
  76.0557032  85.6877899  53.0973148  75.3347540  85.7135391  52.4681854
  76.2211752  84.7549534  53.2339287  85.3275585  98.1675243  24.7102356
  86.1680698  98.4462357  25.0736928  85.5142784  97.3268414  24.2923427
 105.0258160  90.3600216  21.6962337 105.4547119  90.2833843  20.8439350
 105.3188515  89.5890617  22.1820116  37.7395344  95.6772423  52.9793167
  38.2403231  96.3637829  53.4198856  37.5858450  96.0203171  52.0990276
   7.3733483  49.0992308  28.7512422   7.4932824  49.9761915  29.1156387
   6.8646202  48.6320257  29.4139266  57.5460100  79.9556541  34.6401834
  56.8744087  79.5372295  35.1787949  57.8708792  80.6765366  35.1796436
  62.4103832  82.3595715  64.8123741  62.4286032  82.6260090  65.7315636
  63.3300304  82.2242451  64.5839548  63.6265945  58.1416798  19.0771842
  63.4418869  58.3639479  18.1646550  63.8745356  57.2174644  19.0531170
  66.7399359  49.0214825  13.1840158  66.2132168  49.6706533  12.7177835
  67.2084379  48.5525227  12.4934971  92.3377323  58.8376665  67.0528889
  92.8137302  59.5817184  66.6840410  92.2847366  58.2073212  66.3345003
  63.2574606  67.4513054  55.7361603  63.0479574  66.9179726  56.5029049
  63.1818056  68.3542919  56.0445786  57.7298212 101.4008999  41.6963148
  58.5020447 101.9617558  41.7694187  57.4778175 101.2210369  42.6020575
  76.8083620  69.8262501  38.5193110  77.6192904  69.4664860  38.1598735
  76.6157246  70.5827332  37.9653692  77.3964071  68.7778950  24.5667839
  77.8421450  68.8214016  23.7208200  78.0651951  69.0307903  25.2031779
  85.1355648  78.3171892  37.1065640  85.1444054  78.4935331  38.0473399
  85.2759457  77.3727846  37.0385742  61.8101740 104.9496555  18.2343674
  61.1021852 105.5176353  18.5382998  61.3644600 104.2264557  17.7932847
  82.1654224  69.9766064  41.7706442  82.0538139  69.9812126  42.7213049
  82.1638680  70.9017038  41.5248251  59.7615242  76.3772011  65.9746933
  59.2113733  77.1600199  65.9471321  60.6230736  76.6797018  65.6875420
  68.4479666  67.4233389  36.9086266  68.2659292  66.6366196  36.3946557
  67.7318239  68.0209446  36.6935945  67.9903126  75.0967169  55.6960011
  68.4332085  75.1026678  56.5445518  67.7126503  76.0032558  55.5643940
  95.1688862  97.1756363  63.4913492  94.2702866  96.8461895  63.4766388
  95.7128429  96.3907719  63.4255695  31.0119700   6.2246943  50.3255844
  31.3585447   5.3633834  50.0926685  31.0872912   6.7386008  49.5215607
  93.4824003   8.3332206  38.9967394  93.0286754   8.8528968  39.6602964
  92.9939760   7.5107718  38.9613795  76.5991163  52.6176834   0.1342181
  76.3760853  53.5383511  -0.0031390  75.7938194  52.1428967  -0.0714710
  85.0562191  66.8497133  34.2228866  84.8734951  67.1854115  33.3453012
  85.9729671  67.0759535  34.3797970  63.0640650  69.9603319  36.0505152
  63.1786346  69.2987251  35.3683233  63.3437157  70.7785654  35.6400013
  52.2352886  96.2939739  65.3288460  53.1904840  96.3009834  65.2673435
  52.0446730  96.7508507  66.1480904 107.6683998  55.2060032  41.9742632
 108.2977009  54.4927883  42.0816708 107.1626759  55.2036190  42.7869511
  97.6536465  97.8228378  19.9370801  98.0992508  97.3914242  19.2080033
  96.8551064  98.1824017  19.5507109  87.7919674  62.5313568  90.3247929
  87.6555157  62.3337746  89.3982029  88.5234928  61.9710541  90.5839634
  86.7564297  71.0428238  67.4147606  87.0931625  70.8766031  68.2952213
  87.4941063  70.8504486  66.8359280  84.2274857 105.5136299  56.2636662
  84.6189785 106.3848972  56.3257027  84.5824528 105.0375462  57.0143890
  46.7209339 101.3706493  45.5177164  46.7630339 101.0518360  44.6161509
  47.6280880 101.3480854  45.8223438  95.5386353  85.1383209  48.4204149
  95.1202965  85.1835251  49.2801714  96.4729786  85.2375507  48.6031771
  64.9010515  88.2122421  54.1733694  65.5169487  87.5485420  54.4838572
  64.5255041  87.8366470  53.3770514  50.7037163  57.7720356  17.6067603
  51.6532135  57.8207254  17.7177668  50.5365896  56.8594217  17.3713040
  78.0079889  88.3735371  42.2078371  78.6149693  87.8376770  42.7183819
  78.5250378  89.1340446  41.9423008  13.9143347  24.8393965  33.3266616
  13.7202047  24.6077777  32.4184203  13.2794355  25.5230952  33.5404277
  59.3491125  61.0975981  24.7091818  59.5722246  60.1898098  24.9150205
  59.6374035  61.5945959  25.4747653 110.1784801  83.9046860  36.1112189
 110.6003094  84.7403717  36.3110352 109.6682644  84.0770912  35.3199029
   3.2639084  49.5621061  42.0868921   4.2134915  49.6406984  42.1782351
   3.0837880  48.6356783  42.2466421  58.3817291 107.0749283  44.9960613
  59.2807627 106.7777538  44.8558664  58.4038401 107.5115776  45.8475828
  87.4277592 101.9065952  51.8126154  87.7738571 101.5494347  52.6304674
  86.8442631 101.2240314  51.4811325  96.1489023   8.0123187  63.7325191
  96.8879045   7.4924613  64.0485144  95.6768621   7.4240542  63.1431532
  76.5000057 103.3360004  61.4646673  76.2225103 103.3579922  60.5488348
  76.6714430 102.4109077  61.6408348  14.8411999  91.8006516  16.3524950
  15.4138432  91.3839531  15.7085454  14.0138302  91.9302273  15.8889139
 112.7064896  73.4164715  93.5166550 113.4818840  73.2824850  94.0616798
 113.0008602  73.2164860  92.6280689  60.4078865  65.3407955  13.0563903
  60.0122595  64.4903278  13.2472265  60.0087261  65.9380102  13.6890316
  77.5843048  93.8343048  57.9016352  77.7064991  93.1782627  57.2154045
  76.6383266  93.8564491  58.0460978  46.8267679  44.6042776  12.9572749
  46.1490202  45.2241516  13.2268119  46.5989780  43.7901592  13.4062219
  71.4679193  68.4001875  75.7169914  71.1201668  67.8414106  76.4120197
  72.2710228  67.9614925  75.4362631  73.6672449  92.3479366  73.9015150
  73.3585072  91.5073681  73.5633469  73.1941557  93.0015945  73.3865929
  97.3208332  74.4450426  45.0053883  97.5142384  75.3755188  45.1196051
  97.0906830  74.1388130  45.8825922  67.3587751  62.8488493  50.1339340
  66.4588785  62.9205990  50.4521704  67.3491287  62.0838070  49.5587397
  62.4439573  85.7198143  67.1878815  62.2613811  84.7862148  67.2941637
  61.6569757  86.0719490  66.7720699  85.0001621  79.8253679  27.7627850
  84.6139240  79.1602039  27.1930361  85.9331417  79.6122551  27.7815056
  76.6251135  58.5200310  41.8131685  76.5571070  58.6448860  42.7597523
  76.2682009  57.6450396  41.6607380  77.1240282  77.4677515  87.8268528
  77.2933245  77.7288914  86.9216633  77.7924204  76.8089247  88.0150700
  86.9840813  89.9328423  52.1747208  87.5565624  89.4174480  52.7429438
  86.9562626  90.7977772  52.5837946  85.0752258  95.8271980  74.0023947
  84.4909286  95.8869267  73.2465792  85.6168556  95.0578976  73.8262129
  65.6503677  67.0743132  59.5665216  65.5661106  66.3755798  60.2152872
  65.5664253  66.6294718  58.7231350  81.9448948  68.8708115  17.9821789
  81.5909672  69.6304893  17.5197375  81.3432407  68.7342024  18.7140071
  69.4578505 102.4323559  59.3001461  70.3205776 102.1428013  59.5969486
  69.2515182 103.1818485  59.8586416  94.1015148  44.9222612  58.6103010
  94.2355251  44.7401237  59.5404100  93.1669140  44.7713757  58.4689188
  86.2759495  54.5377970  49.3637943  86.7005730  55.3421545  49.6620083
  85.9908772  54.7341251  48.4713697  60.4737711  77.2720575  36.4620805
  60.4225016  78.2252693  36.3914371  61.3565493  77.0567226  36.1611414
  70.5921602  55.5001497   0.3974345  69.7556496  55.7222509  -0.0114067
  70.8949089  54.7281265  -0.0806431  66.5313911  68.8293314  62.0509815
  66.8894625  67.9586411  62.2239542  65.8198595  68.9257717  62.6839542
  44.6562481  98.6568260  43.9790058  44.2870903  99.0880203  43.2082796
  45.4875660  98.2928181  43.6746407 113.5279465 104.6100426  30.2628779
 114.1109371 104.0542030  30.7799792 113.7396812 104.3986988  29.3536282
  81.0487652 106.0832214  16.9321394  81.9830704 106.2393761  17.0697069
  80.7909679 105.5167675  17.6593971  78.2121086  58.9473677  32.1803403
  78.1860685  59.6514559  31.5324068  77.6240587  59.2405367  32.8763843
  79.9685574  74.5206499  25.2056003  80.3135586  74.1878700  26.0341311
  79.5696592  75.3606939  25.4323983  72.5276041  86.7344475  55.8567905
  72.5157022  87.1289730  56.7288208  73.3908367  86.3262272  55.7903576
  92.0670189  31.9559622  78.1164551  91.3089861  31.7802573  77.5590086
  92.7032865  31.2829734  77.8746319  85.0133705  96.6397095  50.2999735
  85.3344727  96.2861729  51.1295176  84.2508411  96.1008930  50.0891256
  77.5833511  80.8860874  35.0020528  78.3866310  80.4192543  34.7717452
  77.8849697  81.7287350  35.3414702  38.9038658  67.3840666  88.6406231
  39.2972708  67.0764923  87.8240013  37.9629374  67.3920727  88.4650612
  81.7213726  62.8193235  70.8987284  82.3116398  63.3632421  70.3772211
  81.4014721  62.1573305  70.2858210  70.7630062  74.4500589  53.2867289
  71.0210943  74.6271515  54.1913080  70.2468395  75.2144909  53.0308962
 107.0264782   5.9961940  30.7917428 106.3981737   6.6560984  31.0849977
 107.8802980   6.4170409  30.8922815  85.6700516  71.5443945  15.1193786
  85.4106140  71.6466188  16.0350609  84.8430252  71.5058231  14.6389937
  71.7597628  97.8209400  59.5271730  71.4471626  97.4759483  60.3635311
  71.7487144  97.0667648  58.9378309  63.9822578  76.1302614  46.5748215
  64.2483377  75.5458832  47.2847033  64.4915152  76.9280481  46.7177248
  21.5874945  25.1322026  93.1647087  21.5812479  24.7093720  94.0234330
  20.6631171  25.2750344  92.9613332  95.6945419  90.9984303  30.7718801
  95.4546738  90.6170559  31.6164184  96.5287304  90.5845070  30.5504251
 112.0336342  76.2008381  35.0142527 111.6345596  77.0344543  34.7651386
 111.3245106  75.7106972  35.4303551  25.3031038   5.2539778  60.0685835
  25.5813192   4.6472789  59.3824768  26.1081671   5.6959201  60.3383827
 106.9968700  88.0294132  75.0733185 107.5288963  88.2982826  75.8222485
 107.2945023  87.1416569  74.8744774  51.4921093  73.6406612  28.8472819
  51.2798834  74.5615911  28.6953473  50.7133865  73.2825661  29.2734122
  63.6891651 101.5186596  21.0788393  63.2842016 102.2834206  21.4879537
  64.5714092 101.4880943  21.4489007  92.2206211  74.0738821  45.9096718
  91.7468548  73.2608080  46.0848808  92.7783108  74.1964436  46.6779089
   4.9630509  54.2914963  54.9531221   5.6219921  53.7243080  55.3535414
   4.4695340  53.7123585  54.3723679  77.6009083  85.3995228  40.9231615
  78.0618525  85.1723862  40.1155901  77.9023361  86.2840939  41.1303091
 115.3616346   5.6746913  26.2952566 114.4410862   5.7238532  26.0375619
 115.7942880   5.2450324  25.5573940  48.0580221  12.4662395  91.7002812
  47.2955118  11.9165130  91.5196723  48.7670504  12.0648618  91.1978850
  83.0099964  70.4582596  59.3743801  82.8065586  70.9958363  58.6089706
  83.0900002  69.5693827  59.0283537  64.7909498  90.0881863  60.7315540
  64.0094328  90.5065918  61.0926676  64.5382309  89.8343182  59.8439074
 110.4278946  95.0124264  23.3305120 109.7756577  94.4875336  23.7945199
 110.9431839  95.4228115  24.0249825  64.5787668  85.0255775  43.8539028
  64.2529011  85.3905582  43.0312061  64.7390413  84.1021442  43.6594152
  76.9724560  76.8407297  30.6011987  77.8674507  77.1788263  30.5711079
  76.4217615  77.6230812  30.6311989 107.8859520  93.2928944  58.3186913
 108.5332298  93.9639091  58.5355139 108.3890343  92.6085854  57.8772688
  69.1937399  69.8894453  25.1283073  69.7652626  70.0280762  24.3730760
  69.4990349  70.5216599  25.7789493  88.5580063  97.4663067  21.5538383
  88.9546394  98.2765770  21.2338853  87.8172398  97.3142433  20.9670091
 103.9698410  97.1724606  32.2311759 104.8003769  96.7296219  32.4053359
 103.6742878  96.8077946  31.3969707  73.7693071  89.3876553  51.3589573
  74.6361446  89.2159843  50.9910536  73.8817406  89.2694950  52.3021603
  70.3600883  66.5672588  67.0725679  70.3554487  67.5227022  67.0148039
  69.7835684  66.3691187  67.8105354  64.7219181  71.5037870  65.0343561
  64.5011139  70.7754707  65.6149006  65.6473541  71.6762257  65.2077532
  90.2511787  87.8789711  66.5084171  90.9198380  88.1795406  65.8929634
  90.2957153  88.5021114  67.2336340  80.3182602  71.6515064  47.1828794
  80.1209068  72.2347021  47.9157972  80.3371143  70.7768011  47.5711679
  86.2163162  50.5842781  40.2782059  87.0179558  50.1949310  40.6275129
  86.0525703  50.1064777  39.4651079  50.3463411  78.6356163  57.1905851
  49.5424175  78.5378122  57.7008486  50.0593948  79.0222788  56.3633108
  92.4250221  61.1822224  54.6739578  91.9113255  61.4928484  55.4195166
  92.9257298  60.4431629  55.0193691  81.7505169 108.2384491  60.7037592
  81.0917091 108.6935043  60.1792240  81.7315483 107.3369408  60.3825665
 104.9070740  56.2940741  39.5887876 104.4766712  55.5836868  40.0645351
 105.7585144  55.9343433  39.3400311  37.7358890  90.8116055  70.1793623
  37.5532794  91.7493153  70.2393484  38.5890174  90.7063198  70.6004524
  68.7626171  65.7526064  23.1317163  68.5046864  65.9798479  24.0250587
  69.4649029  66.3680315  22.9213047  78.2395267  94.0118408  31.2478852
  77.3691130  94.0085220  30.8496308  78.6369133  93.1893253  30.9618950
  29.5978808   0.1068259  31.7237401  29.9821257   0.7214022  31.0985279
  29.6066641  -0.7350301  31.2682962 112.8938675  60.8714342  52.2130013
 113.0087185  60.6812954  51.2819338 112.0488262  61.3181591  52.2637653
  67.8662252  65.4434347  35.3435516  67.0043182  65.0877571  35.1271296
  68.4821510  64.8817396  34.8730540 106.4537716  72.1300697   3.5705161
 107.1060085  72.7440071   3.9080065 105.6962681  72.2461176   4.1440591
  87.6575947  85.8310223  18.6901438  87.0686150  85.5051804  18.0095840
  88.5256386  85.5326557  18.4186351  80.0550175 101.5509319  74.7545481
  79.7193575 102.3757648  75.1055527  79.7222137 101.5192318  73.8576221
 101.6544450  16.7543746  69.1039419 101.1909832  15.9305144  69.2545652
 101.0016979  17.4320174  69.2798662  94.3023205  81.5413952  40.5437183
  95.2509499  81.6685295  40.5568171  94.0009689  82.0633316  39.8000813
  52.3595667  99.9723816  64.5957708  51.8274879 100.7530689  64.4419718
  51.8530989  99.4572449  65.2237511  73.1415653  88.5567570  29.6126652
  73.4807539  89.3406582  30.0447321  72.6642704  88.8897038  28.8526845
  89.8020458  59.8478460  22.5629759  90.1860332  59.0419436  22.9083800
  90.5546188  60.4001427  22.3512101  96.8773937  75.5332804  57.8539133
  96.3231659  75.7881212  57.1162653  96.2825108  75.5094481  58.6034346
 100.5205441  80.5963326  45.5000496 100.3100300  79.6694183  45.3871346
  99.8123264  81.0590649  45.0522327  99.8915577  85.4500580  51.0642433
  99.9368286  85.2315712  50.1334143 100.2060318  86.3527584  51.1139536
  72.7197647  88.0995560  63.0976009  72.5532675  88.7949085  63.7339926
  73.5683632  88.3229733  62.7152443  68.3711338  90.1847553  39.6586728
  68.7753534  90.2627087  38.7945175  69.0894461  89.9277592  40.2367878
 111.9178404   1.7929698  40.6307125 111.1706747   1.5224601  40.0970507
 112.5018943   1.0346175  40.6269979  74.1288900 101.7975521  34.0998983
  74.3144464 102.0477295  33.1947947  74.0827703 102.6281929  34.5733380
  25.3057169   5.2640486  52.0215702  25.4269671   6.0835601  51.5420485
  24.3698477   5.0781489  51.9453192  62.0114899  89.6547604  67.1421337
  62.4202776  89.2309666  67.8968048  62.6988554  90.2138710  66.7799902
  71.3994455  73.8914347  69.2251492  71.4567089  72.9414845  69.1224098
  70.7611084  74.0183878  69.9270296   9.9856447  23.1611396  17.7792370
  10.8188604  22.6911975  17.7453697   9.3540358  22.5075103  18.0793655
  76.9676685  68.1545782  54.1494083  76.1273670  68.1110907  54.6057272
  76.8338442  67.6426268  53.3517694 111.1982441 100.5358982  47.7014589
 111.4953899 100.9802341  48.4954977 111.6528702  99.6936417  47.7139235
  16.1493086   9.0426303  59.4865561  15.9468721   8.1073046  59.4662809
  16.3990759   9.2140055  60.3945637  18.5668730  26.3738394  72.1153212
  19.0152048  25.5444957  72.2808981  19.2294096  26.9253684  71.6992855
  88.2947636  97.6744652  55.3555441  88.1809616  96.7494678  55.1372290
  89.2432880  97.8022575  55.3697729 109.6800423  43.1917191  76.1104774
 109.8079777  42.3573780  75.6591082 110.5179977  43.6450386  76.0179710
   8.0240856  30.3973908  94.4891139   7.9426848  30.2294202  93.5502893
   7.1213805  30.4294915  94.8058427  73.3900499  81.9000721  53.5584307
  73.1500578  81.0556602  53.9400244  73.3926439  82.5057793  54.2996073
  85.3935719  99.0307617  68.2369852  86.1908150  98.6709976  67.8481197
  85.0516605  99.6287441  67.5723505  86.8605900  93.6742783  73.6358786
  86.5831470  93.0085659  73.0065250  87.6054573  94.1048622  73.2163525
  13.0056929   4.6933222  62.5502968  13.0491613   5.2997828  63.2895803
  13.7563681   4.1121913  62.6727772   9.3853544  17.0147372  52.7700901
   9.5711493  16.0780097  52.8353786   8.9896559  17.2396804  53.6121416
  75.5448437  94.8828411  22.6799273  76.4543009  95.0668049  22.9150438
  75.0498343  95.0620937  23.4793448  89.4496632 103.5199261  33.5274339
  88.5265636 103.2804489  33.4451389  89.5104122 104.3834591  33.1189418
  59.6583414  85.3532791  68.6761189  59.8766613  85.8267879  67.8734016
  59.1413736  84.6043491  68.3793449  89.3431664  75.9140444  52.0251846
  89.6594429  75.5872917  52.8674603  88.8809776  75.1705456  51.6381121
  81.4749146  64.4228458  25.5209732  82.1689320  65.0578690  25.3440404
  81.4613438  63.8607979  24.7462773  93.0115700 104.6221924  63.0847406
  93.8679790 104.6389389  63.5119581  92.6190186 103.7962151  63.3674145
  64.1040611  76.9381142  20.9172368  64.2775393  76.0488892  21.2261343
  63.3636427  77.2352123  21.4461422   8.4871649  13.6633445  30.3044605
   8.6203932  14.4232321  30.8710718   9.1445803  13.7601042  29.6154952
   3.9392447   3.8154746  69.2352676   4.6460985   3.6835719  68.6034536
   4.2419790   4.5374060  69.7860909 102.7860737  74.3972778  62.8944826
 102.0653057  74.7327471  62.3613930 102.3580551  73.9967871  63.6512136
   8.0240511  30.4906417  46.1588001   8.0192255  29.6465255  46.6100931
   7.6045584  30.3144026  45.3166580  69.4329166  78.3646345  41.6060162
  68.6031771  78.6552429  41.2274551  69.2779160  77.4524164  41.8510962
  99.8751224   5.2895499  69.8531818  99.9153627   6.2191821  70.0776482
  99.5192922   4.8692942  70.6361294 112.0304979   8.1194163  49.9566793
 111.7473234   7.8770877  50.8383322 111.9564308   9.0735007  49.9350977
  64.3392801  36.0867143  33.1287217  64.4268131  35.1438403  32.9888773
  64.9020052  36.4809537  32.4622750  80.0391865  78.9303493  23.7464261
  80.8447647  79.3035078  24.1042447  79.3391275  79.3394470  24.2551374
  75.8259869  97.8741074  58.4563875  76.7771578  97.9753971  58.4917068
  75.5249834  98.1336403  59.3271732   9.4528555   4.3580962  66.3871717
  10.0182985   3.6192084  66.1623287   9.3988775   4.3363238  67.3426008
  93.4135628  91.3938808  46.4303303  93.5242558  91.7418957  45.5455399
  92.7371693  90.7225418  46.3407564  59.9998856  89.7687626  48.1272316
  60.8424664  89.3382549  48.2719660  60.0982094  90.2100849  47.2835493
  92.3854065  92.4101543  63.7469244  93.1467438  92.1426582  63.2321119
  91.9592667  93.0810165  63.2134628  80.5648041  82.5699711  45.0785685
  79.6679688  82.8588581  44.9098730  80.5261517  81.6160488  45.0095177
 102.2346497 109.1041374  66.1354923 102.5337601 108.1950951  66.1558294
 101.6759300 109.1551590  65.3599548  61.1165142  90.8163834  57.8408289
  61.7145538  90.2910519  57.3092175  61.4291239  91.7149830  57.7357864
  72.0578957  90.8881950  42.0724440  71.4598942  90.2964401  41.6158772
  72.5649071  91.3021374  41.3740063  14.4354891   8.2582141   8.9694571
  14.2520594   8.1509543   8.0361402  13.8854765   8.9939070   9.2386550
 101.0521793  47.7090549  34.2846322 101.2462425  48.0445719  33.4094167
 101.4791203  46.8528128  34.3129969  73.4511948 107.0234776  54.5146561
  73.4176111 106.9455338  53.5612297  72.9626417 107.8238487  54.7068930
 101.9985676  96.6766453  50.3099680 101.1896324  97.0139694  50.6947613
 102.5080681  97.4591160  50.0993204  91.2553514  29.3309451   1.6336024
  90.9714569  30.2341796   1.4928654  92.0690836  29.4104434   2.1313514
  72.3458242 101.6019154  48.2970762  71.6321039 101.1973953  48.7902212
  71.9253397 101.9543552  47.5127220   8.6623132  26.3047891   7.1619815
   8.8578975  25.5971246   7.7761287   9.5148409  26.6921430   6.9635123
  83.1732368  67.3197079  52.9626846  82.3957539  67.4082613  53.5139704
  83.7074280  68.0844259  53.1773520  74.9623680  82.1354580  64.2086124
  74.4700098  81.5547276  64.7887611  74.8565054  83.0051517  64.5941687
  64.5005035  81.5030098  31.3803935  64.2806482  82.2704983  31.9084692
  65.2791071  81.7652702  30.8892488  76.8412924  65.7925653  38.7679219
  76.1398268  66.4339399  38.8811421  76.4631128  65.1218939  38.1992316
  57.5037384  26.9920182  32.6221561  58.2587957  27.2995186  32.1205997
  57.8790045  26.4280415  33.2984233  93.1761456  92.6324272  37.3925996
  93.8927746  92.1543026  36.9753790  93.3618736  93.5527897  37.2063851
  85.5388641  79.9336386   7.7701825  85.0200748  80.6528854   8.1304085
  84.9633598  79.1709423   7.8277439 100.1610470  81.7026806  15.9841454
 101.1081028  81.7300510  16.1204469  99.9494362  80.7694817  15.9598470
  77.3052835  82.2540283  40.0955057  76.8263912  82.8540421  39.5237708
  77.0720100  81.3820934  39.7768331  88.0149174  98.7306404  61.5801716
  87.4593067  97.9632473  61.7167139  87.5198555  99.2796135  60.9720850
  67.1901226  97.9238319  41.1254835  67.6168680  98.5157681  40.5060196
  66.9118071  98.4902954  41.8451309  12.0824490  95.5643940  31.7291951
  12.4860058  96.2706757  32.2337246  12.6744042  95.4302883  30.9890366
  72.2776651  85.4924107  12.4288046  72.0606852  84.8935890  11.7142701
  72.4411583  84.9208450  13.1790173  86.5044498  91.4565563  29.6051264
  85.7285023  91.8341732  29.1909432  86.6483116  90.6332588  29.1385317
 106.5447712  53.7067604  78.4951401 106.5057755  54.6626377  78.5269213
 106.1173820  53.4769106  77.6700735  23.1238913  16.3528014  38.5935473
  22.2181868  16.3806678  38.9020157  23.6219858  16.0251666  39.3424034
  88.5775185  99.6586132  49.8218203  88.8851357  99.8175812  50.7141924
  88.9589024 100.3696156  49.3067884  83.1513405 107.6894569  12.7109766
  82.4530029 107.2361851  13.1833076  83.1398201 107.3013115  11.8360817
  80.1185703  96.6410446  42.2768593  81.0192776  96.3617420  42.4410009
  80.0568867  96.7027950  41.3236427  33.5453962  23.5918570  33.1710911
  32.7533411  24.0211726  32.8477120  33.3297323  22.6592684  33.1701708
  95.8563805  81.9713783   2.7839699  94.9188232  81.8358421   2.9212910
  96.0446358  82.8024387   3.2200113  19.4852232   1.9511557  64.5271492
  18.9306616   2.3928023  65.1703072  19.9404120   2.6616717  64.0752697
  92.8833294  69.2315722  31.2500668  92.3798180  68.4968567  30.8995008
  93.2711983  68.8928127  32.0569301  78.6192560  89.4849300  52.0994473
  78.5272169  88.7781811  52.7384043  77.8352642  89.4185543  51.5543032
   3.9621424   7.5630141  34.7741461   4.3345141   8.0110408  35.5336404
   3.1691908   8.0583144  34.5688820 102.2654057  85.5968380  65.8805895
 102.0836639  84.9592400  66.5709972 101.6915226  86.3363934  66.0804415
 106.8833447  96.1667347  72.3310900 106.8369865  96.8812847  72.9663086
 107.7277946  96.2868500  71.8966818  82.3925018 102.1792412  41.5205240
  82.2694588 102.9385090  42.0902586  83.1890774 102.3762035  41.0276699
 115.5105985   2.4719859  61.6768503 115.9799923   2.4383689  60.8433199
 115.8637680   1.7385150  62.1803617  78.2823229  91.1899376  62.5890589
  78.9074707  90.8618069  63.2353926  77.4269342  90.9249496  62.9271650
  14.1534399   8.0079032  54.0970039  14.5345759   8.8857699  54.0794659
  13.3965754   8.0636931  53.5136747 100.1725674 108.5983467  28.8552999
  99.4280815 108.2925129  28.3371925 100.8884811 108.0094814  28.6166859
  90.7870388 102.1190166  60.5178738  89.8541164 101.9425774  60.6393385
  90.8510780 102.4676991  59.6287489  82.9538250 100.6861115  25.6309271
  83.7473965 100.8743572  26.1319757  83.1788731  99.9184132  25.1053596
  42.5641394  82.1741295   6.7376041  42.7588606  81.2896156   6.4278352
  43.4062099  82.5118446   7.0427203 104.2338289   0.5352259  84.9899101
 104.3066944   1.4894915  85.0071716 105.1349319   0.2245856  85.0779247
  80.4403652   6.5039015  48.3277941  79.6986211   6.0967208  48.7752819
  80.6300367   5.9170008  47.5958109  82.4024010 109.5665073  80.9392929
  82.7665520 109.0201664  80.2427769  82.5815773 109.0798664  81.7438507
  17.3103212  10.4834796  66.0950708  17.8778242  11.1329127  66.5102816
  17.3164248  10.7183886  65.1671600  92.4045563  95.2540493  30.2481604
  91.7146873  95.4748058  29.6223927  92.7774048  96.0984993  30.5013895
  88.3959198  84.2496777  82.1101856  88.8683891  85.0819016  82.1303082
  89.0731907  83.5936832  81.9452477  69.9107695  62.4299622  37.9704309
  69.3847084  62.6701593  38.7331867  70.1024771  63.2630253  37.5397444
  86.7185211  96.8636894  40.6857109  87.0929718  97.1424484  39.8500609
  87.0870590  95.9929371  40.8347321  54.1345835 100.2855492  50.5436325
  54.9896479 100.7070541  50.4574442  54.3342590  99.3965721  50.8370066
   2.5790381  19.0207244  35.0182796   2.6588415  18.1726790  34.5816112
   2.2429775  18.8107825  35.8896136  90.5842400  73.1556511  43.5794449
  90.1668739  73.7348413  44.2170811  91.4609909  73.0033875  43.9320898
  70.9713268 102.6243877  45.8130789  71.1516285 103.5643864  45.8020210
  70.1294374 102.5367165  45.3661251  84.2419685  11.4278651  61.5427637
  84.8377193  12.1646357  61.6787004  83.3709015  11.7918826  61.7007875
  84.3283749  82.5198269  56.9036484  84.5826054  82.9577351  57.7159500
  83.3714581  82.5423622  56.9087553   4.5797514   8.4675933  48.3960199
   3.6864065   8.6468173  48.1026697   4.8220038   7.6585341  47.9454947
  72.1782112  59.5743322   8.8676721  71.8323946  58.7830687   9.2806500
  71.4830160  60.2235985   8.9743853  99.2703152 100.3965473  35.7968831
  98.7063408  99.6463299  35.6089020  99.4302273 100.7961464  34.9419117
  91.7544460  94.4084454  49.4587421  90.8160877  94.2801952  49.3198872
  92.1166611  94.4999886  48.5774660  88.4291553  82.5117016  47.1967030
  88.6554813  81.6497517  47.5460386  88.2644653  82.3574352  46.2664795
  58.3944702 100.0898552  60.7623625  59.3423271 100.1141262  60.6311846
  58.2719517 100.3551865  61.6738558  81.6848278  79.6556759  33.2266617
  82.4340820  79.3481779  33.7368512  81.2939930  78.8578320  32.8703976
  76.5635395  79.0899277  33.4035826  77.3506165  78.6257935  33.6887479
  76.5917063  79.9219275  33.8760424  22.2353434   6.7565585  45.5840635
  21.8638968   6.9790793  44.7303963  23.0344366   7.2803736  45.6414652
  90.9972000  90.4585266  65.2785254  91.4923382  91.1875248  64.9048519
  91.0932255  90.5639935  66.2250423  83.5468102  64.2917585  39.5770121
  84.3912888  63.8415861  39.5562434  83.0058098  63.8152313  38.9473462
  72.2430515  95.3382778  48.4686661  71.7554760  95.7838631  47.7758741
  72.9619503  95.9348297  48.6773205  69.9592304 102.3050404  37.9079843
  69.6566248 103.1112385  38.3259630  70.9097910 102.4046516  37.8555417
  98.6815739  62.2400427  27.0639682  99.0795803  62.7703476  27.7543283
  98.6435509  62.8231812  26.3058591  74.2906427 102.7297783  28.9530373
  74.2438507 102.1991253  28.1577706  73.5578346 103.3408356  28.8766980
  23.7411951  16.6261912  53.1249762  24.0325998  15.7453395  52.8895378
  24.5015883  17.0249129  53.5481262  79.7334242  93.5441494  62.3871756
  79.5014048  92.6584911  62.1078634  79.6419239  93.5265350  63.3398294
  88.5460758  75.4239559  43.9091492  88.0302143  76.0183954  44.4539022
  89.2506599  75.9697247  43.5599709  84.6850300 100.6757069  66.2321997
  85.1868534 101.3326931  65.7497311  84.0385818 100.3576946  65.6019592
 105.6736565  45.9636784  38.3469152 104.7764778  46.1749172  38.0887079
 105.8629894  46.5639687  39.0680504   8.0172705  13.6005450  59.5281553
   7.9857992  13.8431979  60.4535532   7.1676611  13.8716174  59.1804361
 106.9549179 105.8774471  33.7591195 107.3002911 106.0963345  32.8936529
 106.8236256 104.9296856  33.7319255  53.1908131  90.9217739  38.0841804
  53.6320734  90.3032112  38.6663246  53.6803007  90.8690453  37.2632957
   9.4709276  13.1947470  20.4635596  10.0453257  12.4290610  20.4587984
   8.6654352  12.8873301  20.8793855  76.7479134  67.5321770  51.0659409
  77.2674894  68.0665064  50.4653025  77.0230818  66.6332245  50.8859587
  15.5527186  30.6433726  47.8878164  14.6911787  31.0368205  48.0262804
  15.3740667  29.8435164  47.3932981  61.9225502  83.0095673  67.5009489
  61.1393309  82.4592972  67.5001764  62.1759844  83.0641937  68.4223700
  67.9979849  37.9546762  27.5136423  67.4822187  37.2298384  27.8669500
  67.7483034  38.7088799  28.0475569  88.6983871 107.9124451  29.2718220
  88.8673210 106.9710636  29.2331219  88.3005905 108.1193542  28.4261417
  80.5530453 100.0987434  46.6545773  80.7445717 100.5191803  45.8162546
  80.8838463  99.2059612  46.5558815  99.1705894 104.2282677  49.5595312
  98.8396740 103.8496780  50.3740215  98.6185074 104.9958897  49.4105577
  97.3565483  93.4721661  37.3690557  96.8508530  93.2641888  38.1547046
  97.2264194  94.4119644  37.2422624  93.3149624  27.0014787  26.2658048
  93.8559914  27.7709103  26.4432907  93.9225197  26.2638021  26.3200808
  98.2847227   1.1427355  49.1411829  97.4495853   1.3420535  49.5643330
  98.0570139   0.9827567  48.2253313  95.1297951 103.9078617  22.5207615
  95.5167580 103.0996895  22.1840882  95.8774185 104.4237709  22.8226328
 114.2121220  90.5710411  58.5443974 114.7369576  89.8133278  58.8025618
 114.8526192  91.2667561  58.3961773  79.8639059  58.4234190  41.3973904
  79.3158674  58.1839466  40.6500340  80.7119370  58.0202961  41.2114620
 110.3314495  68.9087677  20.3606224 110.1681519  68.1193542  19.8444927
 110.4615593  68.5886478  21.2532735  68.6547518 105.1113319  36.3596559
  68.3320522 104.3299580  35.9107089  68.9517117 105.6870079  35.6549263
  14.9966978  11.4387465  41.0306549  15.3795981  12.3004866  41.1950493
  14.4029402  11.5772963  40.2927589   9.6775316   1.0990382  16.8728530
   9.5210146   0.1556731  16.9152784  10.6143259   1.1943675  17.0447636
  81.3332176  83.1914806  29.2534161  81.9675255  82.4775887  29.3185544
  80.6277561  82.8364468  28.7125778 110.6715202  55.3598213  28.4822297
 111.5027905  55.0734091  28.8606238 110.5597019  54.8106003  27.7062893
  98.2299805 100.6886387  58.7917519  97.7502060 101.2914276  59.3598175
  98.9922142 100.4278374  59.3086815  97.8934574  95.9020996  82.0015717
  97.9829979  95.3729916  81.2089348  97.3423386  96.6386127  81.7369080
 108.2071114  93.3801937  35.2005267 107.9397488  92.5096130  35.4952121
 108.5042286  93.8216209  35.9962034  52.4696493  89.2269897  30.0266576
  53.3473539  88.9100838  30.2398086  52.0450354  89.3458366  30.8762503
  17.8030085  48.1008959  41.0511017  17.4216055  48.7638140  40.4755116
  18.3112787  48.6015654  41.6892385 100.1152706  99.6696472  25.3167963
  99.2117023  99.5373726  25.0299311 100.2587986 100.6119823  25.2293873
 105.6680978   9.0082217  84.2885113 105.4885019   9.8808337  84.6385479
 105.1800359   8.4156848  84.8602772  93.8494205 106.8197918  25.1844525
  93.5562038 107.7002907  25.4189277  93.5386467 106.2653351  25.9001565
  26.0850023   6.0695601  55.3602314  26.8371176   5.5108691  55.1642084
  26.2450289   6.8704749  54.8610783  92.8544617 102.6892185  26.9605374
  92.9475021 103.6141491  27.1887445  93.6253548 102.4953747  26.4272690
  80.3355789  72.2320175  34.8555160  79.9423647  72.3400068  35.7215166
  80.3899670  71.2841654  34.7336745  77.3534216  -0.2311277  13.5331917
  77.4155558   0.7218886  13.5974765  77.3663391  -0.4090928  12.5927711
  92.0963001 108.6718464  93.1766319  91.7418480 108.1266975  92.4742031
  93.0458546 108.5993958  93.0800819  88.6797905 104.4486141  47.8065825
  88.7666416 104.3842983  48.7576628  89.4334412 103.9679718  47.4642086
   1.7996573  29.0109778  44.2355108   1.9899105  28.1534243  43.8551855
   2.3714804  29.0656043  45.0011921  97.8593540  76.5535069  48.5197115
  97.0552540  76.7244864  48.0293846  97.6331139  76.7534924  49.4280338
  26.9970869  14.1141272   5.2711171  26.6606115  13.4011222   4.7283033
  26.9700789  14.8825026   4.7009423 108.0774498 106.3805103  31.3121271
 108.9191532 105.9477711  31.1689162 107.9077244 106.8503761  30.4956412
  69.8193789  77.5992346  55.5173874  70.5658436  77.1403313  55.9026480
  69.3541718  77.9711676  56.2667084 106.7855263  84.3634701  35.4015422
 106.1941624  85.0059223  35.0093913 107.4983120  84.2763996  34.7686267
   7.5286841  18.0521918  64.3772221   6.7377447  18.4421302  64.0049410
   8.0549501  18.8005210  64.6587753  89.5399857  93.8530731  57.0210075
  89.3554497  94.2723751  57.8614616  90.3272057  93.3325100  57.1807814
 110.1189388   6.3669825  19.5396197 109.8288120   6.5243102  18.6411178
 110.8115686   7.0116854  19.6840179 105.6569290  74.6930742  77.3941851
 106.4739990  74.9751186  77.8053665 105.0930023  74.4455910  78.1269741
  25.9600327  95.4682726  84.3068820  25.5489419  95.7316679  83.4835630
  25.3427289  95.7476944  84.9829656 110.6689930  84.9734592  31.3443828
 111.1498356  85.7987881  31.4064622 111.1691475  84.4514656  30.7170129
   2.6588211  92.9092693  30.9442544   1.7315445  93.0496311  31.1358190
   3.0949650  93.6893082  31.2871075  79.3859148  77.2151327  26.4308286
  79.8648262  77.8896046  25.9492111  79.0552330  77.6651430  27.2082424
  95.0915909  77.5310326  53.6681318  94.9884319  78.2571983  54.2831659
  95.1827431  76.7572832  54.2242241  69.8600578  83.7079430  51.4120007
  70.1157475  82.9324055  50.9125900  70.6623697  83.9819145  51.8563747
  42.8725981  11.0483790  40.8352137  43.2963728  11.0921241  41.6923809
  42.2179674  11.7464209  40.8557653  94.4497585 108.8283539  59.3039513
  93.6149693 108.7993240  58.8365078  95.0145149 108.2230663  58.8234234
  72.3154974  84.9390030  26.4893746  72.4850559  85.3057003  25.6216145
  73.1551504  84.5682430  26.7609620  86.3692379 107.4531555  20.7126665
  86.8064499 106.6721153  20.3734803  87.0769405 108.0824852  20.8516884
 108.5102844  93.8920879  78.3720016 108.4157944  94.3790436  77.5533581
 107.6139069  93.6686230  78.6225939  86.3088512  93.0313110  44.4744492
  86.1831665  92.6769829  43.5941744  85.9754848  92.3489857  45.0571442
   1.4394640   6.8723345  76.7628765   0.6778406   7.4022723  76.5276575
   1.9184612   6.7634726  75.9413290  72.2536182 101.2866592  88.5028458
  71.3482809 101.5722275  88.6255360  72.3534918 101.2080765  87.5541210
  83.6824703  95.6660080  29.3176866  84.4560432  95.9509754  29.8041153
  83.5768795  94.7445107  29.5541501 107.1664633   0.3091574  28.0871105
 107.1953596  -0.1980829  28.8983488 107.5086082   1.1694289  28.3302116
  20.1330637   6.6590167  58.1861019  20.9060072   6.5291739  58.7355947
  19.4027876   6.6923857  58.8040066   5.6583462  86.8909454  49.1218281
   5.6432972  85.9411049  49.2393446   5.2228222  87.2356606  49.9013996
  65.1337290  96.2178135   7.2563553  64.1996098  96.4258289   7.2366697
  65.1875925  95.3252602   6.9147867   1.2420330  70.8205271  65.9275389
   1.2784348  70.9682560  64.9825096   0.7297097  71.5551758  66.2652445
  65.8668982  34.1924233  89.7897839  66.2332140  34.5469232  88.9796155
  65.4983698  33.3462853  89.5358902  70.3965807 107.1674252  65.5294800
  70.8152103 106.4516068  66.0075808  69.5099831 107.2086143  65.8879328
 110.3053665  66.7873669  18.5070825 111.1042595  66.3610935  18.1967735
 109.6088696  66.4120865  17.9682887  93.2576847  73.5138226  37.7283335
  92.4400330  73.3864403  37.2472382  93.9274502  73.1164789  37.1717668
  54.7640562  80.6210423  91.6671276  55.5130100  80.8047295  91.1000633
  54.0724945  80.3412247  91.0673904  73.8258648  77.8278208  39.8199606
  73.0186415  78.3363056  39.7420549  73.5578823  77.0180798  40.2543974
  58.7794971 101.6470242  21.6310143  59.1182709 102.1182632  20.8698392
  58.1720734 101.0046196  21.2641478  79.1795683  95.8874702  14.8607302
  78.7457037  96.7071819  14.6239722  80.0887966  96.1368084  15.0261402
  61.6349649 106.2670040  70.4276562  61.6118670 105.3113556  70.4769039
  62.5534630 106.4923191  70.5753946  98.1241989 102.6224518  76.5433407
  99.0011311 102.5972366  76.1604786  98.0081749 101.7560959  76.9334602
  98.5705376  98.1602955  29.7730732  98.0215549  98.9366722  29.6630859
  99.3154812  98.3092499  29.1907454 105.2301788  64.9404383   6.2418950
 106.1041927  65.3303051   6.2233710 104.6959305  65.5245113   5.7036906
   9.3766842 103.4902000  24.4289017   9.8492585 103.9065742  23.7081122
   9.9887715 103.5179520  25.1643038  94.8482800  79.9741364  23.7734890
  95.0154781  80.9145832  23.7116027  94.5134163  79.7330523  22.9097891
  71.0975361  88.2473850  19.2911804  70.5047512  88.0939102  18.5554636
  71.9679308  88.0573177  18.9411449  92.5291920 107.1859360  64.0907431
  93.4640789 107.0557594  64.2497206  92.3073483 106.5376759  63.4223318
  78.9774561 107.7596474  20.7328749  79.1650009 107.0221233  21.3134909
  78.0283594 107.8716087  20.7868147  81.6308117  95.3208733  34.6910930
  81.7112350  94.8347950  33.8704276  81.6039085  94.6448517  35.3682232
  85.4511166  86.5996265  39.7122192  84.9545860  86.3515854  40.4920721
  84.7951126  86.6516018  39.0171027 109.9683918   7.3691989  38.6373353
 109.8828090   6.8317271  37.8499150 109.5452226   8.1969882  38.4094548
  73.8183546  69.3507528  58.4385824  73.6149740  69.7384167  57.5873566
  73.5292912  68.4413910  58.3628368   8.5843729   7.2849036  35.3631973
   8.9520620   6.4114238  35.4976273   7.8970884   7.3599387  36.0251975
  48.9724697  19.1579772  42.3102903  48.9208330  19.1579581  41.3544846
  49.5385195  19.9009658  42.5195503 101.7108631  91.5365219  65.0812626
 102.2596931  90.8969688  65.5351210 101.6827679  92.2896481  65.6713772
  41.5410506   5.9072156  91.8817356  41.0660349   6.1856217  92.6647296
  41.9427668   6.7091746  91.5474915  77.2938395  80.4516411  63.3759928
  76.4608669  80.9114265  63.4808302  77.2987938  79.8017502  64.0787363
  99.6401405  81.4789104  83.0167484  99.4725895  82.0152092  83.7916946
  98.8726711  80.9110260  82.9479790 115.2537632  80.0637341  21.6948128
 116.0308170  80.5262661  21.3809991 115.5166149  79.7001266  22.5403476
   2.3078274   0.8653212   4.3375942   1.8173861   1.5589381   4.7787318
   3.2074617   1.1907817   4.3063492  81.1296654  67.3532343  31.9781160
  81.8083668  66.8857574  32.4650073  80.3066444  67.0360994  32.3500037
 114.5242023 105.2136135  15.1582205 113.6779594 104.9229908  15.4982865
 114.7737980 105.9416485  15.7273459  22.8508925  50.0054312  31.1996126
  23.3231234  49.7605658  30.4038286  23.4991240  50.4691840  31.7296743
  33.4052919  43.7052012  35.8248353  33.1023096  44.5509959  35.4945922
  33.9256071  43.9225341  36.5983105  11.4071344  16.6039134  60.1465130
  10.8345675  17.0186759  60.7917786  11.9575762  16.0124922  60.6598043
  17.9841494   6.4257956  17.1553659  17.2527575   6.5978385  16.5623260
  18.2454371   7.2909690  17.4706972  23.7655710  15.0655795  33.6157990
  23.7938284  15.1298857  34.5704198  23.6949324  15.9720851  33.3166647
  18.5879206  24.9147940  46.7363310  18.9493250  25.8008433  46.7133665
  18.1976008  24.7928286  45.8708763  91.9880676 105.5729389  34.8175740
  91.8502426 106.2294769  35.5003619  92.5545692 104.9181843  35.2257347
  34.3009638  18.4609462   6.6081667  35.0946116  17.9258395   6.6065913
  33.6596369  17.9367972   7.0879573  19.8069262   7.2099353  47.3599434
  20.5827021   7.7617598  47.4594259  20.1351809   6.3158370  47.4551153
  53.3033466 100.9492683  39.1407299  53.7363720 100.4739094  38.4316778
  54.0172148 101.3786602  39.6121597  48.5010790   7.3774195  33.0606461
  47.6879477   7.7564288  33.3944345  48.2185530   6.7629100  32.3833108
  12.4557280  10.1842738  39.5039940  12.9518961  10.8818198  39.0756607
  11.6335081  10.1406909  39.0158391  16.1094259  18.6725283  37.9254341
  15.5826353  19.3787242  37.5512409  16.2082552  18.9101268  38.8473940
  36.5400862  14.5400573  60.1083899  37.1557211  13.9653445  59.6534824
  36.9378256  15.4089404  60.0529146  30.2028917  36.5636397  28.5477495
  30.9524225  37.0308066  28.1787276  30.4174017  35.6378985  28.4327626
   6.7028879  13.4634066  43.6564493   7.0764040  13.5772467  44.5303822
   6.4468931  14.3459750  43.3885670  87.5065327 108.5928822  26.8889332
  87.7332306 108.2596874  26.0207033  86.6045094 108.9004135  26.7994523
  31.6138243   4.5278025  77.2723818  31.7229914   3.5880328  77.4178123
  32.0430636   4.6916724  76.4326620  46.8353510  99.9833393  30.8466220
  46.4337683  99.3622303  30.2390170  46.1255074 100.2324104  31.4384985
  37.8602861   5.3438807  35.3443122  37.1577238   4.7767306  35.6620717
  38.0927061   5.8835555  36.0999298  21.4800524  12.1540118  24.2125177
  21.4432406  11.8862963  25.1307797  21.7471575  13.0727435  24.2414117
  21.2561487  32.1755458  29.8350716  22.0430731  31.7295695  30.1482368
  20.7521891  32.3573733  30.6282949 114.8746742   6.2546969  61.1178303
 114.6814979   5.4757357  60.5961657 114.0634311   6.4311267  61.5942717
  91.2636471  92.4062634  30.8846164  91.9908142  93.0285645  30.8704305
  91.3125896  91.9613743  30.0384998  49.6909321  28.9182478   6.3414210
  50.6284321  28.9564424   6.1520118  49.4319713  29.8327833   6.4545077
   9.1914711  92.4842358  43.0642509   9.2927323  93.3924580  43.3490610
   9.2541848  92.5240803  42.1099424  11.6837477  44.0948439  57.8276014
  10.9637522  44.2052317  58.4486055  11.2613463  43.7986899  57.0213175
  73.0088234 105.9628010  73.1622267  73.5019398 106.4307499  73.8360882
  72.1640396 106.4116096  73.1285238  32.0114660  80.3294849  65.0031376
  32.6888800  80.5318832  64.3578672  32.4953842  80.0264931  65.7714128
  90.2502441  66.2796021  12.7834141  90.4292583  66.0841990  13.7031996
  90.2759933  67.2350836  12.7321374  20.4175448  16.0419417  52.6516771
  20.7431006  15.3250647  52.1073103  21.2030863  16.4142085  53.0523825
  17.7793287  13.4250499  16.8841314  17.6813959  13.8751937  16.0450757
  17.2872137  12.6109362  16.7780495  54.8651886 102.3269463  73.8676643
  55.0784206 102.9794693  73.2005930  55.7107210 102.0866489  74.2465639
  17.0609545   6.3003970  55.3439856  17.2469019   5.7062388  56.0710573
  16.8430876   7.1323443  55.7642508  94.1352463  86.8142700  74.2667770
  94.5207310  86.2101078  73.6322594  93.3345318  87.1259022  73.8449097
 116.2865223  24.4216204  44.4556713 117.1842779  24.4722510  44.1274929
 115.8873714  23.7116576  43.9528179  10.1778101  10.0340415  43.0285549
  10.3926825  10.7225943  42.3993063  10.9701609   9.4993163  43.0783510
  10.8278523 108.0978775  41.4845800  11.3910256 108.4301472  42.1836233
  11.1102543 107.1918392  41.3597631  19.2639599  86.0015297  43.7330627
  18.6017952  85.6099319  44.3026400  18.8562546  86.0169697  42.8671741
  96.1472321 108.8733292  23.3692288  96.5230274 108.5684776  24.1951060
  96.8315220 109.4190311  22.9816937   5.2508139  53.8612319  17.3515725
   5.5543398  54.3454123  18.1194830   6.0537123  53.5729171  16.9174564
 106.0786343 107.3008347  15.3901875 106.0924816 107.8871441  16.1466777
 106.9520855 106.9095898  15.3743625  22.0833849  17.1336032  57.2982550
  21.7202829  17.4325133  56.4645624  21.6086649  16.3248492  57.4900389
  15.0338053  12.9702330  63.2345915  14.2021536  13.3913089  63.4520102
  15.3015780  12.5363398  64.0446949  50.8410334  13.3501673  71.9364405
  50.7315802  12.6429034  71.3008022  51.3845610  12.9699660  72.6265574
 103.8648415 108.4958744  47.0195770 104.4016933 109.2411900  46.7502975
 103.1646919 108.8825703  47.5454092  23.1819891  20.6315375  60.8083820
  24.1003107  20.8137561  60.6090927  22.7114462  21.4050437  60.4977274
   3.0244516  29.0446044  37.3858714   3.1351732  28.7545062  38.2913065
   2.9887747  28.2343913  36.8774366  13.0996775  14.5687819  42.4262094
  13.9575552  14.3414641  42.0676136  12.8914332  13.8499785  43.0230236
 111.3986314  10.3198291  55.9395409 110.7593216   9.7403575  56.3539410
 111.6528095   9.8620177  55.1382685  20.4818510   0.9502745  23.9733863
  20.2937674   0.8424712  24.9057126  20.2265238   1.8523551  23.7802863
  93.7880802  82.3729134  16.3038790  93.6973286  83.0845737  16.9375479
  92.9577732  81.8993950  16.3549626  82.5798130 104.6581078  42.9208851
  83.4922123 104.6319771  42.6326609  82.5794792 104.1928959  43.7574339
  10.8255648  23.1053973  41.7097807  11.5004705  22.4834586  41.9816828
  10.5206369  23.5002566  42.5266886  78.2746935  99.7315025  39.6928740
  78.4934664 100.1393127  40.5307674  77.9983616 100.4599953  39.1368437
  69.7087645  21.8399764  53.4251595  69.8110746  22.7485324  53.7085152
  69.0796827  21.4660598  54.0421486  50.0049280   5.4225493  55.7157326
  50.9062838   5.1149321  55.6200171  49.4709181   4.6346427  55.6143713
  83.4110737  98.5643005  43.7208652  84.1000366  99.2266273  43.7745047
  83.6312008  98.0521965  42.9427099   7.4502621  67.9235649  34.9795580
   6.8865643  68.6531448  34.7222710   7.1271954  67.1801710  34.4704151
  79.1788578 104.2917061  52.6325178  79.5022583 104.6300793  51.7975664
  79.7178555 103.5192299  52.8028059  76.3874483  76.1628771  54.8636007
  76.7956209  75.6313658  54.1801405  76.9731092  76.9131327  54.9653482
  71.5030909  90.3506756  71.0039330  70.7058620  90.1663971  71.5006304
  71.5051174  89.6982098  70.3035593  69.8550701  85.6356525  55.9605932
  70.7259083  86.0237026  56.0459948  69.6063805  85.4059029  56.8559122
 102.7791179  11.5508414  73.0515051 102.3849882  12.3271132  72.6536322
 102.1691192  11.3016463  73.7457895  98.8409328  81.0037041  42.0724106
  98.7120628  81.4176369  42.9258013  99.7906876  80.9894753  41.9540930
  24.3851637   0.9020472  12.2082615  24.0769171   0.5652762  13.0495715
  24.2150473   0.1920558  11.5892255  15.8224844   6.3254119  58.8193989
  15.1203894   5.8888198  59.3017673  15.4727243   6.4362002  57.9353046
  77.6110268  96.8924332  55.1091242  78.2309008  96.2697601  54.7293043
  76.7766237  96.6872597  54.6873331  63.0443430 100.1490593   0.7303406
  63.7178469 100.1176834   1.4097843  63.0798435 101.0464478   0.3991700
  40.9955954  17.7236701  51.5252018  41.7002367  17.1427108  51.8119240
  40.5914377  17.2646762  50.7888460  20.6840300  30.0021220  23.9503646
  20.2092718  29.4759131  24.5937419  20.1277231  29.9875117  23.1715584
  61.8956900  98.3607483  36.4754629  61.4471579  98.6000729  35.6644273
  62.8060722  98.6186028  36.3307548  94.8711109  95.8264637  21.7044163
  95.2247047  96.7135620  21.6391468  95.4215813  95.3055859  21.1197019
  82.9698944 108.6359119  37.2741580  82.9631424 107.7523899  36.9059682
  82.4284840 109.1493797  36.6746140 111.5627289  88.2378483  35.1034522
 111.9816875  87.3925686  34.9415517 111.8281174  88.7825489  34.3624401
   4.2826710  91.3435745  26.8957639   3.5888348  91.8630505  27.3019218
   4.6307907  90.8091450  27.6095128  93.9862693  19.9248362  70.4648590
  94.0601791  20.6548167  69.8501253  94.8505224  19.8662329  70.8721256
   2.6113949 104.3231392  61.3943434   2.0370922 104.2268658  60.6346416
   2.7984772 105.2609634  61.4358377  75.7555199 106.2694073  34.6485877
  75.5324364 105.5120182  34.1074538  75.9333754 106.9689178  34.0198708
  63.5816002 108.0542278  34.6884203  64.0521526 108.8871384  34.6556067
  63.7126637 107.6707649  33.8212371  58.7749004 106.3134098  65.1879311
  59.1965675 106.3832855  64.3314552  58.8969278 107.1753120  65.5860043
  98.6493969 105.0822067  46.7062283  99.5034599 104.6781921  46.5526628
  98.1071949 104.3725586  47.0506811 109.8952450  26.2447215  23.1027627
 110.0205482  26.1116648  22.1631742 109.4408048  27.0846987  23.1672072
   5.0209498   4.4828559  53.0338383   5.1386713   5.0420714  53.8017225
   4.5392012   5.0282241  52.4119663 112.0567239  32.8562403  43.0961990
 112.1930898  33.1363536  44.0012836 111.1169208  32.6842547  43.0377197
   6.7464232   4.4446612  14.4287467   6.2509893   3.7581588  13.9821100
   7.6197123   4.0711642  14.5474517  73.4974527  63.9456272  38.7714505
  72.6246548  63.8676882  38.3862543  73.3513689  64.3864441  39.6084499
  39.3906212 107.4758148  53.6375284  38.5497737 107.0724297  53.4219265
  40.0373983 106.9436169  53.1742096 116.6210079 101.8566608  77.9276609
 116.0172367 101.1156940  77.8760910 116.2768269 102.3970318  78.6388350
  73.4998655 107.2275257  39.1207242  73.9237881 106.6504955  39.7559881
  72.7288246 106.7397308  38.8312817   2.0446610  15.7277442  67.5638294
   2.6042818  16.4544249  67.8376865   2.6561998  15.0482321  67.2800732
 105.7584000  85.5299377  65.5817938 105.5983925  84.6425343  65.2606440
 105.3225327  86.0970783  64.9457073  19.1792082  20.2477122  64.0637684
  18.6816477  20.4273463  63.2660246  19.9839090  19.8310328  63.7554312
  31.7916845  41.2413455  39.8293543  31.9598269  40.3003455  39.7796082
  31.7262339  41.5215445  38.9164257 105.2427292 108.0803013  34.5512271
 105.2101517 108.6826134  33.8080001 105.6360722 107.2830677  34.1963673
 101.5105438  78.6310625  40.7914877 101.2980652  78.1659555  39.9823141
 101.8876266  79.4607735  40.4988813  82.2850037 105.1088810  21.2475777
  81.9121647 105.2861977  22.1111679  82.7772617 104.2959118  21.3615513
  18.8070368  22.1935321  36.6611576  18.9688849  23.1342650  36.5899825
  18.9690374  21.9916774  37.5827003  99.1696848  18.5784102  40.0846958
  98.4549774  17.9675723  39.9049854  98.8417162  19.4259215  39.7840285
  31.1402296   5.6832362  29.4839787  31.6762613   5.0292731  29.0353751
  31.6570067   6.4877272  29.4397402   4.1307806  15.1689673  32.6389360
   4.8066687  15.0066233  31.9808793   4.6177076  15.3454638  33.4439111
   6.3637327   8.2960654  56.7815065   5.7174467   8.9333392  56.4774847
   7.1120714   8.4163523  56.1969090  88.7450886 101.0077667  71.3750792
  87.9290295 101.4498234  71.6093302  89.1081619 100.7162285  72.2113895
 106.7659378  56.0142422  34.0384459 106.0608673  56.6462374  34.1787815
 107.5294876  56.4099979  34.4586849  44.3793081   3.3589221  59.6545029
  44.6853327   2.7830268  60.3551626  45.0496649   4.0394927  59.5938921
  93.4058380  95.6285858  52.8871965  94.2176151  95.6129742  53.3941507
  93.4069252  94.8001480  52.4077034 106.4400578 100.7262230  10.0161159
 106.3441086  99.7808552  10.1314509 105.7404613 100.9655762   9.4082415
  37.8482603  53.1467581  27.0451522  37.6174425  52.2721053  27.3580742
  38.6918997  53.3335829  27.4569750   0.3147720  17.0433284  25.4083014
   0.7703375  17.5128794  24.7095776   0.5018066  17.5497866  26.1987090
 110.6616879  98.1550980  39.1037393 111.0090065  97.7663517  39.9065304
 109.7272778  98.2687950  39.2774820  92.0654501   3.1793643  60.4930925
  91.7714990   3.5579730  59.6645546  92.0069708   3.9003325  61.1199999
  74.5495033  91.7402649  38.7483001  75.1068020  90.9687996  38.8507509
  73.8795710  91.6433620  39.4250846  69.8777914  78.8119841  19.9717462
  69.1600847  78.3622074  19.5258439  69.8887348  79.6875525  19.5851076
  27.5146174  16.4081240  39.1525865  27.3281263  16.0990477  40.0391102
  27.5494169  15.6112147  38.6234713 108.1494904  91.2703514  62.2844791
 108.8195705  90.9613132  61.6747999 107.7054024  91.9762325  61.8146229
  24.8029398  14.1637374  49.9433851  25.1985048  13.4586573  49.4309235
  25.2269053  14.9597789  49.6227598  95.9221172  82.7153587  45.8819675
  95.7456493  81.8114758  45.6210232  95.1131248  83.1853294  45.6797457
 115.3023815 107.7161121  67.2205114 116.0115051 107.1740246  67.5662231
 115.6900215 108.5862541  67.1266413  38.5832380   2.0454360  51.3072443
  38.6171888   2.9127646  50.9037304  38.4323954   1.4467192  50.5757999
  89.4176674  52.4031544  70.6580734  89.2986202  53.2519913  70.2320051
  88.7985325  52.4126291  71.3880157 110.4358578 102.2941017  69.9657154
 111.0045719 102.3426533  69.1973114 110.4812527 101.3780975  70.2397919
  19.0465330  28.9015818  28.7734795  19.6420836  29.4237281  28.2359719
  18.6607718  29.5303775  29.3834257   2.9592572 104.3272495  29.5479941
   2.9040394 104.0428734  28.6356807   3.6006794 105.0376797  29.5390224
  18.4654688   6.8475199   6.7380983  17.9539846   6.6052581   7.5100589
  19.3653368   6.9127417   7.0578134  79.2094898  74.8457766  40.1295996
  78.8509274  75.6571865  40.4891586  79.1348028  74.9505424  39.1810846
  87.4643707  84.0344715  51.4729738  88.2384109  84.5674133  51.2911272
  87.0181370  83.9644432  50.6290483  39.1973661  23.8074733  44.1352892
  39.7024988  23.3415747  44.8016357  38.8932585  23.1208850  43.5417080
  36.1589121  20.9937621  73.6151171  35.4077124  20.4052497  73.5404110
  36.9082522  20.4605056  73.3498573  11.0246157  30.2472544  32.2731495
  11.5952944  29.6113349  31.8416786  11.2173342  31.0769702  31.8365121
  98.6615276 102.0016766   7.4048573  99.5180225 101.5744114   7.3953426
  98.4328079 102.0590973   8.3325541 102.6159573  80.7073498  21.3128352
 103.5354996  80.5076027  21.1374331 102.1291828  80.1347542  20.7200336
  15.2789377   0.5495024  46.9487524  15.0616621  -0.0410699  47.6700306
  14.5217394   0.5033732  46.3650179  36.1210035  10.6912184  16.1615419
  36.3119577  10.6342459  17.0977688  36.6564440  10.0036383  15.7656109
  47.4728060  18.3193636  49.0831757  47.9491663  17.5173616  49.2979002
  47.7735853  18.9571714  49.7304535  14.8949492   0.0112420  33.4820080
  14.8258567   0.7502953  34.0863752  15.6107545  -0.5187742  33.8326335
  69.3455887   2.4166490  74.8048449  69.9351025   3.1572106  74.9472284
  69.3902683   2.2526126  73.8628674  46.2002945  19.0394509  31.6955233
  45.7200480  19.2073286  30.8847117  46.8873596  19.7057688  31.7092896
  34.4398284   7.1078235  49.0380859  34.6900105   6.2092876  48.8229704
  35.2717400   7.5667042  49.1546297  27.0964170  20.5584979  20.3288507
  27.1528101  21.2595797  19.6795940  26.6185641  19.8582792  19.8843491
  11.0903704  11.5573812  29.3021512  10.6408954  11.2194538  30.0767541
  11.3068807  10.7772708  28.7914824  19.9209177   8.5709476  22.7371407
  19.9184048   9.2219257  22.0353889  20.7482982   8.7165236  23.1959200
  94.8949493 105.3749701  12.2257864  95.6260014 105.2414107  12.8290737
  94.1540707 104.9392735  12.6470935   7.3349333   0.9752265  43.7756395
   7.0436889   0.4286723  43.0457830   7.4710298   1.8397853  43.3880234
  36.8995601  62.5868339  69.5034605  36.3681559  62.0924420  70.1274925
  36.3390079  62.6809514  68.7332946  41.0108232   1.4960091  27.3276353
  41.5011358   2.2508614  27.0020247  40.1286936   1.8329047  27.4844027
  58.0053282  12.5174093  49.7173023  57.1520281  12.1926081  49.4298744
  58.0456209  13.4133732  49.3828487  38.5259867   6.4063227  45.0571394
  37.7519703   6.8062037  45.4536533  39.1340637   6.2866539  45.7866240
  59.0628433  10.9162891  36.1052537  58.1459808  10.6475568  36.0471678
  59.3374491  10.6432915  36.9806361  53.8063002  11.0005426  26.7154336
  53.0175400  10.4998922  26.9238520  53.8653612  11.6551173  27.4113345
  26.4331007  29.4212770  38.8742447  26.6434216  29.1836357  39.7773075
  26.5293813  30.3732729  38.8484693 107.7069927  70.7014918  15.6890035
 108.2286240  69.9602365  15.3813171 106.8031479  70.3880023  15.6570363
  39.4411659   9.7614342  30.6665301  39.5960426   8.8183427  30.7196665
  38.7483668   9.9267846  31.3059974   6.1268603 102.7400928  13.2386696
   6.5039860 103.5997432  13.4257722   5.9654700 102.3565816  14.1007054
  34.7170234   1.1958801  81.7758274  34.5672894   0.7808514  82.6252747
  34.1369677   1.9573043  81.7757034   3.5471379 100.1603317  42.8871346
   2.9809462 100.7010114  42.3363829   3.5410057 100.5973446  43.7387276
  21.4893007   9.6013695  65.2598381  21.5053725   9.2400652  64.3735886
  21.1282921  10.4814434  65.1531887   3.2100045  98.7974333  10.5063331
   3.7717282  98.0239581  10.5556750   2.9020916  98.8124108   9.6001333
 114.9740697 107.5190062  21.1319327 115.7116390 107.7051998  20.5509400
 115.1867152 107.9790848  21.9439316 111.8637896 106.2606620  23.4360147
 111.8922401 105.5788618  22.7647686 111.6425682 107.0593014  22.9569864
  63.8868761  17.2504973  37.4798322  63.3178091  17.9082656  37.0801640
  64.7175932  17.3364592  37.0121217  10.4145908   2.7435267   7.2416759
   9.6610481   2.1563023   7.1819085  10.0489414   3.6172405   7.1032721
  33.9523339  13.8242304  25.0217152  34.7348166  14.3642747  25.1326442
  34.0902686  13.3706558  24.1901660  28.8129317  78.4250306  21.7034698
  29.5114504  79.0340614  21.9430351  29.2668854  77.6902508  21.2908459
  29.6476316  18.0955625  28.2955790  29.8828888  18.5894167  27.5100899
  30.3623867  17.4687934  28.4074569  12.3307550   2.8536695  19.6281207
  13.0909467   3.3836219  19.3883467  12.2923517   2.9081768  20.5829954
  67.8213501   3.4591806  21.8258905  67.5785255   2.5800312  21.5354371
  68.1733274   3.8815990  21.0423684  38.0537510   4.0794510  49.3384886
  37.4468279   4.6357998  48.8502741  38.9211869   4.3478939  49.0356350
  59.0226889  18.5916889  62.0551825  59.8674917  18.5896611  61.6051388
  58.6816263  17.7063501  61.9283581   1.5002476  73.0159807  18.6767077
   1.2252699  73.8754701  18.9959180   2.4567400  73.0509424  18.6883020
   5.3328675  31.7927361  42.1274137   5.4061538  31.1658382  42.8470421
   5.8047926  32.5666451  42.4349546   8.8317978  25.3470278  32.5799966
   8.1222302  24.8569798  32.9954457   9.5202166  25.3811431  33.2441854
  41.6384935  11.0309613  44.4923830  42.4317932  10.7283878  44.0503979
  41.6753578  11.9850135  44.4241381  17.0178092   8.8953894  20.3859496
  16.7236543   9.5886189  20.9768295  17.9712272   8.8967925  20.4709411
  11.9511401  84.9762677  24.6901155  11.0073649  84.8535775  24.5877743
  12.2719561  85.1197218  23.7997627  36.5309798 107.9608782  26.6889644
  36.2335669 108.1423948  27.5804973  35.7487284 107.6481418  26.2345314
  38.0014825  41.2384844  48.0796289  38.5641646  41.1828613  48.8519812
  37.2790146  40.6388521  48.2659483 115.5902840  69.0248393  41.9907284
 114.8204375  68.9776897  41.4238548 115.3770638  68.4578656  42.7318859
  17.8842735  10.9470761  35.3400803  17.6838160  10.3387547  34.6287465
  17.0730352  11.0004699  35.8453274  73.1863434  77.1899699  27.7312469
  73.6540405  76.8830561  28.5079670  73.7870012  77.8115153  27.3199987
  48.0668879  23.0660033  48.7782812  47.8908920  22.2302818  49.2105150
  47.4050474  23.1232810  48.0891371  22.2593808   0.5804320  72.9168510
  22.6215291   0.6373696  72.0326376  21.4636707   1.1114910  72.8844309
  43.4073639   4.6461579  47.7389145  43.8675261   4.2099673  48.4560061
  44.1024542   5.0470030  47.2169924 115.0524236 100.0763469  50.5599928
 114.7612644  99.2462336  50.9373093 115.6890775  99.8250675  49.8908424
  36.2209058  28.8576174  19.4794643  36.3106322  28.2353830  18.7576556
  35.3192854  28.7462783  19.7809851 106.4679933 107.2452592  18.9787960
 107.0724369 107.8904571  18.6119175 106.3572098 106.5978041  18.2825494
 108.5102316  16.7118812  27.9292274 107.8294851  16.5634799  28.5855770
 108.7449934  17.6341438  28.0319452 106.5680743  96.9457638  55.6396580
 106.1934257  97.2472929  54.8120403 107.2103024  97.6169514  55.8704853
  52.7796984  15.6306744  47.5269365  53.3315420  15.0954521  46.9566441
  51.9262075  15.1976871  47.5094175   3.1976734 100.3440087  62.9326200
   2.8158699 101.1998069  63.1277323   4.1390883 100.4687475  63.0526543
   9.2074381  95.5796515  31.0407829  10.0720249  95.2785324  31.3201451
   8.9072214  96.1417019  31.7550683  43.6635780   8.3732092  30.0033426
  44.5150375   8.4446138  30.4347944  43.8535452   7.9469115  29.1676307
  35.3098989   5.4034579  38.2910514  34.6190190   6.0654432  38.2647204
  36.0374522   5.8342910  38.7396932  39.5677400   6.9583523  50.9182215
  38.8912582   7.5497627  51.2481308  40.0150967   7.4618226  50.2380610
  20.4049754   1.3967890  19.6815109  19.7774553   1.9527841  20.1433754
  20.0007844   0.5291139  19.6804798  77.8206177  94.7295701  33.6931968
  78.1180940  94.3187475  32.8814292  77.8279994  95.6677603  33.5035205
  84.3678398 107.0856141  53.4762096  83.7794561 107.8403273  53.4973001
  84.0752787 106.5334969  54.2013359   0.5968295  80.5225825  10.4795027
  -0.2129520  80.5712961  10.9875488   0.4408156  79.8214602   9.8467964
  32.8582191  13.3690715  16.1900318  32.0959044  13.8822293  16.4579403
  32.8582025  13.4212708  15.2342558  44.0110636   9.4595265  26.5224218
  44.3879747   8.8105696  27.1165776  44.2063999   9.1248965  25.6471515
  98.9164639  97.7416121  62.8246498  99.4230772  96.9316816  62.8845501
  98.5437108  97.8561651  63.6988163  24.1346073   7.7617365  42.4192142
  23.1849074   7.8138220  42.5268745  24.2567682   7.4117702  41.5366983
 112.2017790  65.2548456  17.1454561 111.8136049  64.4690561  16.7606437
 112.5315023  65.7507228  16.3960409  87.4833382  63.2913636  35.0076294
  86.5261818  63.2848977  35.0140834  87.7218808  64.0149164  35.5871177
  21.4473568  82.6844167  34.0670896  20.9608446  82.6868200  33.2427502
  21.5180622  81.7588782  34.3007779  24.9051332   4.3420777  38.3935642
  24.6449542   5.1464230  38.8425255  24.3553495   3.6619905  38.7827325
  62.4146032   4.0620816  73.0486965  61.6190767   4.0019777  72.5197744
  62.2940588   3.4086442  73.7376976  10.4181515  83.0139231  13.2754219
   9.5244442  83.0453920  12.9340589  10.9688078  83.2418584  12.5263882
  10.0661731  19.6473885  10.5648100  10.2176571  19.5879877   9.6215409
   9.1427481  19.4201779  10.6738698   4.4988361  16.7359865  63.4510136
   4.8473793  15.9556198  63.0199957   3.5997200  16.5013278  63.6807060
  40.6508957 109.2159027  48.6707973  40.9644209 108.4142079  49.0893888
  41.3579165 109.4682957  48.0769444   8.6750007  19.5801270  20.6795430
   9.4549930  19.0280950  20.7352519   8.7254238  19.9790132  19.8108780
  94.4381178 107.2551360  19.8341501  93.6491669 106.9409236  19.3924952
  94.1529823 107.4441319  20.7281351  72.0076227  23.4500694  51.5497875
  72.0801163  22.4969792  51.4988708  71.3131142  23.6035705  52.1903563
  41.9054556   4.1335067  24.4935155  41.8325520   3.2233173  24.2063355
  42.6857567   4.4634610  24.0479898 113.7993670  96.6469800   6.7262232
 113.2780696  97.3809790   6.4010638 114.6140743  97.0476054   7.0295078
  12.7410256 101.8365359  58.0173397  12.6235997 102.0288348  57.0870352
  13.3031594 101.0619360  58.0327034   2.7217900  97.7916478  20.3084493
   3.1035458  98.6374807  20.5431032   2.9772555  97.6585399  19.3956232
  50.4568243  17.9531360  32.0492005  50.3582668  17.0021176  32.0035672
  50.2679920  18.2563853  31.1611605  95.6167484  90.0181722  20.3145719
  95.8876134  90.0714623  19.3980432  95.9213592  90.8385419  20.7024336
  65.2170515  20.4024005  35.5183101  65.6020784  19.5268226  35.5550098
  65.1195621  20.6597972  36.4350820  47.4534655   5.6084466  31.3999701
  46.6836357   5.0537497  31.2738514  48.0854988   5.2912700  30.7548618
  54.8627472   1.9250144  30.1313233  55.5702591   2.5241199  30.3695059
  54.0628004   2.3882985  30.3796840  36.1778545  20.2536511  70.7297182
  35.8762169  19.6599996  70.0420952  35.4090691  20.7820535  70.9441805
  49.4661093  11.8311942  35.1121688  48.8502073  12.3184752  35.6593919
  48.9484596  11.5562832  34.3553996  42.2133017  27.7807498  34.3480992
  41.9639444  28.5706210  33.8683534  41.6874504  27.0849371  33.9536881
  29.5775485  25.3596568  12.2245646  30.0055361  24.8616028  12.9209852
  29.9991035  25.0573707  11.4201117  42.1378599 108.8573700  51.7211962
  41.5526568 108.1093019  51.6021967  41.5997874 109.5145596  52.1625710
  19.0406609  21.7027688  66.2608910  19.1425014  21.3227963  65.3882647
  19.9270642  21.7144465  66.6219807  19.2380177  99.4829261  10.7730031
  18.4877716  98.9618170  10.4869843  18.8551508 100.1863515  11.2972510
  59.2557240  19.3614483  12.8907931  58.8357544  18.5353875  12.6510453
  60.1258564  19.1073668  13.1982732  37.6676846   2.2469217  40.5267048
  37.7051783   3.0651367  41.0220289  38.2544279   1.6549242  40.9973431
  40.5927706  58.5450745  18.5937703  40.0492668  57.7901506  18.3680987
  40.3833914  59.1988945  17.9267561  19.3737255  65.1475429  11.3084912
  19.1274201  65.8383083  10.6933427  19.5523583  64.3869161  10.7555306
  19.6871649 106.3464453  37.2134471  19.0600859 106.8521547  36.6964746
  20.4621683 106.9059389  37.2641540  32.3856401  18.4568882  22.6206493
  31.5732384  18.6858678  22.1692014  32.1284199  17.7824187  23.2492661
  98.9701283  90.0045103  89.1650116  99.8853409  89.9715323  89.4434625
  98.9958107  90.4291958  88.3075642  38.2105112  48.6461878   3.2655030
  38.4124231  49.5205021   3.5987255  37.5038958  48.3321285   3.8296804
  35.9526849  29.5710444  15.5743694  35.0833917  29.1753864  15.5110109
  35.9027863  30.1367211  16.3449228  53.2256985   6.9085962  32.9738045
  53.1896305   6.9467986  32.0180464  52.3086882   6.8876559  33.2474470
  16.4581084  27.6998782  38.9078259  16.9293141  26.9740534  39.3169403
  15.6178856  27.7282333  39.3654895  98.1633902 108.0281822  17.3277247
  97.8779174 108.0809186  18.2398415  97.6340295 108.6832207  16.8728244
  63.3348942  39.2669249  20.3196645  62.5323963  39.6338320  19.9487054
  63.0358696  38.5390043  20.8645964  25.4300833  30.4003167  74.4334936
  25.9149981  30.0485921  73.6869144  24.5723557  29.9785352  74.3821764
 106.6877186  64.4895918  88.3447981 106.3713419  63.6018605  88.1772518
 106.5407049  64.6235240  89.2811107  59.5444202  50.1043510   9.5356667
  58.8901186  50.7685614   9.3190008  60.3376245  50.6038094   9.7295684
  54.7748422  96.1903757  92.1745321  54.2702794  95.9735770  92.9585258
  55.6622457  95.8894915  92.3700139  38.4989691  27.8533673  28.8448071
  38.0318141  27.3406887  28.1851411  39.4213247  27.6380348  28.7065196
  29.4715071   4.1964653  45.4752874  28.7439895   4.6933067  45.1009941
  29.5032597   4.4717443  46.3914967  50.7191467  22.3161721  13.7924421
  50.8281422  22.9835725  13.1149983  49.7783566  22.3051071  13.9685941
  55.1188374  25.0756836  14.6549070  55.5792236  24.2379761  14.7050989
  54.9435616  25.3076720  15.5668783  25.1816164  99.2129778  40.5028439
  25.7577454  99.6032261  41.1601210  24.3037020  99.2936777  40.8756542
  70.7127666   4.7928402  32.6224375  70.0275993   5.0020063  31.9875932
  71.4269209   4.4351196  32.0949411 107.8779984  97.5458836  25.2928591
 108.3839632  97.1229362  25.9866500 108.4036470  97.4207091  24.5027614
  36.1040592  19.8694992  62.1322727  36.3358212  19.8722482  63.0609894
  35.7623148  20.7484126  61.9680977   1.3768231  97.7669334  42.2663975
   1.1861597  98.0780291  43.1513262   2.1292864  98.2880365  41.9862556
  52.0806170  15.7705307  15.7631004  51.8856430  15.8247411  16.6986632
  51.3967371  16.2938905  15.3452015  25.6180024  24.9884915  51.7284107
  25.2383685  24.3662977  52.3488808  25.4892683  24.5812511  50.8717823
 114.7685958  92.1473836  22.1593356 115.4452182  92.4237203  22.7774382
 114.8277069  92.7780985  21.4417434  54.1998434  26.9311786  17.1607161
  53.9332771  27.8434324  17.0468605  53.4549570  26.5165257  17.5959635
   7.2556912  83.4546947  17.7655232   7.5975596  82.5943541  18.0087769
   7.8639494  83.7744736  17.0991957   7.5984465 103.9937782   4.2630112
   6.8694722 104.2868637   4.8097557   8.0465542 103.3354377   4.7940642
  35.2075171  44.2287350  33.3610988  34.2527127  44.2952108  33.3738852
  35.5107880  45.0704288  33.7014103  40.1113462  23.7559795  63.6426258
  40.1771069  22.8038836  63.5689974  39.5836282  23.8995767  64.4282007
  52.2807169  14.1026187  20.8359098  52.2382307  13.1800628  21.0875416
  52.9951000  14.4617558  21.3621354  59.1297531  15.3776264  43.0988026
  58.7576485  16.2203228  43.3588648  58.5434961  15.0584185  42.4127674
  53.5138083   9.5806724  33.5945392  52.9496861   9.4654888  34.3592167
  53.5745668   8.7071168  33.2079649  46.0260296  18.9097404  19.4293988
  46.4686155  19.4499660  20.0840020  45.4375315  19.5146942  18.9778078
  28.2538486   9.1598845  34.0180588  28.2772803   8.4914625  33.3333015
  29.1043615   9.0887386  34.4514155  13.0915689  30.6742716  88.6189461
  13.6487544  31.0942793  89.2742157  12.2777724  30.4815507  89.0845966
  13.9416718   1.9383052  62.3042154  13.4948671   1.9980828  61.4598083
  14.8549724   1.7600620  62.0798445  36.0961890  39.4584680  17.5029778
  35.4757547  39.9905610  18.0011463  35.9720159  38.5700774  17.8370094
  50.6696987  37.1471143  51.9643307  50.8736753  36.4695144  51.3197517
  50.1583481  36.6938758  52.6346445  46.5763187   8.9855731  34.9574471
  45.6723356   9.0596151  34.6515536  46.6336107   9.6026200  35.6869674
  75.0286865  32.9564095  47.1340179  75.0455666  33.4819102  46.3341427
  74.2154741  33.2104254  47.5703621  29.4148374  22.9405141  46.6818857
  29.9554944  22.4245024  47.2799301  30.0366163  23.3088303  46.0542202
  12.0872437 107.3437809   8.6014277  12.7465664 106.9619566   9.1808575
  12.2267281 106.9086718   7.7603239  13.5030209  98.7407994  63.6063719
  13.5816990  97.8398048  63.2929230  12.5967203  98.8118588  63.9060402
  45.9289156 108.2852744  44.9087811  46.2663065 107.4275402  44.6505356
  44.9774443 108.1811430  44.8993349  12.7666317 108.0629944  26.7348051
  12.3368155 107.8426706  25.9083986  13.7015902 107.9754648  26.5492868
 100.7836605 102.2626453  31.4898038 101.2401129 102.7767097  32.1558523
 100.9241343 101.3527250  31.7516112  64.6027803   6.4844173  44.7791576
  63.7842655   6.8008316  45.1614475  64.9097347   5.8150548  45.3906822
  79.9866104  21.7490077  26.8372512  79.8033190  21.5655327  25.9158540
  80.8604622  22.1396708  26.8344426  54.6866322   3.1954092  21.9488263
  55.1178360   2.6709688  21.2740970  54.7449636   2.6613122  22.7410197
  65.2735007  37.6939661  92.5387832  65.5484593  36.8521375  92.9020378
  65.4648387  37.6251859  91.6034275  16.6240180   5.8978349  32.9020381
  15.9703326   5.8150125  32.2077274  17.2527945   5.1985085  32.7236724
  87.2226429  17.4423361  33.9916992  86.2689114  17.3659503  33.9634418
  87.4437809  17.3401880  34.9173856  28.4559952 106.6140934  38.2911158
  29.2395817 106.4144903  38.8033485  28.7071358 107.3637184  37.7514672
  15.2392721   8.2811779  62.8353930  14.6002328   8.4821194  63.5191202
  15.3962159   9.1192883  62.4004555 115.3482057  99.8331415  30.4288149
 115.3624535 100.6653106  29.9560332 114.7769190  99.2704486  29.9060917
  38.1380224  19.7299087  39.2083955  38.4309983  20.0307965  38.3482409
  37.5540781  20.4221964  39.5181990  27.0174408  38.4449315  43.5998392
  26.9354796  37.6341891  44.1020489  26.3553309  38.3690381  42.9127598
  35.4102731  17.2821307  32.2902513  35.7298398  17.1656108  31.3955283
  36.1887550  17.1802366  32.8378057  64.0873432  25.2231765  33.7830162
  63.5062742  24.4887638  33.9810705  64.5256853  24.9694848  32.9707766
  55.4603958  23.9870548  29.7709584  56.3317919  23.6450887  29.5710540
  55.5078268  24.9143386  29.5383072   7.8320490  76.9952797  12.2433972
   8.4574114  77.2033667  11.5492392   7.5480353  77.8477477  12.5733435
 116.1368246  21.3597107  14.9192476 116.2526933  22.2299623  15.3006542
 115.4096167  20.9777212  15.4106581  39.9513960  22.0717835  23.7392902
  40.6463909  22.2907281  23.1185865  39.1405153  22.2151399  23.2512808
  15.1053559  99.2226648  16.5700364  14.9155508  99.3678879  15.6431520
  15.6252848  98.4191226  16.5850139 100.0840927  68.9642381  45.7236290
 100.4969002  68.1019115  45.6765604 100.8139611  69.5734119  45.8351278
  16.0654068  13.2243586  68.5284567  16.6791296  12.6544452  68.9918947
  16.5889764  13.9846635  68.2753944 113.9014603 105.8152296  25.1000452
 113.1277681 106.1251780  24.6293402 114.5613194 105.6876233  24.4184756
  64.8176193  15.6727374  33.7060976  64.7451401  15.8799303  32.7744055
  63.9428425  15.3731763  33.9536023  60.0486612  16.0717690  30.3783154
  60.2857733  15.5733335  31.1603475  59.5945930  15.4403090  29.8203611
  82.7547550  10.9876192  19.4300568  83.6967087  11.0313261  19.2655766
  82.6833820  10.6765425  20.3324795 113.3809114  99.5362126  40.1710129
 113.5374165  99.4415938  39.2314458 113.1492902  98.6552667  40.4651499
  52.8002071  18.8516021  36.9363999  51.9576454  19.3054819  36.9541121
  53.3524704  19.3481171  37.5403118  23.7384892  39.3997097  35.0423622
  23.8367152  39.1127133  35.9502244  22.8877091  39.0538621  34.7725534
  36.6319596  99.6154260  32.7897000  36.4967715 100.3438466  33.3958030
  36.0410677  99.7987699  32.0593095  34.0824604  13.5658181  58.9558220
  33.9083505  12.8646469  59.5837355  34.9728632  13.8529515  59.1582298
  60.4445839   6.4973414  54.3751669  60.8141899   7.3092502  54.0281391
  61.1058807   5.8322251  54.1840172  66.4167929  17.3862338  63.6940527
  67.0726204  17.9828417  63.3332491  66.4669895  17.5192273  64.6406364
 109.4989301 108.1357310  27.8148580 109.0621854 108.6657529  27.1481037
 109.9627973 107.4612720  27.3187113  23.6189771   6.3632941  40.1636553
  22.6654601   6.4199299  40.2255392  23.8562131   7.0222932  39.5112205
  41.1034060   2.0205995   9.8007989  41.4132071   2.9110166   9.6352315
  40.3506565   2.1329659  10.3812945  18.7940776   2.6772729  36.1885953
  19.5026910   2.8294253  36.8138528  18.3251333   1.9194010  36.5378118
   6.4581680   4.1018948  22.4496555   6.4151007   4.3212655  21.5189290
   7.3926711   4.1170496  22.6563096  47.7829599  26.4733744  51.0111284
  47.4041891  25.9124017  51.6879416  48.3004045  27.1168423  51.4953041
   7.5308167  79.3849444  16.4875793   8.1832444  78.7103485  16.2991965
   6.7499863  78.8967132  16.7486775  10.8137548  33.7255383  15.5743837
  10.5360186  33.5996151  16.4817083  10.4173195  32.9954004  15.0990212
  59.3415356  29.9528718  33.6699533  59.5072842  29.4008780  32.9057121
  59.8441172  29.5437622  34.3744230  46.5461349  10.8930874  41.6011000
  45.9281063  11.6217113  41.6592360  47.3839521  11.3058138  41.3914537
  32.5347757  33.6726427  31.8729115  31.8813896  34.3557549  32.0234966
  32.7413106  33.3418775  32.7470803  68.2660198   8.6375004  15.0428939
  67.4527788   8.3560902  14.6237528  67.9964352   9.3262267  15.6505227
  25.7933831   9.8396140   5.8631527  25.8723259  10.7276344   6.2116063
  25.5259967   9.9626172   4.9523252  38.9602709  18.6267471  90.0954342
  38.8648510  18.6820209  91.0462570  38.0937505  18.8483727  89.7544670
  28.9031005  19.8195982  44.7845364  28.9856029  19.5268250  43.8769531
  29.8049784  19.9535799  45.0759029  57.6291370  22.5584769  27.5556564
  57.4107361  21.6505241  27.3455191  57.8380394  22.5445604  28.4896779
  46.0863781  16.6046464  30.4045486  45.3051186  16.6245365  29.8518562
  45.9033012  17.2354281  31.1008453  19.4442211 104.8562133   1.1884488
  20.1090180 104.8588380   1.8771248  19.1577755 103.9444124   1.1355352
  14.1679513  27.7202749  24.3159747  14.5456040  27.2572374  25.0637746
  13.6275661  27.0640635  23.8759732  35.4381418  10.0144565  38.0292678
  35.1732945  10.9198332  37.8668499  36.3934255  10.0495398  38.0786443
  39.1704154  19.0216196  29.8408747  39.8306346  18.9775586  29.1492105
  38.3662677  19.2764723  29.3885159  86.7104149  12.3180437  27.3475075
  87.1483994  11.5038800  27.0994353  86.1151791  12.0644820  28.0529404
  51.3959074  23.6626959  65.5945349  52.0197153  24.0405273  66.2144852
  51.0584974  24.4138122  65.1064682  19.2162693  10.3324378  20.8858371
  18.5786450  10.6995702  21.4981103  19.2462325  10.9617758  20.1652336
  32.7669072  27.8351235  17.4356246  32.8856158  28.6768460  16.9955754
  32.3468399  27.2789836  16.7795134  66.5468884   3.9616883  54.3257809
  67.1026039   3.8814721  55.1010084  65.6631470   4.0758359  54.6753645
  14.5220267 101.1444306  89.5554161  14.2030846 101.4663314  90.3985596
  15.4570090 101.3494366  89.5589161  79.4343328  15.6473076  39.7149777
  79.4035912  15.4149663  38.7869120  80.0816250  16.3507247  39.7644663
  54.4762278   5.1557374  24.4802308  55.4053831   5.1865977  24.7081518
  54.2246628   4.2433536  24.6234202 102.7359749  87.7722286  51.1867809
 102.4955584  88.1614541  50.3459835 102.1222855  88.1565189  51.8128300
  76.0379076  31.8424249  28.7940741  76.0764170  31.0091519  28.3245993
  75.1380205  31.8945193  29.1161323   9.4107115  31.8038130  14.8948050
   8.9626801  31.1855149  14.3175626   8.7474829  32.0550370  15.5376482
  60.0083971  27.1433282  39.5425606  60.3222036  28.0446053  39.4687200
  60.1371288  26.9196510  40.4643154  49.9718142  40.1483536  48.0938625
  50.9154415  40.2463627  48.2210922  49.7456694  39.3553996  48.5799885
  74.5912624  97.0976209  45.4317713  74.9497784  97.9603600  45.2234983
  75.1972265  96.7362344  46.0786390   1.5709388   8.5803670  49.6662760
   1.9246724   9.4204521  49.3741131   1.5564707   8.0390519  48.8769722
  34.1853237  20.9319806  16.5711057  34.4405389  21.0621595  15.6577873
  33.8991714  21.7966938  16.8654168  54.8335600  13.9856982  26.0590100
  54.6585512  13.6817324  26.9496322  55.5486870  14.6144176  26.1566949
  63.6412811  34.7632575  41.0708523  63.5160923  34.1445255  41.7903900
  62.7553844  35.0379968  40.8343458  77.4453926  20.5524254  74.2085600
  78.1540966  20.8568454  74.7753906  76.8124914  21.2705231  74.2097521
  36.2406492  46.7502689  30.5705762  35.4323983  46.2478590  30.4678917
  36.8926334  46.2600851  30.0697088  22.1792388  12.8228104  82.0717049
  22.4143314  13.5346937  82.6668358  21.2572861  12.6476181  82.2602367
  72.7039289  33.7822819  48.3567762  72.1057606  33.1378770  48.7351513
  72.1436167  34.3432999  47.8205442  22.0361363  92.4808490   3.4177321
  22.6574932  91.7581379   3.3292261  21.2607895  92.1902739   2.9374850
  39.6271062  16.2170386  61.6158962  39.9315405  17.1213984  61.6912842
  39.2772889  16.0090709  62.4822760  29.2263865  28.5543656  29.8217797
  29.0161610  28.8573527  28.9384699  29.7636318  29.2539835  30.1934409
  14.1450799   2.0848091  39.8129272  14.0117288   1.8178648  40.7224274
  14.8497617   2.7313182  39.8539281  92.9445066  37.6468849  23.3865094
  92.7029385  38.5472441  23.6038399  93.8385763  37.5528002  23.7151718
  81.5840828  64.6657473  90.7119804  82.0415318  64.0236593  91.2548414
  81.2198078  64.1531516  89.9903303  55.5480433  11.6109502  10.9264779
  55.5094099  10.7019758  10.6289804  56.1236429  11.5885031  11.6909456
  10.0857579 103.9080041  15.2747416  11.0222231 103.8565808  15.4660964
  10.0022589 104.6589529  14.6870899  14.9950147   3.7285435  49.6638489
  15.3088832   3.5379755  48.7798834  15.0590539   2.8928125  50.1261091
  65.5647326  53.2117939  22.9835844  65.8011961  52.6385975  23.7128067
  65.1267529  52.6349258  22.3577785  36.9781590  12.6040876  47.9161358
  36.3774848  12.3075855  47.2323895  36.7125106  13.5064173  48.0935192
  58.6927986   5.1280665  31.3814092  58.2903957   5.3683889  30.5468130
  59.6091938   5.3887880  31.2893391 104.3335868 103.3359557  15.1893330
 103.8328052 104.1494202  15.2503729 105.2130176 103.5734557  15.4833126
  61.2405825  18.4934914  35.9216499  61.0538864  17.8581500  35.2304792
  60.4014254  18.9244556  36.0838652 102.3291266  95.0984091  64.7429329
 101.7382395  94.6971936  65.3801995 103.1950724  95.0343270  65.1457578
  18.3644748  26.9362426  20.4175758  18.8349831  27.7530622  20.5838943
  17.5573194  27.0170450  20.9257126  94.2265522  71.0187382  84.4691628
  94.0195477  71.9084043  84.7553009  94.5668137  70.5880076  85.2533334
  98.4745980 106.5061640  25.6782508  98.0677391 107.3703700  25.7402682
  99.3821860 106.6488861  25.9468555  65.9163475  41.3000154  35.4629612
  65.7829332  42.0735550  34.9151754  65.4749346  40.5935812  34.9914289
  45.6958675  52.8933668  22.2655320  45.4014444  52.7234507  21.3707256
  45.4821587  53.8139868  22.4172449  56.9475937  17.3741496  30.5028343
  57.7781391  17.5183904  30.9562945  56.5293550  16.6637349  30.9892678
  20.9138894  10.6280637  44.7199154  19.9925590  10.8111846  44.5359373
  21.2932634  11.4841807  44.9183369  65.1161575  21.5708566   7.3020214
  65.7202625  22.2441888   6.9891119  64.5294523  21.4130211   6.5623605
  42.3286915  47.7232647  58.8850975  42.3434544  47.5854301  59.8322058
  43.0185604  47.1511173  58.5490084  73.0163336   5.0272459  34.9238968
  72.5513887   5.1883024  34.1028500  72.3827744   4.5627594  35.4707861
  35.1635551  28.1104684   3.7366909  35.6682420  28.8563681   3.4124118
  35.8190656  27.5232220   4.1130939  22.8910576 107.8084003  50.7933760
  23.7724482 107.7321386  51.1588478  23.0169331 108.2535801  49.9554014
  40.0702047  19.9639702  53.3979130  39.5984960  19.1800570  53.6793470
  40.2533531  19.8132920  52.4705601  70.2794790   2.7899754  53.3959103
  70.6964016   3.6036921  53.6792374  69.5562077   3.0735195  52.8367043
  97.5797296 104.0798508  28.1392288  97.2509564 104.4704967  27.3295760
  98.4436489 104.4734597  28.2614899  61.2750292  24.8467636  46.0216761
  60.7414913  25.3208399  46.6595030  62.0467997  25.3991389  45.8972549
 102.7291680  97.8946852  37.3124361 103.1501747  97.0403134  37.2173929
 103.2179047  98.4693944  36.7233038  23.9566647 107.8139710   2.8295323
  23.9014422 108.4526777   2.1187329  23.4633290 108.2111099   3.5472578
  92.1276248  89.3945717  62.4950552  91.8251503  90.2313399  62.8479862
  91.7443884  89.3515658  61.6189766  41.8889033  96.8914043  29.6493602
  42.2042548  97.6938926  29.2336726  41.1974989  96.5759587  29.0673947
  40.7646656  38.9394259   3.7679407  41.4231396  39.4278908   3.2739294
  40.8400011  39.2727852   4.6620482  26.3065468 106.4311629  54.4134712
  25.5236517 106.9741400  54.5056009  26.8981921 106.7460411  55.0968742
   6.2488829  96.4851462  53.5321331   6.6459309  97.2557568  53.1262493
   6.9304453  96.1403178  54.1090202  32.2199178  19.4494927  15.2513480
  33.0145311  19.6604514  15.7415736  32.1362424  18.4990680  15.3283107
  26.0409713   8.5729468  14.0242863  26.6535306   8.2096392  14.6638250
  25.8224869   9.4394493  14.3673170  38.6582255   7.8560662   5.1230043
  38.4972429   8.7122363   4.7264078  38.6249661   8.0187142   6.0656977
  31.5065098  17.1321821  35.8019972  30.6638598  16.7389953  35.5748892
  31.7731094  16.6811848  36.6030955   2.2749875  77.7948827  84.7709840
   1.8951914  76.9696349  85.0725716   3.1968567  77.7404684  85.0228423
  29.0273272  96.9500827  21.5999413  29.8898970  96.9132041  22.0132709
  28.4193550  97.0878040  22.3263264  40.1814114  98.2455169  52.2640800
  40.6430851  98.7323105  51.5813494  39.7760235  98.9212095  52.8075218
  16.3806425 109.3786581  31.5805960  16.4972245 110.3233884  31.4799738
  15.5320059 109.1976696  31.1765003 115.7394172 109.5336871  54.4733095
 116.6912366 109.6330500  54.4533491 115.5775500 108.9210748  55.1907635
 105.7156182  88.4966420   9.5796984 104.8435546  88.5261678   9.1861665
 106.2684799  88.0986237   8.9072728 111.7746902  88.4910797  16.1811185
 111.2952758  89.1829061  16.6369367 111.2461759  87.7045154  16.3161039
  25.9927559   4.9050674  11.3050187  26.7640138   4.4186458  11.0138404
  25.4637408   4.2581668  11.7718101  56.9064665  11.6310167  66.7564917
  56.0973597  11.8063295  67.2369480  57.4654913  11.1764145  67.3866224
  69.8097134  15.8925927  41.2081957  69.0375328  16.4441442  41.3337517
  69.5801306  15.0610757  41.6230536  35.1772213   8.5185379   7.0102775
  35.3540397   9.4591033   6.9928700  34.6091509   8.3676004   6.2547994
  27.1989189  99.1226064  17.4555790  26.9397055  98.7712752  18.3074045
  26.3778912  99.2044389  16.9703484  26.2892127  38.0202866  57.4429560
  26.9488168  38.6767626  57.2189093  26.6878605  37.5114489  58.1489277
  42.8799629   0.2302253  59.1651535  42.3401165   0.1667610  59.9530411
  43.6157751  -0.3591400  59.3308592  56.9584513  26.6616154  26.6954374
  56.9809437  27.2693992  25.9562993  56.7380285  25.8164215  26.3039112
 105.9866477 102.2431677  74.0123272 106.0548902 102.3668408  74.9590445
 106.8817211 102.3528289  73.6913157   1.5600907  94.6780526  65.4898787
   2.2913014  94.7599279  64.8776197   1.2978445  93.7595379  65.4283094
  33.8368106   9.0944779   4.6759158  34.7095561   8.9697045   4.3031135
  33.6120224   9.9998921   4.4616097  56.3901281   0.6883281  38.0343986
  55.6750154   1.1662573  38.4544349  56.5659904   1.1779326  37.2309113
  68.8477993  28.4721732  25.6603360  68.4810066  29.1854811  25.1379466
  68.2727814  27.7271461  25.4856372  70.2665377  22.6360226  48.1547117
  70.2572775  21.9435120  47.4939728  71.1252308  22.5588465  48.5705471
  35.4504871   2.6204470  12.8611290  34.9209094   3.1321791  13.4726107
  35.8055854   3.2678068  12.2519791  82.1208382  58.9568949  43.6426163
  82.1106529  58.5897303  42.7586937  81.3412857  59.5110273  43.6807871
  38.4906197  17.1464324  31.7938161  38.4471226  17.7456343  31.0486341
  39.4270372  17.0399439  31.9611859  51.8604422  38.0689812  43.6516047
  50.9377384  38.2774591  43.7978458  51.8599176  37.5140929  42.8716516
  44.5714921 107.0044846  86.7661512  43.6995765 107.3961729  86.8169075
  44.4472801 106.2099404  86.2470197  56.1241770  48.5886192  35.3183651
  56.2610579  49.5359802  35.3197265  55.4244089  48.4486485  34.6804261
  42.0974588  24.8913288  13.8778830  41.7130709  25.7098722  14.1916728
  42.4039173  25.0939965  12.9940057  76.5697252  16.3800473  76.3832146
  77.2621453  16.7119116  75.8116787  75.7689869  16.7840905  76.0488528
  28.4983097 109.2344107  59.2823982  29.0494906 108.5198882  58.9631939
  29.1103731 109.8416981  59.6981049  24.7662770 100.7066941  16.7400515
  25.3239857 101.2579005  16.1910820  24.0652596 100.4180538  16.1556780
  39.9842596  10.5733562  58.2337523  40.2556658   9.9086356  58.8667727
  39.5095825  10.0843489  57.5616026   2.5563275  63.3980130  12.2004008
   1.8382441  63.5431241  12.8164625   3.0994545  64.1825151  12.2765517
  47.3521090  24.5979714  43.9886093  48.0380678  23.9307833  44.0120983
  47.5549173  25.1760077  44.7241163  57.9834080  51.0627651  36.6569257
  57.0958185  51.3978910  36.5300250  58.5396385  51.8412590  36.6289425
  57.3331165  14.8327112  15.9357989  57.6139975  14.0008509  16.3170421
  56.6365528  15.1392043  16.5163994  29.5488358  20.6142569  59.2772198
  28.9137697  20.1925969  58.6983204  30.2708054  19.9886167  59.3369389
  39.6635461  28.0926704  79.3699026  39.3980098  28.6665845  78.6513329
  38.9042640  27.5293756  79.5196390  58.9149964  77.9806036  92.5114387
  59.0755427  78.9227409  92.5646847  58.3656168  77.7879400  93.2712382
  83.3766079  67.3138046  48.1356049  83.9012241  68.0416346  48.4691858
  83.0307674  66.8884611  48.9202785  38.2182717  35.7233596  60.1201868
  38.0157733  36.6261959  59.8750067  38.3714795  35.2775526  59.2871094
  45.2766514  21.3867259  15.2252591  45.4074574  22.1306849  14.6373451
  44.3558264  21.1510921  15.1121593  29.2856908  26.1417222  57.4881411
  30.1167727  26.5974307  57.6218033  28.6239529  26.8317628  57.5348139
  56.0513973  54.7241354  18.4173751  55.1197386  54.7467804  18.1989038
  56.3213921  55.6424379  18.4105623  19.0790617   2.1568045   3.9456204
  18.1242239   2.2240143   3.9466456  19.3190932   2.1416360   4.8721120
   2.8024963  31.8456650  25.6021523   2.6786882  31.0236478  25.1276088
   1.9805291  31.9752574  26.0752344  52.0136309  20.6495595  28.7167954
  52.1430206  21.0070086  29.5952725  52.8628206  20.7549691  28.2878518
  51.4013243  32.0563412  45.8495235  50.7952452  31.3448691  46.0561848
  51.2791872  32.6883888  46.5579224  43.3395958  16.3831997  63.6690140
  44.1815472  16.3245988  63.2174444  43.1791735  17.3228753  63.7556648
  67.6797009  44.4981098  42.4329853  67.2500896  44.9312305  41.6953754
  68.6101294  44.5093250  42.2084618  93.1794941 101.9919915  89.6514118
  93.3465779 102.1172137  90.5855608  93.7429535 102.6337952  89.2191750
   6.7271076 107.5877776  23.6806774   5.8103691 107.3152960  23.6410117
   7.0927512 107.0923113  24.4135141  31.8974280  42.7483082  15.5125570
  32.8409457  42.8815985  15.4217935  31.8160510  42.0368719  16.1477494
  56.0995722  41.7165899  57.0160913  56.5121365  40.8561611  57.0914745
  55.4735136  41.7462349  57.7395582  59.2671824  32.7750492  29.1745472
  59.3001461  32.0082211  28.6026049  58.3839703  32.7610278  29.5432925
  54.8847818  17.9364514  13.5484314  54.4842052  17.0973599  13.3210623
  55.4965353  17.7264321  14.2540395  32.5636816  29.3256640  10.2914298
  31.6295958  29.4973421  10.4107618  32.6108932  28.3929253  10.0816679
  39.4276571  25.7855868  17.4544036  39.2768955  25.4256678  16.5803552
  39.6118498  25.0208592  17.9998338  46.4030218  17.1921754  79.2225599
  46.6944551  17.7849877  78.5298300  46.4860582  17.7044725  80.0268555
  35.5681968  12.3826671  30.9115267  35.5014420  13.2741022  31.2537551
  34.6874428  12.1807778  30.5957031 110.2462769  21.6417885  37.2217274
 110.4271317  22.5748372  37.3354983 110.5243397  21.4514232  36.3258076
  55.9130573  38.9840579  49.7691584  56.3808489  38.3273840  50.2850914
  55.3937149  39.4678235  50.4114103  70.5337667  39.1776109  38.9220834
  70.7484102  39.6142197  39.7464228  69.8936033  39.7543430  38.5051918
  50.3536081   8.7070405  29.3592048  49.9068069   7.9265642  29.0313959
  50.4771805   9.2554414  28.5844684  76.3294458  28.5144567   0.8363762
  75.8366060  29.2763805   1.1410270  76.2570000  28.5480928  -0.1174852
  12.4050127  90.3351068  56.9240761  12.5384127  89.6167635  57.5424814
  13.0387055  90.1707684  56.2257528  56.2748909  69.9030304  20.5130506
  55.9652567  70.5359125  19.8651135  56.3850975  70.4150009  21.3142848
  51.8949652  11.1934757  47.0296383  51.8936157  10.8201885  46.1482239
  52.7673101  11.5753412  47.1266890  25.9122931 105.4381489  38.7548804
  26.0524927 104.7572374  39.4128585  26.7726456 105.8419561  38.6410117
  43.5227203  16.9518065  29.5609617  43.4166431  16.2090385  28.9665914
  42.7255583  16.9503009  30.0908327  43.5826445  44.4623470  18.4522343
  43.0611563  43.8076496  18.9166296  44.4391251  44.4327497  18.8786054
  32.9923368  36.2568808  45.4093599  32.2461486  36.8528438  45.4746532
  33.2135606  36.0497046  46.3173103  52.2853088   4.0275913  55.3979492
  52.6671362   3.4307131  56.0415173  53.0036354   4.2221394  54.7959661
  53.1387377  17.7335238   7.6453912  53.7514782  17.6884103   6.9113982
  53.5362101  18.3591115   8.2511020  67.0618582   7.8966516  24.3450236
  67.1049309   7.0144629  23.9760828  67.4195862   7.8046864  25.2280903
 111.2532712  93.7221681  56.0870218 110.9128881  94.3338095  56.7399120
 110.5535055  93.6509203  55.4378033 114.6953337  16.7375338   7.5791335
 114.2343791  15.9251535   7.7883947 115.3267792  16.4876819   6.9045353
  44.8622322  19.3555331  29.4797969  45.5867624  19.1930854  28.8757300
  44.2898512  18.5952020  29.3772721  67.0393038  41.9447327  19.8904204
  66.2378693  41.7309189  20.3681421  66.9685507  42.8823948  19.7114968
   9.0927731 109.9010768  57.1292830   9.4127880 108.9995492  57.0965576
   9.8471438 110.4125392  57.4217939  49.2513466  45.5529737  22.8133011
  49.6020651  46.1265564  22.1319532  48.5271454  46.0492134  23.1947589
  33.3794761  41.0284519  21.3273954  33.9916086  40.5052519  21.8448758
  32.8984857  41.5441036  21.9746828  39.7481608   1.4764528  42.0872736
  40.5316830   0.9612314  42.2792864  39.5924354   1.9819278  42.8850698
  21.4037347  55.7266855  63.8508463  20.9430718  54.8965216  63.9727306
  21.5389538  55.7889891  62.9052973  42.2458601  47.2935009  64.5401955
  42.9092455  47.4750519  63.8744688  41.6650629  46.6521120  64.1308975
  47.0924044  49.5985651  39.3858790  47.1005535  48.9916372  38.6457396
  47.2952175  49.0526438  40.1455307  52.4498034  32.4303007  49.9164677
  51.7600155  32.1243382  50.5053711  51.9805956  32.8533888  49.1973877
  45.7844830  50.3066969  18.6457682  46.6287470  50.2654934  19.0949392
  45.2776575  49.5871019  19.0219843  88.6214066  26.2097907  72.6507378
  88.2887554  25.6021047  71.9902086  88.8202000  27.0088148  72.1626091
  66.5212250  31.3720894   3.9452484  66.9567537  31.2772942   3.0981588
  65.6843758  30.9204054   3.8361764  61.2584245  85.9180230  87.6781374
  61.5366757  85.1735801  87.1446442  60.9488094  86.5647191  87.0439809
  77.5121784  10.1997018  67.9764128  77.5009680   9.4513947  67.3796368
  77.6414108   9.8133582  68.8425922  81.2675095  29.4706726  24.4605660
  81.6094398  30.2102780  24.9628663  81.2338448  29.7889280  23.5584521
 110.8463002  96.4399874   8.5194719 110.3147579  96.5047967   7.7260643
 110.4123498  97.0186531   9.1464210  57.5499964   0.3441683   6.9660914
  56.9345379   1.0598297   6.8071252  56.9998837  -0.3866084   7.2481823
  51.7224026  34.4345522  17.9175925  51.9651270  34.5715117  18.8333213
  52.3058033  35.0127625  17.4261165  46.4210463   4.8399058   5.4720891
  45.5353212   5.2028269   5.4759955  46.5021896   4.4154215   4.6180046
  30.5115986  25.1726985  63.0495262  29.7658348  24.6852875  62.6995277
  30.9488034  25.5293560  62.2763014  93.2524121  69.7955245  91.0297069
  93.9257872  69.2418665  90.6344056  93.0369866  69.3591124  91.8539440
  37.5708961  26.9604206  26.2559342  37.3307633  27.8206658  25.9116316
  38.0325794  26.5338612  25.5340433  28.7394571  51.2004519  39.7339392
  28.9768958  52.1001863  39.5095849  29.2487860  50.6605244  39.1295433
  32.1547365  32.4949551  34.6320057  32.0781755  31.6413808  35.0583625
  31.2778497  32.6721478  34.2915606  19.9430573  39.4536161  12.1397793
  19.0344179  39.3251920  12.4120176  20.3626037  39.8683262  12.8935885
  45.6708527  33.5655379  26.5777302  45.4645252  32.7097702  26.2018013
  46.3397980  33.9274549  25.9965587  54.6497297  18.7017357  31.2553287
  55.3645706  18.1308746  30.9736276  54.4511366  19.2346048  30.4853678
 102.5386345  96.4386076  89.6747744 101.6604483  96.8171639  89.6333444
 102.4488032  95.5794663  89.2624229  89.3350220  37.2243810  52.9790592
  89.4221401  36.7770743  53.8208151  88.8459492  36.6105318  52.4311209
  52.9378557  40.5296707  50.9275293  53.0569744  39.6444488  51.2716579
  52.8550291  40.4097414  49.9814939  84.6586990  20.7054543   0.9076304
  84.2544842  20.6685281   0.0407479  85.1909637  21.5008259   0.8900328
  69.4152212  23.2879281  39.7493625  69.2371178  24.1178012  39.3068457
  70.3256130  23.0899453  39.5297527  55.7808447  19.7937286  21.7177320
  55.3808737  19.8196959  20.8484912  56.6428518  20.1918983  21.5967298
  65.4897833  13.8424885  22.6664734  65.5382109  13.3947575  23.5111165
  65.3036642  13.1461692  22.0366096  18.6176538  31.2091660   1.4038487
  18.0987465  32.0004797   1.2596555  18.4700823  30.6798553   0.6200852
  81.9005024  71.2632996  79.9884337  81.3681090  71.6888100  80.6605416
  81.6939509  71.7378980  79.1832465  57.1009874  30.4860854  31.8687105
  57.6953506  30.2054739  32.5645709  57.4610758  30.0935888  31.0734034
  47.3739338   9.9242336   7.3431408  46.9082975  10.3506792   6.6237241
  46.7088556   9.8038864   8.0209452  76.1752653  41.5374994  53.8941765
  75.5687380  41.0653543  54.4646502  76.5334797  40.8641148  53.3158445
  58.3442020  47.9943419  18.8875151  57.4651432  47.9610157  18.5101902
  58.8757229  47.4520683  18.3047152  93.7967968  21.0540652  34.9382973
  93.4743977  21.9420385  34.7840548  94.7195721  21.0871077  34.6860576
  71.3383865  34.4512391  41.8227482  70.8080101  35.2456498  41.7607546
  72.2416067  34.7673774  41.8446112  53.4907198  51.5999317  26.1487055
  53.1340981  50.7893085  25.7854676  54.4269943  51.5580511  25.9541011
  60.3593493  27.2265840  42.2511625  59.9037886  28.0030990  42.5763130
  61.2869501  27.4170256  42.3908997  10.5413306  17.8295302  31.1274242
   9.9338323  17.2132194  31.5364933  11.0109425  17.3070729  30.4772425
  43.0980730  13.9562345  24.2689991  42.8433847  14.4135225  25.0704050
  43.5347319  14.6242654  23.7405157  37.1654940   8.3164078  40.6462765
  36.3978410   8.8438982  40.8669424  37.9039812   8.9186358  40.7367802
  66.1266756  49.1167307  36.0199571  66.4498615  48.2418442  36.2352633
  66.9030333  49.5932007  35.7258940  88.4977162 102.7370686  93.3369851
  89.3286431 102.6247067  92.8752826  87.8692019 102.9561419  92.6490862
  82.0988846  12.6727331  62.4079847  81.7376900  13.1889331  61.6873503
  82.4564171  13.3229315  63.0126667  40.2252293  40.8151865  57.8745127
  39.9118924  40.6938696  58.7708044  39.9745822  41.7119074  57.6524734
  29.0587664   5.3111100  55.4032755  29.8119283   4.8013484  55.7018089
  29.0997481   5.2620816  54.4482136  57.7676392  42.8781843  16.5961540
  57.8008080  43.0493164  17.5373471  56.8467999  42.9970264  16.3634121
  70.7553577  32.3387265  52.2202110  70.4664707  31.4605832  52.4684811
  70.8227491  32.8120732  53.0494452  13.2905722  56.9360447  41.7567539
  13.9650118  56.5713644  41.1837149  13.0880249  57.7900982  41.3749218
  71.6229105  16.9278049  36.9310403  71.8097925  16.4923012  37.7626920
  71.7052603  17.8613698  37.1257377  58.0267572  22.5532365  81.8203831
  57.3746586  22.5463820  81.1197090  58.2048988  23.4812951  81.9727135
  50.1504517  24.6129608  29.9039221  50.7149553  25.1355672  29.3343163
  50.5416584  24.6992278  30.7732606  52.7664852  27.6882768  61.1642122
  53.1867313  26.8637133  61.4085913  53.4149456  28.3596611  61.3762856
  59.0127563  69.2219448  17.5317478  59.2523575  68.8220978  18.3677781
  58.3836365  69.9048090  17.7644193  66.9441986  11.3536572  41.3040590
  66.3249063  12.0229185  41.5952682  66.5460110  10.9859312  40.5151033
  96.6779613  21.4900589  63.8862371  96.2316895  21.8345594  64.6597910
  97.1209621  20.7005167  64.1970587  57.4478960  59.7313595  22.7150130
  57.4700832  59.8274469  21.7629051  57.9741907  60.4610920  23.0417156
  12.5857329  19.6438909  30.9785700  12.8290689  18.8960409  31.5242267
  11.6753626  19.4763982  30.7348394  75.3744125  22.0173287  23.9523625
  74.6609402  22.1670437  23.3320594  75.9713364  22.7524757  23.8128114
   7.8861128  97.9909908   6.5906966   8.6431967  97.8206825   7.1510953
   7.1319090  97.7413582   7.1246403  47.4925327  38.0302548  17.9537821
  48.1520319  37.6038408  17.4065506  46.6638708  37.6364040  17.6809597
  60.3441286  22.3114967  54.2890453  60.1262474  23.1776667  53.9447927
  60.4441214  22.4464893  55.2313852  50.9698009  56.0240746  12.3049581
  51.0095072  55.0971794  12.0693386  50.0398397  56.2447739  12.2530460
  49.0302372  22.5163984  25.7158017  48.0796623  22.4832416  25.8231950
  49.3242931  21.6261959  25.9089494  20.7838273  14.4544363   7.9778081
  20.3197312  13.8054585   7.4489665  21.3485479  14.9116373   7.3546779
  62.1900558  10.5761421  59.5965672  62.0615816  11.4394569  59.2036104
  61.3912916  10.4212093  60.1007557 111.4477195  23.6541796  26.7935872
 111.3058819  22.7968574  27.1949720 111.7323812  23.4567356  25.9012794
  56.2933540  39.1249609  23.6920166  56.9869423  38.7612796  23.1416512
  55.4850483  38.9337063  23.2163095  56.2546301  20.1323223   0.8547609
  55.7699633  20.9504676   0.9641694  56.9802046  20.3596830   0.2733133
  24.0366006  14.0070009  52.5373363  24.4846177  13.2055593  52.8079033
  24.0925550  14.0017498  51.5817881  95.2490092 109.3524345  28.6442661
  94.7215737 108.9931148  29.3576622  94.6369208 109.8890297  28.1406331
  39.2149687  35.1524282  28.6590314  38.3382392  34.7810721  28.5606766
  39.4164395  35.0478458  29.5889258  56.6449690  42.5658226   8.1394708
  56.0433865  43.0168056   7.5470668  56.9675112  41.8210793   7.6319724
  21.7349267  33.9544463  84.5778942  21.8661833  33.6515808  85.4763794
  22.2885537  33.3805466  84.0484047  62.8783703  62.9822063  29.4084883
  63.5873079  62.8830481  28.7730336  62.7495050  62.1023846  29.7628021
  61.3255262  57.6425076  12.3094869  60.4458237  57.9566002  12.1004343
  61.6242981  58.2180119  13.0135906  51.3798761  21.6486597  63.7672567
  52.1776676  21.6217113  63.2390213  51.5902185  22.2415400  64.4887018
   8.9200484 104.8621520  39.1791654   9.1898238 104.3025314  38.4509635
   8.0220877 105.1161530  38.9661312  60.0736904  24.0723205  17.6880133
  59.5962524  24.6842170  17.1277773  60.9521484  24.4462037  17.7569640
  42.1550655  50.4809856  71.4731693  41.8613291  49.9689817  72.2266960
  41.3465357  50.7659197  71.0473490  39.0879393  42.1685982   4.7063875
  39.2705917  41.8639946   5.5952567  39.8006749  41.8084860   4.1786003
  80.7435226  25.9904099  47.7991962  80.9000015  26.6364169  48.4879827
  81.2243557  26.3258195  47.0425367  22.0010090  26.1237097  48.0326462
  21.4357829  25.5991173  48.5997057  21.4027691  26.7232776  47.5867128
  88.1140614  38.7887311  19.3012071  88.6028576  39.4620228  18.8279307
  88.6677074  38.0096364  19.2490637  36.7665148  34.2283154  19.2359245
  37.7116394  34.1083193  19.1433251  36.3848805  33.4583545  18.8143241
  30.0757027  34.4103026  53.4281397  29.2657661  34.5369434  52.9339790
  29.7950292  34.3728256  54.3424988  89.3323231  55.2201366  30.1018763
  89.7424698  55.8466244  30.6981373  88.8203526  54.6466160  30.6721377
  47.5055122   4.1717994  38.1990933  47.1961451   3.4402111  37.6649570
  46.7435122   4.4281062  38.7186050  29.9892306  54.4329500  35.1105905
  30.5680609  55.0373840  34.6460009  29.2119431  54.9536037  35.3130174
  22.5807166   7.4149603  26.8481493  22.8313613   7.2194207  27.7510190
  22.6233816   6.5704978  26.3994908  66.5734386  10.0715959  45.0262642
  66.8470621   9.2130131  44.7034645  65.7249117  10.2245092  44.6105146
  29.6463609  20.4581094  14.9711788  30.4871964  20.0035095  14.9205124
  29.2252278  20.0965714  15.7510316  63.9154243  46.4820194  39.3099737
  64.2399359  46.9630575  38.5487080  63.2679129  47.0663404  39.7043395
  38.9229012  38.7853384  31.2737799  39.5486593  39.3749857  31.6944647
  39.4098568  38.3991289  30.5458045  66.6075993  27.5750661  27.9830027
  67.1215343  28.3628964  28.1602788  67.2445488  26.8612838  28.0153131
  32.2643661   4.3477634  48.7024832  32.5561428   3.4789100  48.4264517
  32.4882412   4.9199820  47.9685354  57.0420790   5.4899400  24.8826122
  57.7498150   4.9084735  24.6046925  57.3586988   5.8802265  25.6972647
  82.1810829  73.5733361  94.7400291  82.7198755  72.7826351  94.7669446
  81.5493691  73.4089917  94.0399154  58.1480217   2.3150106  18.9899719
  58.4797144   2.1781752  19.8773777  57.9778624   1.4330332  18.6592257
  87.1675777  16.6665030  36.5584350  88.0381107  16.5667164  36.9437242
  86.7735386  17.3926973  37.0417690  78.8633823  45.3107405  53.6854792
  79.5403194  45.6486225  53.0991125  78.0593967  45.7429743  53.3973646
  60.1155376  18.4072912  42.0586586  60.8523846  17.8081381  42.1782637
  60.2408075  19.0780020  42.7299929  39.3540036 108.9378594  66.6364956
  38.9858805 109.2231837  65.8002472  38.7917649 109.3434217  67.2965240
  76.5853643  41.1642647  32.0415187  76.6655636  41.8265963  32.7278948
  77.4573612  40.7739544  31.9822502  73.5427892  96.5013832  88.9808422
  73.2944882  96.6973728  89.8842615  73.5200917  95.5459065  88.9281195
  48.0863142  48.4804869  27.8954291  47.7315521  47.7689457  27.3624301
  47.4157095  49.1626501  27.8612423  64.5717239  48.0479383   4.9260154
  64.3881226  48.1849337   3.9966318  65.2872419  47.4122190   4.9376357
  53.1325436  46.7069387  26.6747594  52.2833681  47.0996904  26.8769383
  53.6514091  47.4282789  26.3188457  48.3950710  56.3067198  21.1665249
  48.5834503  55.5209589  20.6533694  47.5750732  56.6399097  20.8020830
  45.3716755  29.2929554  93.7376690  45.7973337  28.4945226  93.4253407
  44.7362041  29.5083475  93.0550194  80.9798717  30.3491330  60.6359529
  81.7389393  30.8598566  60.9173870  80.3535843  31.0026312  60.3245974
  73.5414982  32.9712391  31.1989284  72.8996849  32.9213071  30.4905367
  73.9090157  33.8521814  31.1274934  73.9832544  36.9966531   5.8617175
  74.1425991  37.8938556   5.5686849  73.4136581  36.6227150   5.1894379
  10.8325911  22.4806547  35.3370905   9.9818265  22.5109649  34.8994684
  10.8546615  21.6215205  35.7585573  46.4073420   8.1476849  53.9395380
  47.2178555   7.7196282  54.2153454  45.7433987   7.4602222  53.9924860
  61.9406414  74.0331697  31.8176055  61.7562437  73.7833023  32.7230310
  62.1203375  74.9723864  31.8601871  77.0433855  45.5351400  27.0790744
  77.4691153  44.6967316  26.9000173  76.9955921  45.5803728  28.0340099
  55.6802225  48.4573889  56.9957256  56.3379240  47.8206015  57.2753000
  55.4359341  48.9176321  57.7986765  53.9477015  11.1914110  36.1843514
  53.1899643  10.6067181  36.1702132  53.8178682  11.7329443  36.9628882
  35.0532579  39.3062186  31.2815142  35.0058031  40.2503586  31.1312580
  35.2749753  38.9383984  30.4260707  62.7264977  29.8028755  37.4932885
  63.2841349  30.3464317  36.9366789  63.3394146  29.3203568  38.0480289
  33.7448764   7.0816576  69.2473888  33.8961053   6.6610998  70.0938463
  34.1978359   6.5213400  68.6172247  42.2488546  46.6820526  25.3291893
  42.8406954  45.9306526  25.3659487  42.6079178  47.3010826  25.9648848
  48.5716902  89.8335063  59.7869492  47.9016672  90.2729689  60.3105593
  48.2898318  88.9192795  59.7557306  13.7089382  99.1069674  57.7465439
  13.7769924  98.5464060  58.5194445  14.2551886  98.6759626  57.0892239
  31.2842594   6.5008540  93.1332773  30.3997074   6.1352105  93.1438662
  31.2778078   7.1223779  92.4053371  64.5360231  25.0535393  30.8113194
  65.3518009  24.9718690  30.3172946  64.0329981  24.2746639  30.5735111
  53.4758043  17.8215778  34.5329404  52.9812717  18.5099554  34.0881848
  53.4000444  18.0349898  35.4629660  49.5449924  36.3720202  46.1299992
  49.2516613  37.1046185  45.5882502  49.4784927  36.6965461  47.0280457
  46.0327768  19.4721675  34.9973679  46.4077330  18.6947000  35.4111099
  45.6352997  19.9594140  35.7190585  65.7287073  10.8395076  26.8889785
  64.8188925  10.5465209  26.8377280  66.2434244  10.0605357  26.6780376
  51.0508633  32.4378347  39.9205685  50.4611921  31.9933152  40.5296040
  51.8526554  32.5795174  40.4238462  35.3263903  41.5161943  59.5902205
  35.5381203  41.9634771  60.4095793  35.9693694  40.8096695  59.5299530
  66.0015297   9.7731906  56.6501427  65.3198147  10.2681828  56.1957455
  66.3298273   9.1591907  55.9932899  53.9961958  47.1965742  34.4860196
  54.5257139  46.7949820  33.7971354  53.5070658  46.4677000  34.8677564
  73.0401802   8.5770237   6.8921709  73.1446314   9.2961264   6.2691033
  73.7281370   8.7212408   7.5419009  56.4059019  31.9101238  17.1706760
  56.2967777  31.4172649  16.3574016  55.5205441  31.9831634  17.5271046
  66.7170906  12.1168137  52.5237131  66.1183739  11.9131446  53.2422447
  66.2756395  12.8102982  52.0333767  53.9159489  21.6777468  26.8106270
  54.3328333  21.1226940  26.1515713  53.1643534  22.0620847  26.3593841
  27.9242373  37.5142026  50.5066442  28.4009767  38.3062935  50.2585649
  27.9559731  36.9611716  49.7260141  63.4137535  18.6389852  19.9327064
  63.6684942  19.1478622  19.1630411  62.5270557  18.9377058  20.1346064
  37.6917362  49.5565462  43.5498333  38.2278872  49.0084457  42.9768085
  36.8392324  49.5942736  43.1161880  53.1376362   3.0587575  65.8012772
  53.7460089   2.7075955  65.1510477  53.6682844   3.1703925  66.5900612
  43.9857864   7.8182280  42.8873873  44.5303726   7.0311320  42.8991747
  43.3557034   7.6630133  42.1837330   7.4973046  96.3251995  57.8830767
   8.2722555  96.8615329  58.0505085   7.6525198  95.9431290  57.0192719
  69.6642208  50.3699398  38.0265641  69.4570541  51.2246275  38.4044766
  68.8825893  49.8412561  38.1871128  51.0918856  48.7843466  32.6989961
  50.2994394  48.9691591  33.2030869  51.7859650  48.7284946  33.3557820
  28.8159299  23.8314772  61.2455130  28.4594274  23.1996441  61.8699551
  28.2176304  23.7943888  60.4992580  30.2083765  95.6395768  61.0086393
  30.3122841  95.3022110  60.1189089  29.4163691  95.2129041  61.3356018
  90.9458554  68.6453635  67.8749496  91.5835392  67.9460818  67.7314430
  90.1302159  68.1876404  68.0785566  28.5019814 101.8356221   0.9237880
  27.9499852 102.2324162   0.2499258  29.0673529 101.2300717   0.4443141
  51.0878277  58.8327551  28.6589384  51.5087271  59.6709013  28.8502192
  50.1503658  59.0156841  28.7216711  68.1147051  14.5934677  23.9253926
  67.4346828  13.9506161  24.1267443  67.7152538  15.1681066  23.2723546
  69.0566921  18.5843134  12.8911710  69.5819998  18.6460352  12.0933747
  68.8518047  17.6527619  12.9715586  62.1578026  20.4047728  56.4835501
  62.8286839  20.0376630  57.0592022  61.6753817  21.0176849  57.0383835
  96.0276699   9.3640137  47.3168516  96.3860416   8.4933364  47.1444511
  95.6511116   9.6379304  46.4805508  69.3361235  16.3734925  18.3798862
  70.2667046  16.1519170  18.4138906  69.1727829  16.5809715  17.4598300
  44.0610123  46.6584301  50.9833050  44.1218805  46.9345522  51.8977928
  44.1016388  47.4738789  50.4836845  15.0329577 108.9044964  52.5254107
  15.4696881 108.8001609  53.3707571  14.2298638 109.3841838  52.7283096
  52.9596758  29.1788983  45.9015226  52.2617769  29.7306633  45.5483580
  53.1213999  29.5287609  46.7776918 101.4100243 108.2730080  10.4487538
 101.9265176 107.4710610  10.5284250 100.6509472 108.1260675  11.0130608
  74.9137020  41.0906363  17.5253415  74.3801594  40.4554129  17.0477891
  75.7095766  41.1775017  17.0006824  65.1712227  18.3808172  40.5243397
  65.7919407  17.7260768  40.8441114  64.3242788  17.9350412  40.5386782
  70.7275820   9.5728046  70.9213781  71.1549711   8.7653625  70.6357145
  69.8464870   9.5214438  70.5508757  72.3500490  13.4703410  49.7539902
  73.0927753  13.8945019  50.1837301  72.1438408  12.7226222  50.3149033
  40.8027840   8.1222993  10.9281898  40.3772306   8.6491853  11.6045976
  40.1427555   7.4759859  10.6774473  67.8995275  38.2628894  33.4355950
  67.4165773  37.5100422  33.7764907  68.6346626  37.8792977  32.9574013
  94.3703556  49.2351580  41.4595032  94.3365192  48.4919882  42.0618153
  94.9512291  49.8641205  41.8875599  58.5123014  19.7576034  16.9079435
  58.3924770  20.3249073  16.1463404  59.1202402  20.2372479  17.4705994
  48.4291601  74.4806385  20.1858068  49.2854643  74.7131205  19.8267376
  48.5475159  74.5240784  21.1346674  89.4665813   1.4399606  44.4298363
  89.0057278   0.8690889  43.8150597  88.8842297   2.1913756  44.5415449
  15.5500864  76.3347368   0.9715480  16.2812018  76.6821079   0.4606265
  15.6992315  75.3894262   0.9909743   6.2898228  75.2141041  93.3624369
   5.5027268  75.5160446  92.9090668   6.2057850  74.2607457  93.3790809
  68.8953829  61.4327908  13.8659596  69.7272253  61.7806864  14.1872823
  69.1352797  60.6339741  13.3963096  70.2963781  21.3519001  33.0340385
  71.1078501  20.8450270  33.0053663  69.6018505  20.6951880  32.9831553
  84.5785809  41.1224794  21.4537907  84.5565987  40.1828384  21.2726402
  85.5037212  41.3581753  21.3845444   5.1700661  53.0767881  67.4825316
   5.8775494  53.3625992  66.9045907   4.6001408  52.5508486  66.9214541
  26.8925463 106.0637551  13.0483210  27.7843605 106.0344117  13.3947921
  26.5319859 105.1983415  13.2414126  18.4115875  39.0933728   9.6185362
  19.2288733  38.6134267   9.4846493  18.6891866  39.9660635   9.8970783
 104.7551453  91.9785995  93.0926335 104.1695177  92.6371402  92.7190031
 104.6617615  92.0845575  94.0393568  44.2698765  16.4036858  66.3561249
  43.9393330  16.1951220  65.4823542  44.1756344  17.3535633  66.4274263
  32.2385573  12.5778997  39.2645741  31.6544652  12.0636678  38.7072277
  32.3900199  12.0226896  40.0294495  66.8498468   7.4965423  43.6841106
  66.1890602   7.1672463  44.2933369  67.6603794   7.0643431  43.9533186
  74.4952011  81.3705063  34.8369694  74.5877314  81.0802174  35.7443833
  75.0707388  80.7893658  34.3397141  69.7365141  37.0287013  47.6235247
  70.4429340  37.4585724  47.1414328  68.9779329  37.5982285  47.4953508
  79.5419550  59.7857189  43.8737822  79.9218082  60.6598330  43.9624834
  79.4846153  59.6442509  42.9288292 106.8372631  49.2743254  60.5660868
 107.0502090  48.8503313  61.3974190 105.8938408  49.4297123  60.6112242
  70.3122759  38.6732864  54.0153408  70.7438231  39.4859815  53.7516546
  69.7514296  38.9268517  54.7484016  23.1527138  34.0708566  79.7146559
  22.7042866  34.3572378  80.5103493  22.6225281  33.3431983  79.3896246
  72.3216391  19.2899132  58.5419512  71.8615580  18.4626162  58.4000492
  71.9544077  19.8835921  57.8870296  23.3676421  19.0998597  86.4701670
  23.9164530  19.8477693  86.2342250  23.1100975  18.7176461  85.6312281
  51.9429064  36.8040895  55.1253414  52.1306849  36.1313748  54.4707966
  51.0051203  36.7168999  55.2961731  14.6340013  26.3401413  26.9562960
  14.4513297  25.4610729  27.2881126  15.3317356  26.6697335  27.5226617
 112.8386497  59.3607569  34.1005206 113.6666203  59.0265131  33.7555814
 112.2256660  58.6325693  33.9993954  57.9892635  21.9823694  45.9899616
  58.1756210  22.4713016  45.1884365  58.8078070  22.0133448  46.4851999
  56.5579605  40.8115149  42.8634357  56.5936041  40.9418344  41.9158173
  55.7930756  40.2523947  42.9997063  82.0817471  60.9064007   9.0061963
  81.4311504  61.4507055   8.5627013  82.8584290  60.9597826   8.4492868
  60.2196360  47.3166418  36.1815476  59.8336792  47.9480314  36.7886829
  60.8702993  47.8209305  35.6931257  24.0479732   8.6599058  48.7758017
  24.1740727   9.0342486  47.9039097  23.1411242   8.8707095  48.9981031
  46.6549921  13.2718194  11.5086269  47.0446062  13.1190717  10.6477547
  46.7297173  14.2168617  11.6410744  12.3065350 108.6800427  79.6257192
  12.7190850 109.3998331  79.1482931  11.3673852 108.8470358  79.5461529
  84.1217518  25.5887270  13.0069363  84.0822315  25.4182744  13.9480078
  83.2807922  25.9974170  12.8020298  64.3233633  29.5548868  15.1002598
  65.1892090  29.7790766  14.7592568  64.4926071  28.8827324  15.7604074
  28.6512839 108.6766388  15.4844034  28.2487379 107.8146233  15.3789651
  28.0387913 109.2800754  15.0637543  86.2637997  27.4133563   3.3307597
  86.9197369  27.9025507   2.8340924  86.5288830  27.5171256   4.2446494
  58.6377048  37.8159022  51.4392424  58.7743759  36.8725634  51.3516951
  58.8257599  38.1669569  50.5688238  69.2753970  81.6547245  95.4417165
  69.0307939  81.0884065  94.7098103  69.8653471  82.3026270  95.0564745
  87.5477600  31.0310340  14.7397161  86.7655659  31.5725279  14.6339393
  87.6200867  30.5509782  13.9147627  82.7031994  36.2678814   9.4351840
  82.1577263  36.1267138  10.2089846  83.4992218  36.6769528   9.7746640
  86.7432499   0.4326348  24.2928743  86.8072796  -0.2985620  24.9072719
  85.8546734   0.7681534  24.4116330  76.6881180  36.2976742  39.4792795
  76.5391779  35.7666922  38.6969066  77.0814800  35.6926060  40.1080799
  41.1336040  60.3563309   7.6816404  41.9266033  59.9372625   8.0159491
  41.2305641  60.3275537   6.7297983  61.8967056  39.7071028  32.2691464
  60.9703779  39.5387292  32.0965052  62.2110033  38.9072847  32.6907325
  55.1555014  57.8432369  30.4362679  54.4115734  57.8635359  31.0382557
  55.3592777  56.9130898  30.3386211  72.2576237  12.4122083  54.2990732
  71.4861012  12.7601051  54.7462273  72.9967022  12.7119112  54.8283911
  52.3934507  61.8999004  33.6394906  53.2619953  61.7241716  33.2775784
  52.5655365  62.3305607  34.4768381  73.1579065  20.0046802  43.5214710
  72.3131180  20.2357793  43.1352615  73.7108803  20.7698345  43.3633757
  50.6798410   2.1363470  41.8230581  51.4946508   2.6254719  41.9374228
  50.3815603   2.3700380  40.9440565  72.3045206  15.6918204  40.1819944
  71.4185715  15.6598067  40.5429649  72.5419092  16.6186416  40.2117014
  41.6282654  63.6509132   4.8644793  41.0975790  62.9328823   4.5194635
  41.1305714  64.4403458   4.6515718  86.7803383  37.2226977  35.8618188
  87.5299454  37.7122855  35.5232644  87.0700741  36.3104033  35.8612347
  81.4576817  40.7464743  21.8053126  80.6076145  40.3076601  21.7729950
  81.6345501  40.9931660  20.8975148  15.3887545   1.9018741  87.9153359
  14.6025406   1.4273162  88.1853264  15.2796637   2.0295806  86.9729858
  59.5137548  37.5390887  37.8076863  59.7005463  38.4319305  37.5175595
  59.4090033  37.0408392  36.9971275  37.1379649  13.9758201  78.4069735
  36.3833367  13.4221597  78.6075431  36.8191944  14.8696752  78.5320169
  90.4819870  46.0233307  24.3066907  91.4034557  46.1617517  24.0876865
  90.0337315  46.7915964  23.9530468  43.0314064  59.1007996  36.9152880
  42.3536491  59.2766380  37.5679469  43.8418961  59.4049501  37.3237300
  34.6980238  44.6024179  37.9074574  34.5034528  45.5278111  38.0558634
  35.5887771  44.4888020  38.2389450  80.1210308  72.2358942  38.0894184
  80.2986336  72.4334526  39.0090156  80.0896645  71.2799597  38.0515337
  60.3626776  35.5707073  35.6774306  60.0561047  35.5389977  34.7712088
  61.2560272  35.9089875  35.6163621  78.6916399  47.3520947  48.3270502
  78.0250883  47.4633265  47.6491356  78.3402061  46.6695690  48.8987923
  66.7136526  20.9860992  51.8107080  67.3541546  20.6825519  52.4540186
  66.5669107  21.9052219  52.0341206  70.7367468  24.3187571  54.2057037
  70.5630589  24.4627643  55.1359320  71.4740801  24.8960781  54.0075397
  81.2628174  43.7324095  13.2896543  81.9141197  44.3923235  13.0518591
  81.7227364  42.8979826  13.1977952  77.4376249  39.0497780  44.5276165
  77.3013926  39.4160748  45.4014015  78.3888245  39.0273380  44.4229507
  48.1506968  31.6628599  34.8112369  48.8904619  31.3372779  34.2984247
  47.4562883  31.8031001  34.1675305  50.0065041  49.5223236   2.6880926
  49.4004154  49.9338770   3.3041358  49.6483707  48.6455631   2.5493208
  64.8099661   1.1727595  44.5520353  65.5720377   0.9165198  44.0325975
  64.4059086   1.8812928  44.0510845  22.1390282  26.2990708  74.0598851
  22.0244156  26.0785813  73.1355053  21.5181862  25.7339330  74.5196801
  37.8267360  36.0126996   9.3089628  38.2508016  36.3293600   8.5113883
  38.0326676  35.0782752   9.3349099  51.6632795  25.5036378  15.1300955
  52.0884180  25.9753537  14.4138753  52.1758366  24.7009134  15.2257526
  84.0362930  16.6217542  47.0089769  83.1722546  16.6999316  47.4134016
  84.6340179  17.0190704  47.6422977  65.8701658  17.7198148  35.5156398
  66.6463518  17.2436070  35.8105922  65.3736210  17.0776975  35.0083351
  52.1829081  40.9767962  34.2496562  52.4758768  40.2146482  34.7491860
  51.4210606  40.6647158  33.7613630  24.7568737 102.2957843  41.2930870
  25.2595555 102.3518079  40.4804373  24.0415036 102.9208624  41.1757851
  77.4561787  25.2477598  45.5856705  76.6445780  25.5441165  45.9976244
  77.9341984  26.0538793  45.3909874  65.7911015  46.4677906  17.9484665
  65.1305056  47.1604490  17.9402792  65.4839373  45.8361721  17.2981310
  53.8772297  32.3254442  44.4565725  53.0079842  32.1387243  44.8112345
  54.3976450  31.5535617  44.6792746  38.6622310  20.8031821  10.7133377
  37.7552652  20.7524228  11.0151136  38.7827182  20.0153375  10.1832330
  18.4409177  26.2652540  42.9384565  18.2868493  27.0775509  43.4208155
  17.8887928  25.6178880  43.3769894  92.8804207  57.2561121  54.1055822
  92.6808739  57.8264618  53.3632135  92.3645020  56.4658165  53.9459133
  80.5130863  54.0059137  21.9731236  80.2791309  54.4230938  22.8022552
  81.0541153  53.2577705  22.2257066  17.9198525  76.2917966  66.2891084
  18.8020012  76.4133281  66.6402155  17.5647900  77.1781296  66.2214309
  40.1501846  61.5008593  36.0683227  39.4793797  60.8180285  36.0671234
  40.3852797  61.6040373  36.9904494  39.4736052  84.0370369  23.8632560
  38.5691667  83.8900471  24.1400528  39.9738741  83.3511162  24.3053794
   6.7809902 106.4701181  16.0649598   6.0874068 107.0746850  15.8009970
   7.5836026 106.8608319  15.7194388  61.9300127  11.1885166  66.7730856
  61.4889050  10.4746473  66.3125992  62.7831650  10.8273029  67.0136786
  48.4809017  43.0336571  18.8213122  48.1242275  42.8558683  19.6916044
  47.7168512  43.0334949  18.2447195  27.5954890  53.0796671  65.6796169
  27.4191308  53.4483814  64.8140621  27.0554876  53.5987139  66.2756205
  84.4103050  54.4512558  21.3319993  83.8502121  53.6968374  21.5147018
  83.8184929  55.1038837  20.9577489  74.0227139  90.7295794  90.1357847
  74.8228395  90.2049584  90.1073685  73.3622372  90.1395816  90.4989707
  72.0323420  43.3977652  27.9417181  71.6355228  42.5267553  27.9522085
  72.6600838  43.3662939  27.2197890  81.8955421  16.1959398  54.3209743
  82.7433968  16.6321135  54.2365170  81.3025379  16.8822551  54.6268272
  67.4885893  29.5408106  33.1895018  68.3686066  29.8341274  33.4256482
  67.5756598  29.2208934  32.2915578  64.7958231  38.5675478  30.6851172
  65.0454140  37.6683474  30.4721022  64.5359850  38.9490366  29.8465586
  58.3672714  48.1626129  33.0273581  58.5255194  47.5069666  32.3481536
  59.1109324  48.0742121  33.6234999  62.4007320  21.3769341  47.0042801
  63.2337427  21.6457844  47.3916388  62.4483538  21.6820288  46.0982561
  61.4659119   8.8213706  37.1080518  60.7610273   8.1834310  36.9966865
  61.6086006   8.8579744  38.0538487  65.4202747  39.6552753  46.5138531
  66.0362673  38.9541054  46.3013840  64.6152258  39.4137931  46.0557938
  55.4558277  42.3869991  34.1193461  56.3683176  42.4462080  34.4023490
  55.4040718  41.5541697  33.6503530  31.6220951  14.4200993  46.5489388
  32.1201134  14.5364511  47.3580599  30.8106184  13.9948273  46.8262196
  48.6544752  27.4659729  55.6572104  49.2798996  26.8425226  56.0265255
  47.8099108  27.0188046  55.7118082  69.8835278  59.0533495  33.8407707
  70.5686092  59.7115946  33.7241149  69.6739292  59.0886021  34.7740769
  93.4030247  15.5343020  31.9494486  93.4885788  16.2141109  32.6178598
  93.7832355  14.7534800  32.3519278  59.0869093   3.7535432  24.3637156
  59.9171162   3.9157373  23.9157462  59.3400669   3.4747839  25.2437377
  63.6571169  62.3786068  13.2798493  63.7196636  62.4572039  14.2317653
  64.4218445  62.8503036  12.9498124  42.7505779  42.1598673  35.0549626
  41.8114281  42.2841692  35.1919889  43.0939102  41.9516468  35.9238696
  85.8128452  39.3163824  46.6566992  85.3013992  39.4110632  45.8531475
  85.6035995  40.0984955  47.1673346  42.1987391  13.8960540  14.7721732
  42.0527411  12.9528332  14.6997201  42.4807453  14.1626751  13.8971782
  80.2133751  42.5985003  58.2450199  80.4651070  43.2457447  58.9037561
  80.5411625  41.7673159  58.5884142  75.5269241  58.4211159  36.3763833
  76.4139318  58.7359238  36.5505886  75.2722740  57.9661560  37.1791244
  59.8193502  24.1788316  39.6019840  59.1135168  23.7134695  39.1531301
  59.6202898  25.1050949  39.4654512  63.6021042  13.0667865  25.5579066
  63.7787056  13.8155985  26.1274028  62.7173662  13.2211161  25.2267694
  59.7621441  87.7601147  20.2000260  59.8541594  88.6857605  19.9743366
  59.1532755  87.7530384  20.9385777  64.3587208  38.8427377  37.0665765
  64.6061134  39.4378805  37.7742720  65.0829315  38.2190561  37.0139432
  56.0682678   7.5305974  44.3546295  55.3177977   8.0233520  44.0226364
  56.2175846   6.8503308  43.6979914  73.5936737  33.2114100  11.6926968
  74.0958261  32.8677392  10.9538019  74.2092848  33.2022142  12.4256158
  55.8048964  21.4936113  24.9021339  56.3385677  22.2084117  24.5550227
  56.4217520  20.9507084  25.3930259 100.8658028  57.8067160  28.2787395
 100.1461411  57.1828127  28.3739471 100.5116653  58.6328840  28.6077714
  57.8431225  31.4022183  47.4877930  57.3072195  32.1508956  47.7495480
  57.4340582  30.6522322  47.9195499  43.3993626  49.0384626  23.3310699
  42.8830099  48.6854601  24.0556383  42.8772020  49.7683573  22.9981494
  55.3440523  37.5960898   1.2913279  55.6556845  36.7368174   1.0071293
  55.5924654  37.6477242   2.2142890  86.0625602 100.6437337  13.8379288
  86.7742515 100.1698350  13.4076416  85.3296352 100.5831140  13.2252479
  52.5889778  50.2705669  16.3576376  51.6438818  50.2057505  16.2204278
  52.7481270  51.2049961  16.4908659  90.9929752  45.7077503  12.3369551
  90.6347370  45.7156515  13.2245529  90.5734062  44.9574327  11.9159925
  71.0817194  36.2694883  25.9172463  70.7726431  36.1229229  26.8112397
  70.3092670  36.5795469  25.4445791  23.0267212  79.9531574  82.2189969
  22.8462193  79.1957349  81.6622525  23.2892201  80.6420559  81.6084689
  67.0091915  55.8739567  29.8697448  67.1463537  56.4744282  30.6024456
  67.2017002  55.0083637  30.2301908  81.6940880  29.7108030  32.0385909
  80.8651543  29.9536395  32.4510598  82.3646450  30.0295186  32.6427460
  73.4803677  72.2464466  32.0939398  74.3236303  72.2009802  32.5445747
  73.1640291  73.1332064  32.2666144  94.3305302  18.1140733  24.1755509
  93.9436150  17.8617322  25.0139093  93.8224030  17.6326430  23.5226655
  51.7516279  56.3842297  25.2127743  51.4662647  55.5168152  24.9257278
  52.5315762  56.2168694  25.7418299  99.2407799  45.4048538  37.4430203
  99.3172741  44.7697592  36.7309570  98.3860683  45.8141375  37.3081231
  84.3538952  15.7371986  19.2839229  84.7325802  16.0398483  20.1092935
  84.7477818  16.3014328  18.6185455  52.5568914  28.3901501   5.5874282
  52.6400995  27.5618672   5.1149309  53.3082914  28.4042525   6.1802447
  30.6104064  45.4556322  46.2464190  30.2567720  46.2915707  46.5503645
  30.4473996  45.4553652  45.3032017  38.1258106  55.6042147  31.2309265
  38.1436729  54.6496153  31.2991571  37.3737407  55.7901239  30.6687379
  83.7685966  85.8804226  41.8928528  84.1579914  86.0930157  42.7410316
  82.9353905  86.3515472  41.8869925  83.3101177  19.4887221  20.3717947
  82.8450966  20.0406933  19.7430563  82.7339172  18.7354243  20.5012774
  92.5303555  54.0433025  66.8278694  93.4257126  53.7683201  66.6304970
  92.3488045  53.6675549  67.6893139  79.0137911  52.3030090  38.6137319
  78.5142517  52.0559359  39.3919635  78.6086988  53.1182623  38.3179402
  73.6468601  48.1117487  33.1667018  74.5326567  48.0863190  33.5285687
  73.5014248  47.2287083  32.8271079  54.8520947  66.2816143  29.8909473
  53.9753056  66.4173174  29.5317101  54.6996927  65.9446907  30.7738328
  73.2608414  63.6376047  67.3055506  73.2137108  62.6849842  67.3862839
  72.7531147  63.8367224  66.5189171  72.1299076  68.8781738  44.4548607
  72.0195103  68.4877777  45.3218269  73.0773735  68.9654827  44.3503809
  68.0995512  50.6000280  47.5856352  67.9981327  50.1957035  46.7239714
  68.3713913  49.8816252  48.1568050  58.2004547  38.5466123  21.1217308
  58.7124920  39.1262531  21.6857004  58.4861708  37.6651478  21.3617706
  83.1862926  57.9036379  46.5802813  83.0338955  56.9593287  46.6161537
  83.9273739  58.0041265  45.9828424 101.6941643  68.8410234   6.4700007
 100.8077526  69.1866159   6.5751696 101.8016338  68.7411213   5.5241126
  81.7235279  49.3065262  54.2325258  80.8192921  48.9927244  54.2221355
  82.2537708  48.5101652  54.2027187  81.4566612  56.0802937  28.1080794
  81.6624069  55.1491690  28.0249548  80.7624722  56.1143732  28.7662339
  76.0596418  72.5360107  57.1133232  75.8306456  71.6152334  57.2396898
  75.6210613  72.9925966  57.8312397  88.5511208  15.2427673  10.6547523
  87.9015350  14.6912313  11.0907304  88.0989265  15.5795825   9.8812461
  57.2070837  83.7757206  19.0050220  57.9225492  84.3787670  18.8033247
  57.6189613  83.0768204  19.5130777  69.6338320  76.3393021  71.6595507
  69.7642183  75.4004955  71.5258789  69.0282631  76.3941383  72.3988152
  65.2110434  45.4143286  44.2776585  65.3695250  46.2856054  43.9143562
  65.9574842  44.8925591  43.9830160  35.1337337  50.3293228  39.9611950
  35.2033162  50.1070166  40.8896208  34.9388337  49.4974375  39.5296741
  49.9506664  56.9652414   3.5245007  50.7096148  56.5056419   3.1653345
  49.5141697  57.3408079   2.7598760  76.3635111  30.2386403  24.8652720
  76.8203783  29.8534560  24.1175175  76.8451071  31.0447717  25.0508666
  70.0473166  90.3551579  37.1809530  69.9247456  90.9858799  36.4714456
  70.7618713  89.7932434  36.8811226  91.4924145  40.4870415  45.1307154
  90.5999470  40.4429150  45.4738951  91.9823170  40.9670448  45.7984161
 106.3160324  41.6969156  40.5457497 105.6607533  42.3450565  40.2873659
 105.8050919  40.9309196  40.8073425  91.5448093  48.6125565  40.0986242
  92.3578930  48.8692999  40.5336189  91.2889957  49.3846750  39.5940256
  95.3637981  37.7660060  54.1671371  94.4588184  38.0165792  53.9815044
  95.4524326  37.8728247  55.1142216  82.8129292  61.4442873  19.6382546
  82.1777153  62.1592331  19.6780920  83.6437511  61.8732071  19.4333231
  91.2923908  55.1040983  53.4149981  91.1412907  54.4013596  54.0471029
  91.3899899  54.6543884  52.5756693  28.0062056  18.9709246  12.9908800
  28.3324051  18.8668323  13.8847423  27.6606178  19.8631692  12.9644167
  72.5151730  74.0341473  12.5969028  71.6185856  73.7010622  12.5592613
  72.4457073  74.8541880  13.0857158  81.8854237  50.1943684  51.4722872
  81.9584656  49.8921967  52.3775959  81.4848709  49.4603920  51.0063791
  78.9199066  67.5218678   5.3651333  78.7384558  67.6454163   4.4334447
  79.8699808  67.6126957   5.4382181  81.7700768  65.3600883   0.3844050
  82.1742821  64.7236967  -0.2053871  81.6368103  66.1378431  -0.1574136
  62.9874420  75.2923822  27.4991083  62.5861597  75.5013466  26.6555810
  63.9261007  75.2556324  27.3152590  84.0229797  62.3614502  13.2612491
  84.5227814  62.0727348  14.0248406  84.4647789  61.9523478  12.5171506
  83.1317234  72.8256416  21.2863731  82.8247643  73.5799646  21.7893696
  83.8002968  73.1833315  20.7021713  35.6222129  88.8625240  70.9336472
  36.0688019  88.0443382  71.1512852  36.2703490  89.3652725  70.4402971
  71.5142393  46.8193960  31.1188173  72.2595978  47.0771694  30.5763960
  71.2437963  47.6278830  31.5540695  61.5885305  56.8635750  32.7168226
  60.8551359  56.3323450  33.0269241  62.2891235  56.2322712  32.5529528
 114.5490360  57.9325247  68.9703941 115.4941368  58.0182981  69.0955496
 114.4589615  57.4578857  68.1440544  82.6880550  67.5066996  58.8241673
  83.3704758  67.1208382  59.3733835  82.8071117  67.0939159  57.9687881
  85.1735020  71.6540670  17.8758144  85.2287960  72.4794674  18.3573627
  85.9666061  71.1787510  18.1233859  70.4224205  63.1776571  29.6151114
  71.1249781  63.4281778  29.0152073  70.5610991  63.7248087  30.3881717
  92.9732001 101.7322630  94.4278877  93.3753311 101.2386841  93.7131145
  92.8949320 101.0993237  95.1416731  74.8687410  59.8344326  25.8936024
  74.3591642  59.5340252  25.1410580  75.2361250  59.0341854  26.2689257
  65.2229214  82.3555088  47.5369310  66.0150671  81.9939995  47.1393919
  65.4778242  82.5584984  48.4369612  56.4953089  91.2835693  18.1349611
  56.4192724  91.9995785  18.7656569  56.9236708  91.6780376  17.3752689
   1.6541157  90.2630138  84.3671513   1.5133343  89.9689770  83.4671783
   1.4126931  91.1892128  84.3570518  87.8856564  56.0365868  41.0608387
  87.3245525  56.6334248  41.5559912  87.4004078  55.2117062  41.0422421
  54.9771881  46.4312887   7.7039707  54.2160749  46.7802382   7.2401029
  55.7152796  46.6093349   7.1210873  95.4976940  39.4664025  34.4392753
  94.7217846  39.2823339  33.9098191  95.4594231  38.8270807  35.1506352
  89.6881771  37.6762891  25.6805992  89.1379261  37.2508574  25.0229812
  90.4121685  37.0655203  25.8185601 105.4799759  69.4049889  94.2409149
 106.0485184  70.1231188  94.5189108 106.0411274  68.8518853  93.6973902
  58.2764053  40.0125790  25.3769255  57.3948431  39.7211313  25.1442552
  58.1685114  40.4522800  26.2202835 104.9159813  66.3827658  56.6806316
 104.5630646  67.2259521  56.9647455 105.6807041  66.2427759  57.2390556
  96.0037422  72.3633242  28.1663680  96.4736271  71.6934109  28.6630106
  95.1788235  72.4769020  28.6384273  79.6760368  65.1380682  53.7383699
  79.3215847  64.4691706  53.1525660  78.9824772  65.2851200  54.3814754
  92.1010876  33.4235644  32.9784846  91.6253757  33.8991308  33.6594892
  92.7657413  34.0416646  32.6744843 104.9703598  37.0219755  16.9891548
 105.4270554  36.8324065  16.1695647 104.8456669  37.9709721  16.9798958
  95.1356506  67.0379257  24.3064022  94.4839478  67.5813532  24.7493553
  95.1273060  67.3449945  23.3998299  82.5206566  75.1812696  72.7800846
  82.3263645  74.2816925  72.5169277  83.0947399  75.5139589  72.0901775
  73.5045004  50.6786442  32.9935646  73.3294392  49.7499466  33.1455636
  73.4069872  50.7890940  32.0477700   0.6788979  38.1588364  20.7057452
   1.3074265  38.7197757  21.1602092   0.3019581  37.6132345  21.3960123
 100.9503841  50.8873940   1.8391012 101.7387676  50.3588104   1.9626960
 100.7839680  51.2739277   2.6988268  53.0518627  58.6051893  10.1823187
  53.6065149  59.3741035  10.0505579  52.2841024  58.7668896   9.6340239
 104.5710087  53.8105822  31.5299964 104.2928123  53.1711054  32.1856713
 103.8590145  53.8229990  30.8903599  41.4512812 103.0251687   0.6418646
  42.3394667 102.6728838   0.5848965  41.4188181 103.4559994   1.4960095
  71.9274473  47.7660942  36.3956761  71.3943100  48.3374214  35.8428812
  72.3338509  48.3572292  37.0294142  53.8245821  74.5928955  16.6141403
  53.1617737  75.2710056  16.7448688  54.2725515  74.8481464  15.8076644
  86.1323833  60.0297546  56.0163784  86.7841053  60.6118345  56.4071178
  85.2922344  60.3703356  56.3235760  77.2437382 101.1414433  23.9338660
  77.8029442 101.9088554  23.8130546  76.7199230 101.3463211  24.7083807
 104.6453190  72.5175667  36.1806297 103.7755966  72.9007912  36.2943816
 105.0195789  72.5072050  37.0615721  56.2484312  64.8194695  24.4140196
  56.5617895  65.1304674  25.2633238  57.0435810  64.6981335  23.8951325
  65.5043507  39.7234082  33.3760548  65.2375841  39.7154665  32.4568129
  66.4151764  39.4293404  33.3636737  71.7294216  70.6556892  34.3682003
  72.4301577  70.3673744  34.9530721  72.1745253  71.1763525  33.6996007
  73.6980009  71.2045336  50.3244305  73.3215284  70.9108591  49.4948196
  72.9715490  71.6301727  50.7797623  71.8985987  88.3046913  36.3579607
  71.5476370  87.7137947  35.6917048  72.7934933  88.4854507  36.0703492
  70.9323645  67.7212811  59.4158220  70.1110029  68.2127285  59.4069767
  71.3315964  67.9371834  60.2585745  88.0128765  62.9299259   2.4553680
  88.2181549  63.1555128   1.5480617  88.7517548  62.3929930   2.7417198
  63.8997364  95.4340935  47.4165487  64.2649364  96.2773418  47.6844931
  64.6636438  94.8708534  47.2923374  65.5813313  73.3027363  32.4888372
  65.4855013  72.3660803  32.6612616  65.5263329  73.3777571  31.5361667
  91.4802265  30.6437540  21.9441080  92.2843647  30.5593228  21.4318037
  90.9392452  31.2532425  21.4420152 102.3823833  42.9901266  34.9549913
 102.7400303  42.9462767  35.8417797 102.5703049  42.1305227  34.5781636
 106.5679085  79.2537517  87.3052150 107.1111643  80.0184006  87.1143806
 106.0614073  79.1140909  86.5050995  58.9217281  75.2035856  62.3260117
  59.8579836  75.1530933  62.1333599  58.6692095  74.3020201  62.5251198
  93.1610203  57.8338861  44.7651196  92.6844883  57.0824003  45.1178551
  92.5776863  58.1957531  44.0980387  68.1568575  55.2115870  53.4090090
  68.1334400  56.1419392  53.1851149  68.0585814  54.7608566  52.5703096
   4.3645166   0.5629969  57.6486015   3.6270689   0.1613475  58.1080294
   5.1137518   0.0091601  57.8680325  49.9219704  54.0049839  15.1866722
  50.2716160  54.6264553  14.5481169  49.1113615  53.6851835  14.7906041
  73.3565521  48.6432600   7.6954460  72.7213430  47.9914284   7.3990422
  72.8662443  49.4651747   7.7121824  24.2504189  74.1727621  89.7083735
  23.7187836  73.4234995  89.9770731  23.6318658  74.9019427  89.6646064
  42.8403902  52.2235584  15.2282929  42.3362255  51.4529133  15.4893553
  42.2195196  52.7603912  14.7357845  57.2349977  87.3333359  18.1124318
  57.6354122  87.6877117  17.3185062  57.9606771  87.2533226  18.7314785
  87.4924946  42.9249954  37.3414803  86.6302109  42.5271845  37.4617147
  87.5172901  43.1678009  36.4159203 106.9594097  87.5226498  39.9065137
 107.7250481  87.8104496  40.4037046 107.2157955  86.6761208  39.5405960
  87.7572441  80.3117657  34.8451257  87.8900528  80.4376698  33.9055824
  87.1926975  81.0391140  35.1068068  64.0078974  49.8946238   6.7362207
  63.3672285  49.4472647   7.2890717  64.3249512  49.2162275   6.1399961
  77.2242689  39.3438697  52.5920105  77.1329641  38.5762215  53.1564665
  77.3489952  38.9824414  51.7144871  66.5608835  62.2078228  17.5469875
  66.3334370  61.4195442  18.0400574  66.4051247  62.9267216  18.1594861
  65.8287001  67.8928757  46.3537550  66.3076401  67.6376772  47.1422482
  65.0971460  67.2772694  46.3081074   5.8898316  40.9266376  50.0629234
   5.1818905  41.4629745  49.7059917   5.8878670  41.1204243  51.0002995
 106.0112381  60.5374765  14.0609503 106.3691425  60.2187967  14.8895526
 106.2361336  59.8577023  13.4256864  98.1950283  76.6284370  32.9242039
  98.2685566  77.5307417  33.2351279  99.0931702  76.3742256  32.7121973
  94.1642761  72.4284029  44.1434479  94.3436241  73.0644703  43.4510040
  94.5771790  72.8001070  44.9229240  88.2506275  65.5848646  57.6425076
  88.3212280  65.2356815  58.5309410  87.3729038  65.9647512  57.6035166
  73.3398342  64.1762352  10.4561496  72.9075098  64.8846769  10.9330583
  72.7157784  63.4510851  10.4869127  83.5675144  63.8354683  56.2925243
  83.7338638  62.9521275  56.6215801  82.7079773  63.7777138  55.8752823
  82.0327950  53.5957956  28.5156631  82.9652977  53.7668657  28.3837366
  82.0075607  52.8985977  29.1710377 107.1508026  59.3356466  58.2404661
 106.4796066  59.7522593  57.6999521 107.9666138  59.7645426  57.9821444
  87.4276447  61.2306166  25.4804325  86.5822506  61.2283278  25.9293604
  87.4654198  60.3833961  25.0365615  93.2451534  62.2999477  18.2833004
  93.9837646  62.8622103  18.5168731  92.5831032  62.4852085  18.9493334
  75.8556080  66.5975332  30.2023292  76.0546207  65.9880447  30.9130669
  75.1705790  67.1640253  30.5573678  70.6089735  44.5484352  63.3373928
  70.5641031  44.3933916  62.3938990  70.3276396  43.7218380  63.7296009
  68.1987000  40.1453257   7.4186820  67.6884222  40.4000044   6.6499233
  68.9069414  39.6053433   7.0679092  88.2457699   0.3328467  61.5854216
  88.0590833   0.4864550  62.5115871  89.1961826   0.4219771  61.5146732
  94.2296314  53.0527496  63.0389595  93.9102745  53.6735058  62.3840523
  93.5920334  52.3389912  63.0234098  67.0835114  53.6284781  17.4111545
  67.9218102  53.1729174  17.3340154  66.6791821  53.5337305  16.5487325
  97.7001095  70.7744312   8.4980273  97.0086288  71.3309002   8.8564128
  97.2949505  70.3437757   7.7452892  76.9623613  42.2893810   6.4098698
  76.2244320  42.5111294   5.8419633  77.5905895  41.8596411   5.8294517
 110.9136105  63.0208015  52.4349737 110.5429363  63.1395292  53.3094645
 111.2637615  63.8813019  52.2044039  63.7286949  42.3551893  23.8997698
  64.0866661  42.3124123  23.0130577  64.3706322  41.8941116  24.4397235
  50.4941034  66.1487818   8.4487003  51.1729050  66.4517212   7.8456348
  50.5077410  66.7849541   9.1637743  97.7969074   4.0492424  53.4279013
  97.3953533   3.8443232  52.5835085  98.0303288   3.1967360  53.7952948
  70.9627247  64.6078014  40.2628565  70.2453899  64.1796207  40.7301140
  70.5440378  65.3246307  39.7863221  70.1788902  45.0759888  51.4952850
  69.4882727  44.6766996  50.9662819  69.8679686  44.9935341  52.3968172
  93.2927895  38.3911085  27.0564175  92.9093838  39.2504787  27.2316766
  93.8572979  38.5312223  26.2962008  88.4051418  93.0799103  30.8257461
  89.3027115  92.7813816  30.9723353  88.0130577  92.3999786  30.2778530
  84.0620708  25.6273103  35.6078744  84.7171974  26.2562323  35.9103608
  84.0927601  25.6899619  34.6532202  74.5200634  60.6289053  39.0914607
  74.8950672  59.7880983  39.3534708  74.8248672  60.7576227  38.1932616
  81.2609100  75.9743166  35.2804208  81.5291500  75.2477694  35.8429265
  81.3188267  75.6232595  34.3918061  85.0366497  65.5954599  52.2693968
  85.4639435  65.5777121  53.1257439  84.3597794  66.2670469  52.3533440
 107.6457882  50.9866142  20.0203681 106.8619442  50.4449415  19.9286830
 108.3703995  50.3611755  20.0210714  80.2531815  13.3675981  54.0195656
  80.6678963  13.7961888  53.2708597  79.3205118  13.3592975  53.8044167
  98.5842514  67.3070621  44.2586184  98.7936020  68.1830692  44.5826817
  97.6777363  67.3730326  43.9584303 105.2220440  69.4546509  17.2857976
 104.7515488  70.2706480  17.4561214 104.7315407  69.0388727  16.5767395
  70.3219032  49.8987484  35.3647494  69.4462633  50.1865816  35.1066041
  70.3087473  49.9203873  36.3216138  81.2081051  72.8266716  40.5688810
  82.0829678  73.2129145  40.5279779  80.6145477  73.5608053  40.4108763
  56.0171175  74.7076416  24.5891261  55.8301020  73.8785028  25.0293350
  55.4202175  74.7215652  23.8409638  50.1804053 107.4192106  72.2979355
  51.0928999 107.6833841  72.1804237  50.2134310 106.4645430  72.3591805
  54.8830462  76.3155699  28.7422061  55.6082582  76.3719845  29.3643904
  54.8261118  75.3852081  28.5244489  59.6659851  86.8078136  53.0616045
  58.9833307  86.6868210  52.4016237  60.3278923  86.1512661  52.8447008
  75.7542276  75.8523893  39.6306133  75.1510525  76.5639114  39.4157815
  76.4742470  76.2804222  40.0938511 109.5929813  58.0061483  27.2014046
 109.0975285  57.5673485  26.5098715 110.2695656  57.3756504  27.4482584
  76.0224152  86.5152740  35.8257794  76.9113445  86.5799999  35.4767108
  75.6989288  85.6742668  35.5028248  83.2815742  85.5963993  22.0553088
  82.9366398  84.9175549  22.6353216  83.8207340  85.1204491  21.4236379
 100.9370518  40.4136324  20.1785374 100.1162910  40.2943516  19.7006810
 100.6733799  40.4707575  21.0969305  95.6298542  67.7280569  66.6462660
  94.7172928  67.7122593  66.3577986  96.1317062  67.8785467  65.8451843
 106.0223198  72.0698833  50.0637579 105.2313328  72.1106195  49.5262527
 105.7153320  72.2375774  50.9547520  67.3863363  60.8592463  48.4291983
  67.6927614  60.0793695  48.8919353  67.1354294  60.5402565  47.5622940
  42.5955057  41.6320562  15.9201872  42.3540688  40.8755922  16.4547026
  41.7661810  42.0776653  15.7473207  65.6422758  13.0904353  65.6740808
  66.4017725  13.5182178  65.2786016  65.7274485  13.2690883  66.6105986
  96.3650036  61.7529631  10.8494473  95.9987926  61.6905594  11.7316198
  96.7498207  62.6285696  10.8112514  72.8467464  21.2600613   8.4595746
  72.1505022  20.6037807   8.4874415  72.7790785  21.7167854   9.2980582
  57.4788475  74.2136002   7.9994434  57.5317907  75.1424503   7.7743399
  56.9494534  73.8278055   7.3014933  60.7226276  33.8102841  55.3023100
  60.8537292  33.5774732  54.3831539  59.7844553  33.6891842  55.4485989
 105.1548576  66.2960577  36.0247612 104.3283558  66.3059139  35.5420232
 105.7362080  66.8611336  35.5158901  86.9778252  69.3221664  48.6047220
  87.7790928  69.0757847  49.0667963  87.2774506  69.6095228  47.7422333
  17.3074614  14.2169137  87.5608694  17.0999180  13.3376784  87.8772688
  18.2618605  14.2703576  87.6108378  77.3005915  72.5811911  54.5485592
  76.4800167  72.8860950  54.1613626  77.1283674  72.5612211  55.4899263
  71.0652018  54.2178440  16.4700139  71.1539412  54.7881222  17.2336531
  70.4034805  54.6460724  15.9268963  83.4987926  99.9166012  29.1146660
  82.9172325 100.5243778  29.5714331  82.9396820  99.1726112  28.8908410
  81.8002224  54.6969271  37.2495770  82.5500107  55.0653696  36.7823458
  82.1878719  54.1167927  37.9048610  82.8051376  60.6895161  26.1636925
  82.5706196  60.5373001  25.2482343  83.7167454  60.4047728  26.2279367
  78.1248808  48.4703636  40.4551363  77.3630333  48.1455088  40.9350252
  77.9634380  49.4086599  40.3562737  68.4656048  87.4756813  64.2953396
  68.7801075  88.1608295  63.7055063  67.5548124  87.7112198  64.4719887
  75.5972338  84.9212551  59.9735022  74.8075485  84.5843124  59.5502996
  75.6303501  84.4667816  60.8152771  93.1134033  85.7981682  17.7260005
  93.1491566  86.1107635  16.8219876  92.1846485  85.8331203  17.9549611
  41.1731291  64.1184807   0.4415023  41.1201572  64.1795826  -0.5122757
  40.2740431  64.2543602   0.7405145  73.6977911  65.4842377   8.2163835
  73.7055016  64.9114037   8.9832163  72.7793980  65.7333088   8.1127036
  73.3966446  27.0963264  44.8071146  72.8307343  27.0529151  44.0363359
  72.7930450  27.0664048  45.5494070  81.3518238  67.6710749  64.8443937
  81.1858654  67.6309824  65.7862425  80.5910683  68.1286001  64.4864082
  65.1083469  46.9688702  26.5448499  65.7106352  47.4865007  26.0104942
  65.2696800  47.2635221  27.4411654  69.0140772  68.7162209   8.5652393
  69.4678068  68.5096741   7.7481115  69.5733595  69.3650818   8.9923453
  65.3486681  64.7759151  23.7020254  64.6615887  64.5187378  24.3168497
  65.9108639  64.0041494  23.6345792  81.8974972  53.6035204  44.5110798
  81.0601711  53.7363338  44.9554539  81.7646790  53.9679098  43.6359739
  63.0501223  36.7504168  35.5002618  63.3728313  37.5266457  35.9580374
  63.5599661  36.7205405  34.6906948  98.9697933  49.9679804  53.8597822
  98.9438629  50.4667902  54.6763277  98.8810825  49.0551472  54.1338301
  71.8453026  35.0306535  46.0573006  72.4384308  34.4867587  45.5390263
  71.8566084  35.8817506  45.6194258  70.2808237  77.2688103  35.0062323
  69.9406242  77.8895044  35.6506205  71.2062168  77.1729231  35.2313662
  82.8351593  31.9553876  61.8369579  82.7556229  31.8704963  62.7870607
  83.7495327  31.7402124  61.6529703  95.2160835  45.9808207  40.3025341
  95.3669834  45.0372028  40.2473450  94.9124813  46.1227894  41.1991405
  82.1574497  63.1052589   6.7371845  81.6999435  63.5972738   7.4189842
  82.2343731  63.7208986   6.0082793  27.4275208  40.1652718  33.4003997
  28.1134605  40.0400066  34.0561652  27.8466058  40.6800413  32.7107549
  65.9303045  81.9363403  34.4315100  66.2814713  81.1787510  34.8994637
  66.5030718  82.0346451  33.6709166  80.6501007  80.0498676  29.5405841
  80.9539413  80.6373787  30.2324986  81.4070034  79.4970798  29.3462491
  93.6419392  74.0173101   1.6152826  93.4517670  73.6990499   0.7327995
  94.2311954  74.7594833   1.4804310  99.8175621  63.2594013  36.5471506
 100.7688046  63.2151937  36.6441941  99.5475864  63.9542532  37.1475887
  81.1478806  93.9488983  12.3657203  81.1049175  94.7163486  11.7952716
  81.6531467  94.2420864  13.1239915  78.6109829  53.8405657  12.8428876
  79.3931293  53.9352894  13.3864927  78.2663345  52.9763079  13.0676270
  84.5378113  91.3049507  74.8598146  85.4118633  90.9200859  74.7954845
  84.4565487  91.8472385  74.0752411  99.5657825  62.1247864  22.4957824
  99.9755478  61.5666437  23.1566882 100.2812767  62.6664162  22.1626973
  89.0222263  68.5558462  50.2430248  88.5841274  68.9047098  51.0192966
  89.2521954  67.6577044  50.4811096  68.8151741  58.8884878  26.7688155
  69.6758175  58.4706926  26.7999649  68.7755823  59.4151878  27.5670958
  90.4278469   6.0497135  32.0967293  90.6621933   5.1229429  32.1457934
  90.7766724   6.3406914  31.2541819  87.1708679  87.3830795  76.0442209
  86.4949322  86.7053318  76.0475302  87.2980404  87.5990200  76.9680309
  75.2401066  19.7353554  58.8610697  75.5960655  18.9894342  59.3439007
  74.2913437  19.6516109  58.9563227  64.5556498  75.9798431  33.7249827
  65.2433968  76.3870001  33.1982398  64.3949509  75.1376438  33.2994103
  59.0880251  82.9371357  49.3878841  58.4924841  82.9568481  48.6387634
  59.9543905  83.0859947  49.0090942  65.4605532  95.4152298  26.6123986
  64.9733496  95.8638096  27.3035145  64.9215937  94.6548557  26.3942575
  75.6691313 109.2474174  10.0514865  75.4060078 109.7119236  10.8459878
  75.0708723 108.5019493  10.0006342  18.5856495  83.1015396   4.9924290
  19.2214070  83.7655926   5.2590191  19.1086922  82.3125744   4.8503396
 106.5670013 105.0971413  90.3761101 106.8239594 105.0430298  89.4556332
 106.9120502 105.9395409  90.6719780  62.2892475  76.7260790  65.1313257
  63.0351639  77.2758150  64.8912525  62.6338530  75.8332634  65.1125526
 107.7461052  96.6134071  11.5596247 106.9056129  96.7602158  11.9935143
 107.5131607  96.2875938  10.6902480   9.3485031  26.9457650  51.0004759
   9.3648110  27.8776574  50.7824373   9.1012059  26.9203544  51.9248343
  39.1568351  40.1521540   9.3931866  38.4298825  39.9205518   9.9712276
  39.8783660  40.3594494   9.9870336  91.8386078  79.9753141  81.3147926
  92.3849487  79.4565344  81.9052124  91.7185974  79.4167757  80.5467701
 108.7192249  78.6964798  32.7178431 109.6562195  78.6716366  32.9119253
 108.3495617  77.9766226  33.2291007 102.4626255  47.0684004  24.4812250
 102.3986912  46.7864323  25.3937149 102.5751019  46.2564421  23.9869571
 112.0697594  43.9876938  28.5865521 111.1711979  44.2438316  28.7944555
 111.9768333  43.1924629  28.0619550  74.3254471  45.0493383  49.9451828
  73.7248278  45.7912922  50.0157976  74.5151663  44.8076391  50.8517265
  74.5317268  88.7786770  35.4247689  75.1628876  88.0870438  35.6235194
  74.9107409  89.2412472  34.6773624 109.9656868  54.7852087  67.8874588
 110.2771664  53.9137506  67.6429653 109.9706936  55.2799654  67.0680571
  98.6983395  63.1661129  65.5237961  98.7455368  64.0004349  65.0569868
  97.7890110  63.1066799  65.8167553  88.6221409  58.4917641  34.8227739
  89.4425583  58.3882475  35.3048944  87.9713249  58.0364418  35.3569603
  91.1146450  79.1613340  64.1493559  90.5691910  78.5306835  63.6792612
  90.5396557  79.9122524  64.2968178  95.9317684  93.2667160  49.6773672
  96.5427113  92.5352955  49.7667456  95.4702473  93.2970715  50.5154085
  86.6243458  80.4977322  38.3323216  87.1797752  79.7182035  38.3246160
  86.2134933  80.5076408  37.4678373  88.6382103  83.8118172  56.7179871
  89.2634678  83.2524109  56.2571812  88.0525875  84.1321945  56.0319567
  15.5182419  65.9400988  28.4062147  14.9875889  65.5097055  27.7358389
  15.3630505  66.8748903  28.2708931  63.6507273  65.8059740  28.7458992
  63.4988356  66.2955856  29.5542550  62.8335667  65.3302956  28.5968542
   4.4598732 100.4574680  34.7703004   4.1326485  99.5960522  35.0293708
   4.3360386 101.0040379  35.5462933 107.1245766  80.4747581  41.5282536
 107.3874092  80.1548195  40.6652403 106.1896420  80.6602669  41.4403915
  88.5430908  64.5823479  43.5774660  88.6773586  63.6468124  43.4258795
  87.6582623  64.7527409  43.2545376 105.4054546 101.8224812  53.1672478
 106.0706139 101.4700222  52.5760078 104.6190834 101.3117981  52.9747534
  88.5190296  27.9959393  42.2315836  87.9747295  28.7823343  42.1921730
  89.3917084  28.2956719  41.9770050  77.5097370  84.3188953  49.5792580
  77.7980089  84.7872734  48.7958384  76.5625525  84.4546795  49.6045542
  90.7901192  74.6778154  64.9382973  90.3641510  74.1293097  65.5970240
  91.6446590  74.8858404  65.3160810  98.4272385  69.0756989  22.5804973
  98.5399723  68.7504673  23.4736633  99.2208481  69.5823717  22.4081421
  39.4881903  47.3633618  89.4129556  38.6875759  47.4256272  89.9338907
  40.1423727  47.8432221  89.9209082 107.6219082  50.9907103  36.4838099
 107.8435135  51.9018412  36.6760659 107.6274395  50.9394312  35.5279994
  99.3527699  68.3012486  33.7700319  99.3066883  68.9093018  34.5078564
  99.3732738  67.4342299  34.1751122  70.7843876  75.7614899  41.6341782
  70.9087610  76.6872883  41.4252281  71.2009001  75.2944279  40.9098864
  87.9290009  60.6748629  16.3233566  87.5499630  59.8278141  16.5580153
  88.8043880  60.4638529  15.9986937  65.8232450  92.3074150  30.2880859
  66.6570759  92.1876812  30.7426405  66.0218430  92.9214382  29.5811462
  66.4330196  72.5514174  60.7411766  65.6378698  72.0481491  60.9163761
  66.6797638  72.9133892  61.5922451  79.8601294 107.4133301   2.4786063
  80.5460739 107.9312038   2.0572770  79.1644812 107.3589611   1.8233573
  11.7132054  72.3457432  15.5509412  11.9163094  72.2901154  16.4846909
  10.8293686  71.9859171  15.4762208  71.1026192  65.4759836   7.5886685
  70.8473158  64.5583630   7.4937010  71.1067677  65.8172274   6.6943705
  71.2367105 101.9090080  33.2394886  70.9829903 102.3021698  34.0745258
  71.8036318 101.1768436  33.4819174  86.1330795  64.6143389  14.7884846
  85.8764553  64.6168756  15.7106400  85.6959343  63.8464832  14.4203341
  91.5043926  57.5746250  23.4305000  91.7062283  57.4831867  24.3616986
  92.1910286  58.1491756  23.0918932  86.1854458  46.5357399  46.8918228
  85.7342052  47.2357702  47.3635960  85.7359600  46.4870977  46.0481215
  85.0482082  65.3907394  77.5821114  84.1036415  65.2684689  77.6773691
  85.3823757  65.3830624  78.4790564  99.7705841  66.1877298  16.9228423
  99.3760300  65.4067659  16.5346992  99.7764206  66.8307400  16.2138033
  71.2088680  58.8397074  21.9224977  70.4761982  59.4374704  21.7738008
  70.7961559  58.0097723  22.1614790  90.2710342  66.1101723  10.0212085
  91.1237812  66.4801502   9.7927815  90.3996277  65.7309198  10.8906138
  93.0908966  47.3862791  23.7297654  93.6917686  47.6767206  24.4159317
  92.5593662  48.1580019  23.5344505 104.0778542  78.4256077  18.3806527
 104.5419693  78.0604076  17.6273561 103.1752110  78.1252956  18.2744575
  83.4703255  75.6613064  43.9400053  84.2453861  75.1691055  43.6693668
  83.1516361  76.0682440  43.1343555  56.6568362  25.0869031  82.6472634
  56.2300955  25.9182401  82.8546554  57.5879942  25.3022809  82.5944608
  78.8795567  46.7236185  38.1407976  79.2539978  46.0254908  38.6780548
  78.3765221  47.2562742  38.7568092  67.8904009  61.2234116  61.7513752
  68.8243198  61.3421297  61.9243860  67.6654100  61.9352579  61.1523008
  88.7466431  53.6278820  45.4127789  88.4423161  53.0530977  46.1150885
  88.2890511  54.4547653  45.5647898 100.9105110  94.7665977  52.6229143
  99.9776268  94.6510124  52.4423742 100.9719086  95.6358147  53.0190516
 103.7440777  55.9833002  59.5995903 103.5345936  55.4958153  60.3962708
 103.5769939  55.3641129  58.8890076 111.9674969  71.3912964   7.6841986
 111.1792278  71.8372297   7.9940540 112.5118446  72.0906925   7.3225886
  94.3504333  78.4245777  33.2051849  93.4436226  78.5141897  32.9120851
  94.8009491  78.0129957  32.4677110  79.4700861  91.9559193  50.9445572
  79.3654299  91.0553837  51.2516642  80.1378918  91.8998146  50.2611017
  15.5025254 101.4159203  27.8353786  14.5629750 101.4762115  27.6626158
  15.8849488 102.1360111  27.3339272 114.6117306  48.5151815  59.1217661
 114.4421864  49.2325687  59.7323799 115.5100155  48.2453156  59.3127728
  87.2276211  48.0128384  61.5610123  87.6171589  47.1492052  61.6974735
  86.3403320  47.8293133  61.2523317  68.8217878  86.9218922  25.0876641
  69.4672203  86.7490101  24.4022775  67.9871702  86.9771290  24.6222639
 103.0755806  82.5404453  19.0431094 103.5713005  83.3110714  19.3199170
 102.8141499  82.1173477  19.8609579   6.6157875  98.2383728  10.6772089
   6.8449746  99.1405106  10.9004653   7.1066628  97.7048588  11.3022196
  92.9975986  59.0395641  47.9221439  92.1465874  59.4578600  47.7915812
  92.8318214  58.1083536  47.7751637  55.0415407  25.5520005  88.9667892
  54.3702875  26.2291951  89.0507620  55.7709013  25.8704610  89.4986188
  94.1428566  92.7060604  14.5276117  93.4199524  92.0787430  14.5176232
  94.9226284  92.1706104  14.6741593 103.7770462  88.9489174  32.8613424
 104.7196960  89.1147137  32.8738022 103.4107399  89.6856022  32.3721027
 102.3339272  68.5242891  82.6064587 102.6697636  67.9685545  83.3097363
 102.2568893  69.3920851  83.0029869  98.0019569  52.9871893  46.1533403
  98.5834408  53.5785151  46.6312933  98.5206985  52.6952839  45.4037142
  62.1229315  42.7765274  10.7921004  61.4030838  43.3789635  10.9795177
  61.9324207  42.0031738  11.3230050   7.9014359  51.9525671  44.4059610
   7.4925957  52.2222900  43.5835695   8.5925923  52.5982761  44.5529127
  22.8217099 104.6767182  78.1235868  23.2116101 105.1046080  77.3612755
  22.1843217 105.3099293  78.4537464  71.9873285  79.6582079  57.0055437
  71.9967794  78.8443756  57.5093508  72.5900745  80.2363777  57.4731398
  78.2077360  58.9802456  37.2577977  78.8554859  58.9784670  36.5530658
  78.6936474  58.6919355  38.0304599  98.3286381  61.1959219  47.5569725
  98.0886459  60.3649521  47.1469450  98.1187820  61.8576241  46.8979216
  96.2550545  70.2704811  32.7233839  96.4319515  69.3501377  32.5286651
  96.3942814  70.3466272  33.6673379  83.0888653  69.7847271  37.3710084
  82.9119015  69.2130661  36.6239309  82.5355053  69.4407082  38.0722046
  72.8204870  80.5477142  51.1003160  72.8752565  81.2868309  51.7060661
  73.6952019  80.1593399  51.1166382  73.6087513  87.1040821  44.4797993
  74.1501665  87.5454807  45.1342249  72.8430128  87.6699257  44.3813372
  49.0935564  65.6164980  31.4896035  49.5396185  64.7768688  31.6004586
  48.2307863  65.4830074  31.8820786  71.1392498  53.9637184  39.1889358
  71.4770126  54.3824482  39.9806523  70.2338409  53.7397385  39.4040895
 110.1494694  77.5553751  38.4493709 110.2423477  76.6556597  38.7626076
 110.3283405  77.5018120  37.5105619  71.5419197  77.5841236  32.3377347
  72.4378014  77.5103807  32.6666594  70.9914970  77.3891306  33.0961847
 105.9780502  83.7348175  50.8384895 105.1315880  84.1705322  50.9378958
 106.6218185  84.4114494  51.0481405  84.6873951  56.8446350  38.5598350
  84.3167210  56.3078117  39.2603016  83.9258194  57.2094774  38.1091380
 102.8948784  68.0691338  60.5024147 103.5190582  68.4300661  59.8728418
 102.5921059  68.8278294  61.0013533  74.0769958  35.2741623  42.2801685
  74.5834732  35.8270407  42.8751802  74.2850828  35.6080031  41.4075375
  83.9128494  82.4278164  38.9679933  83.4236336  82.7887821  39.7073197
  84.8242092  82.4284077  39.2606568 106.6401291  63.7737894  35.7351565
 107.5768280  63.8959312  35.8898187 106.2533092  64.6296930  35.9196329
  61.5145588  72.7539253  56.0658216  60.9393644  72.1315002  56.5107584
  62.2292471  72.2170591  55.7234430  71.3047123  97.6176262  16.9070077
  70.9826469  96.7442703  17.1300602  71.2154865  98.1198978  17.7169454
  83.2898331  81.3089275  29.2288375  83.5277843  80.9338570  30.0767374
  83.6360836  80.6889153  28.5870194  95.8450603  58.0265379  30.4846215
  96.7510891  58.1401348  30.7717538  95.3299809  58.5367346  31.1096191
 113.7590313  79.7305202  50.8001614 113.0014133  79.7134686  50.2153873
 113.5163212  80.3496933  51.4885998  84.0502167  44.1472483  56.8765736
  83.8243771  43.7571192  57.7209806  83.2069397  44.3719530  56.4833450
  95.4720497  99.2338943  15.9264708  95.9596348 100.0500965  15.8155370
  94.7244072  99.3192196  15.3348804 106.6124880  90.5011815  80.7505780
 107.5509989  90.6405205  80.6240397 106.2159645  90.7757706  79.9237758
 105.1177883  90.5500317  42.1841192 104.3677998  90.4677486  41.5950632
 105.6471729  91.2497711  41.8015623  62.2238588  80.4166794  39.2517614
  62.1794176  80.4918194  38.2985520  62.2543573  79.4742632  39.4165635
  49.4689369  86.6374779  61.4024782  49.2902994  86.4373970  62.3213291
  50.2779675  86.1646175  61.2072897  65.9080315  59.2268085   7.3469990
  66.5577650  59.1040564   6.6548955  66.0057020  60.1426888   7.6075023
  41.7345762 106.8288612  10.7052374  41.8499851 107.0529842  11.6286445
  40.8891153 106.3813400  10.6712484  89.0696526  78.9254808  61.7081499
  88.1810093  78.7456131  61.4012337  89.5729446  78.1531048  61.4505482
  84.5013714  67.4515486  28.1352544  84.0207291  68.2761335  28.0625892
  84.1633797  67.0469141  28.9341664  70.9321594  59.5891380  42.5258207
  71.3871241  59.8258305  43.3340359  71.6336727  59.4118690  41.8991709
  25.8993660   5.2162786  84.2881471  26.3880574   6.0295434  84.1616219
  25.1322781   5.3073831  83.7228995  91.3628292  47.6268339  43.1520414
  90.4888248  47.3736858  43.4491158  91.4247608  47.2760487  42.2635937
   7.9772148  84.0779114  42.3150826   8.1573162  84.3631077  43.2108831
   8.7360821  83.5457420  42.0760107  81.0759926  79.0730095  45.3099060
  81.7816257  78.5845470  45.7338428  80.4109478  79.1728163  45.9910679
  77.1473026  77.2439480   1.0090207  77.6083374  78.0114603   0.6704924
  77.5887966  76.4996290   0.5999881  77.0041071  23.1269403  80.1060527
  77.4775397  23.2978339  80.9202319  77.1276556  22.1908135  79.9491185
 105.5455971  31.2253571  41.0361290 105.9350777  31.1602283  41.9080782
 105.4439926  32.1656823  40.8888245  99.6160126  57.7958393  16.8051875
  99.4052601  58.4392166  16.1285186 100.5392361  57.9514265  17.0043790
  85.8976173 104.0250778  61.7072392  86.8301773 103.9231586  61.5170765
  85.8123493 104.9290562  62.0101976  89.7681904  70.0697184  54.5879555
  89.9905205  71.0006380  54.5741653  89.4870853  69.9039078  55.4877949
  82.5618744  75.0689077  22.7256465  83.1117344  75.5745602  22.1271443
  81.7368793  75.5531025  22.7598333 104.1482735 101.5150070  43.6997986
 105.0069427 101.6387749  44.1042852 104.1044903 102.1876144  43.0201530
  82.6242638  62.3363924  58.7407351  82.2779465  62.4114990  59.6299219
  81.9958401  62.8124952  58.1979275  85.8275795  64.4784594  41.7207241
  86.3420963  65.1893282  41.3384151  85.3178501  64.8977280  42.4139929
  75.3338671  38.5294747  47.4527502  75.7413435  39.3823004  47.3014832
  74.4317770  38.7351704  47.6980305  85.9020138  70.4169655  22.7512860
  85.4813004  70.1381302  21.9379687  85.1894760  70.4528809  23.3894372
 113.8264942  95.2765274  73.2858324 113.9837646  95.3669262  74.2256880
 114.1306877  94.3935585  73.0759239  69.4690180 101.3545227  19.3493748
  69.8978424 102.0705700  19.8180211  68.7004566 101.1468124  19.8807907
  79.7050381  78.8470125  56.6898346  79.7847605  79.4691467  57.4129009
  80.4089546  78.2156229  56.8384075  34.2960511  45.9794092  15.1728594
  33.5949765  46.5525818  15.4830182  33.8706932  45.4023743  14.5385671
  75.5181360  79.9508715  45.8225632  74.6271229  79.6015549  45.8399916
  75.4036856  80.9006882  45.8538914  78.4710312  90.9630775  39.5784116
  79.2506981  90.4112625  39.6404123  78.6602974  91.5650940  38.8587022
  68.9881468  61.2281656  24.5836687  68.7996721  60.7891464  25.4131079
  69.9174595  61.0589218  24.4288564 100.2945709  87.2065353  26.5429926
 100.2927685  88.0651951  26.9659901  99.6770477  87.2958374  25.8170962
  92.9302216  54.2937136  39.4997168  92.1271133  54.8073626  39.4136453
  92.6334667  53.4328222  39.7947240  72.8498697  52.6764774  24.4275427
  72.6048565  51.7528057  24.4826603  73.7381220  52.7102566  24.7826362
  56.1577892  93.1011581   2.7935752  55.3790474  93.6551189   2.7396512
  56.7693186  93.4858418   2.1656533 100.9426880  70.0251818  32.0749617
 100.1007557  69.5972824  31.9190979 100.9203339  70.2677631  33.0006409
  76.7741394  63.8384962  59.7720671  77.1394348  64.5928621  59.3097591
  77.5331831  63.2923841  59.9766207  15.5139135  12.0977450  24.9502182
  15.5282473  11.1778975  25.2146292  15.7818102  12.5766040  25.7345366
  89.5846367 103.1397820  13.0712759  89.4081211 104.0582466  12.8675866
  89.3842506 103.0584431  14.0037262  78.8945007  52.5664520  29.2405653
  79.4070530  53.3703089  29.1549349  78.2837486  52.7468014  29.9551916
  84.5149695  31.3441129  90.4791122  85.1344286  30.7887216  90.9524482
  83.8415991  31.5566392  91.1253649  15.1160488  95.2575111  32.0314050
  15.3972302  94.3814754  31.7673683  14.8267708  95.1531601  32.9378629
 109.6263027  50.6776714  16.5230441 110.2178288  51.2046432  17.0602858
 109.7446632  49.7833920  16.8431711  69.9248028  67.0709276  28.1982470
  69.6276283  66.1988831  27.9385233  70.1116467  67.5162935  27.3718262
  11.9311581  49.7899771   0.8703128  11.4225445  49.3761158   0.1729876
  12.1066628  49.0826416   1.4908782  47.4330902  63.3462429  33.3734155
  46.7502117  63.3080006  32.7037501  47.2725105  64.1707182  33.8324285
  94.1913878  23.2683082  78.9821559  93.6923014  23.8004346  79.6018225
  93.7410818  23.3887000  78.1461173  54.0690660  92.1875954  84.4752121
  54.8825788  92.4399185  84.0384483  53.3772802  92.4992275  83.8916397
  86.8798542  90.8748913  12.3817456  87.5006485  90.6836700  13.0848002
  86.3461018  90.0834084  12.3116851  51.4487505 105.7682419  45.0920486
  51.0928631 106.1105251  45.9120560  52.3672819 106.0374737  45.0987339
  10.0941538   1.7151976  50.5629158  10.4238962   2.5682402  50.8454370
   9.1680502   1.7243243  50.8047533  85.3681564  36.9421148  33.2258344
  85.4049587  37.6538563  33.8648176  86.1625576  36.4333415  33.3879948
  94.9435806  67.4816418  12.5637043  94.2555141  67.5638151  13.2240391
  94.9091911  66.5635967  12.2949219  87.6205826  84.7837830  30.1931119
  87.1723175  84.1341114  29.6516156  88.0626583  85.3550911  29.5650959
  77.8991175  58.8917685  62.8243637  78.6249495  59.4847298  62.6299477
  78.3214903  58.0828094  63.1131887  66.0360670  74.8387098  40.3353786
  65.5697823  75.4180527  39.7327447  66.5246248  74.2441082  39.7661710
  76.0991383  64.9060345  32.3597646  76.8337870  64.7185326  32.9440284
  75.4240894  65.2695417  32.9328299  77.1692610  63.0448151  28.6152196
  76.2817335  62.8736067  28.3002424  77.7264404  62.4792290  28.0805230
  97.5702572  29.9756622   8.9991808  97.9908276  29.8179150   9.8444432
  98.2685852  30.3253436   8.4457475  70.8169031  57.1324682  53.2968283
  69.8656368  57.1652412  53.3980894  70.9527063  56.7318869  52.4381495
 102.7828503  70.4126453  28.5432172 103.0743504  70.7238674  29.4001889
 102.5643539  69.4914961  28.6845446  68.9085150  41.9227123  51.4576340
  68.0575466  41.9133615  51.8958044  69.5155764  41.5654469  52.1057653
 109.3875599  26.1246872  38.6647296 109.6034431  25.5150270  39.3703794
 108.5085297  26.4372516  38.8788033  98.6878933  10.5720950  47.1605158
  98.0593933  10.1773787  47.7650118  98.1820978  10.7408763  46.3655853
  71.3880205  73.0520058  15.7944453  71.1457300  72.7550125  14.9173343
  70.5561209  73.2845020  16.2069058  63.2025242  87.0774555  22.8936410
  62.8406048  86.9696236  22.0140839  63.7318373  87.8731060  22.8389525
  97.8091717  47.3005724  46.1125135  97.7687359  47.7349710  46.9645119
  98.4554863  46.6042233  46.2291384  76.7309761  56.3736725  19.1716969
  75.9122801  56.1855745  18.7127948  77.2488594  56.8750095  18.5418665
  90.1477528  74.8436165  49.4315195  90.0489521  75.4097748  48.6660528
  90.3087425  75.4472733  50.1567221  75.9562683  66.9817972   9.5268470
  75.3200674  66.7687130   8.8441503  75.4511595  66.9615841  10.3396761
  96.4563084  54.0229464  19.6001959  96.6130829  54.7312927  20.2246165
  97.2437477  53.4810257  19.6500897  31.3961958  18.7045623   5.5505973
  31.4546846  19.6570254   5.4755771  31.0707544  18.5537482   6.4380515
  71.9779205  92.1678925  54.3325138  72.3284149  92.5034523  55.1576138
  72.7072668  91.6880989  53.9399672  58.9551401  85.4038906  50.8459044
  58.6635208  84.6600819  50.3187084  59.0222120  86.1274338  50.2228355
 111.6740894  88.5829830  13.2442701 111.7090988  88.6671448  14.1971195
 112.5414562  88.8583183  12.9474759   2.2732327 109.2841095  94.9690103
   1.8082640 109.1198630  95.7894110   2.2050641 108.4605069  94.4860351
  88.0832767  72.8823376  86.0589314  87.5982189  73.0441856  85.2497578
  87.4065018  72.7905130  86.7295837  62.2071266  93.8280106  54.9228001
  61.5050077  93.2170296  54.6993017  62.6804495  93.3986473  55.6354332
  94.6142673  43.8722992  49.1384840  94.1335964  43.1631231  49.5653963
  94.4266510  43.7616396  48.2063961  73.3943176  92.1155167  27.8878641
  73.1223297  92.3568058  28.7733197  72.5767469  92.0585728  27.3933291
  85.0407791  58.8309050  26.2500000  84.9166489  58.0462122  26.7839313
  85.8563805  58.6709738  25.7751799  84.6914101  66.4945412  43.4048033
  84.8846149  66.9201517  44.2401218  84.7001743  67.2068071  42.7654028
  82.6900482  57.7354670   8.5408068  83.5754967  58.0709410   8.4005594
  82.3500252  58.2542849   9.2698097  97.9604435  69.6524000   5.8882338
  97.9953194  68.7467241   5.5803883  98.7244034  70.0701141   5.4905969
  98.1211472  48.8039160  12.0938754  98.8757324  48.8792896  11.5098000
  98.2847500  49.4497967  12.7811158 111.0733318  38.9625049  35.2058339
 110.8379936  39.4231391  34.4004393 110.2350330  38.6942792  35.5820441
  96.1954212 100.1730442  37.7792239  96.8554592  99.8099709  38.3697796
  96.5950966 100.9720230  37.4355197 113.5405922  35.6746435  59.3805695
 113.7679768  35.8095360  58.4606075 114.2478943  35.1291180  59.7246075
  69.5768309  66.9848204  39.2343998  68.9121866  66.7767191  39.8910427
  69.0901041  67.0479250  38.4126043  86.0573578 100.5173302  74.8372269
  85.3923512 100.9727192  75.3535748  86.0954666 101.0034657  74.0135431
  78.4563721  29.3133784  35.9985089  78.1370772  30.1387168  35.6336856
  78.2173098  28.6548186  35.3462958  87.7552986  92.5540829  35.3557825
  87.4967670  91.6374779  35.4519010  88.6734676  92.5735283  35.6256223
  86.3083363  79.0683746  51.1491108  86.3835335  79.8612070  50.6180763
  86.0921764  78.3790827  50.5211115  85.5415726  53.1817532  66.4755201
  86.1466503  53.4494781  65.7838249  85.3646374  52.2585583  66.2948608
  90.1216125  42.6559448  47.8831959  89.4510651  42.5908804  47.2032213
  90.2820492  43.5953951  47.9722452 106.8756199  25.0242686   5.6120133
 107.2320747  24.1472006   5.4708666 106.6745567  25.3454041   4.7329941
  73.1575441  78.6707830  44.4427252  73.1040812  77.7297163  44.6093559
  73.7100220  78.7452412  43.6646175   2.1243916  91.4237499  22.2687125
   2.0690213  90.6140804  21.7611790   2.8218613  91.2611198  22.9037857
  98.7959957  56.1502743  18.9028478  98.7221813  55.3032064  18.4632361
  99.1350365  56.7406034  18.2299495 107.2414017  62.3584414   8.2645136
 106.4048672  62.5979042   8.6633831 107.5728607  61.6467762   8.8121456
  91.6094017  90.5453014  22.1994424  91.3495445  90.1206207  23.0169725
  92.5419140  90.7300091  22.3113632  13.6304831  10.6599570  30.1383495
  14.1253542  11.4793063  30.1376915  12.7175974  10.9314299  30.0425434
 102.0639801  56.7035532  35.4870200 101.6580868  56.6020155  34.6261072
 102.6227856  55.9320879  35.5808449  57.0831299  92.5985622  15.4772496
  57.8741598  92.9322052  15.9005570  57.4036407  91.9612026  14.8390675
 105.3141880  50.7540751  67.6941156 105.1435947  50.2732134  66.8842411
 104.4652367  51.1239529  67.9364014  84.2903328  62.6170683  62.3267555
  83.6295700  62.5007820  63.0094719  84.4230366  61.7388868  61.9698000
  76.5990353  71.3314629  32.9695153  77.4474287  71.7703533  32.9075646
  76.7090607  70.6962919  33.6771059  73.4498310  61.0737514  29.6077776
  73.9277840  60.3798294  30.0619411  73.3058643  61.7429113  30.2769065
  76.2232780  68.2226801  32.7893281  76.1382341  69.1645479  32.6414037
  75.3850937  67.8588152  32.5042295  78.4870911  70.0975037  16.6939807
  78.2426119  69.3258095  16.1831522  77.6792145  70.6065750  16.7603874
  81.4148235  44.3258953  60.3737974  80.4990768  44.6043110  60.3621960
  81.7586231  44.6676588  61.1991596  96.4180565  94.1145897  12.5972486
  97.1700287  94.3587685  12.0576763  96.3155079  94.8435211  13.2091069
  30.5961203  12.6167536  23.6822939  30.3802942  13.5388804  23.5432243
  30.0296377  12.1436263  23.0727959  93.5638618 101.2871170  33.0929017
  92.7442551 101.5504169  33.5114193  93.3961201 101.3842106  32.1555305
  90.4932499  85.0361156  18.3094895  90.4951859  85.1286030  17.3567700
  90.6159687  84.0987301  18.4593856 111.3115597  68.2812929  27.8575563
 111.4387703  67.3486996  27.6834273 110.9171295  68.3105659  28.7292218
 113.2853317  68.6725855  13.4306979 113.2440186  69.5251036  13.8639796
 112.7486992  68.7769890  12.6449776  88.0325317  63.7542582  12.3094928
  88.1427288  64.6368885  12.6631200  87.6242161  63.8881731  11.4541686
   6.3794779   7.7714015  31.7974639   6.3016008   6.8704177  31.4837861
   7.2207331   8.0726290  31.4542699  65.5440664  98.0536842  47.2364187
  65.7163191  98.6569214  47.9593754  65.0020790  98.5567856  46.6286564
  55.1561056  24.6595950  80.1236516  55.0640761  23.7171025  80.2631897
  55.9800135  24.8862453  80.5549758 113.5278606  87.5133705  60.4288483
 113.8262749  86.7559052  59.9254370 114.3183422  87.8437805  60.8556890
  66.6200399  64.5821524  29.6707821  65.7548523  64.9037981  29.4173527
  67.0809031  65.3588724  29.9878621 102.0373058  59.1393566  17.3536372
 102.5286865  59.9529696  17.2404861 102.3706341  58.5608673  16.6677237
  79.8371649  62.1228266  10.7418585  79.1193771  61.6475677  11.1603510
  80.5958652  61.9502831  11.2993872  83.9404678  87.9931927  32.1572518
  84.8804760  88.1319237  32.2728753  83.8344097  87.8420544  31.2180281
 101.8503094 102.1374702  23.4407091 102.0005131 101.9298744  22.5184417
 100.9014130 102.0736027  23.5491252  48.4979807  16.7652888  74.3645936
  48.8319670  17.6313396  74.5983416  48.0647932  16.4531941  75.1590627
 102.3734188  77.4765253  23.4565187 102.3623371  77.2241020  22.5332689
 101.4496994  77.5243473  23.7028527  74.1312647  97.9322433   6.5644103
  74.1562271  98.8716984   6.3826627  74.5077753  97.5270653   5.7831901
   8.9311657  62.8261518  38.9034724   9.4649277  63.0809927  39.6560621
   8.0933628  63.2673597  39.0436363 115.5961895  66.6250324  20.2099895
 114.8885632  66.1434174  19.7815537 116.0760307  65.9585810  20.7017469
  98.7499237  66.8405437  26.1624837  97.9504013  66.4637852  26.5299726
  98.8213444  66.4485645  25.2921486  13.3846544  16.9854022  44.8864317
  12.8588938  16.3223410  45.3338194  13.0718874  16.9688655  43.9819241
   0.9365998  78.5217190  59.5454502   0.3959904  78.9070940  60.2349854
   0.3364048  77.9578352  59.0575552  77.2690201  45.9239817  50.1125288
  76.7330217  45.1347780  50.1906013  77.0293283  46.4525700  50.8736944
 106.9603920  98.0335426  20.7321596 107.4038792  98.1488132  21.5725565
 107.1336937  98.8459110  20.2564859  66.6985035 101.4777946  44.7673655
  66.2525749 102.3228836  44.7107649  66.6413307 101.2382984  45.6923532
 107.1530914  76.1754608  33.1278849 106.8864822  75.3994608  33.6208057
 106.8427563  76.0118151  32.2372985  31.4759039   2.3415042  44.6645689
  32.1717714   2.8901435  44.3026400  30.8329939   2.9636145  45.0049591
   6.3229441  15.8068133  57.1472883   5.7628702  16.5378810  57.4082088
   6.0059618  15.0659800  57.6639318  83.0785275  86.9272614  38.1810999
  82.7573204  86.1028194  38.5462713  82.7333069  86.9444752  37.2884870
  89.2452908  23.3698773  21.5308905  88.8482475  24.1977024  21.8016219
  88.5876274  22.7078247  21.7439365  42.8291201  28.9796496  66.3711119
  42.6888632  29.7793532  65.8641195  42.1465468  28.3809996  66.0678720
 111.0826744   0.5979777  32.8378344 110.8467878   1.4889861  33.0960870
 110.4883302   0.3924895  32.1161962  85.4098320  76.2632608  23.4090018
  86.2568760  76.1178589  23.8304353  85.0870705  75.3842640  23.2104397
  60.1260757 108.6469841  21.4267373  59.3183041 108.6122036  20.9143591
  60.4731703 109.5246887  21.2673974  76.8272734  92.8565502   4.1096491
  77.0718002  93.2597256   4.9426478  76.3721752  93.5502529   3.6322650
 114.1337980  16.4649153  25.8238244 114.3893446  16.0473204  26.6463423
 114.9446739  16.8455268  25.4864049 111.9738674  49.8646927   0.4631738
 112.2798347  50.7690001   0.5327691 111.1531067  49.9264765  -0.0254579
  86.9757843  78.3255863  60.0762796  86.1752892  78.4861135  59.5766163
  86.7841816  77.5409937  60.5900192   0.9216938  71.9402552  31.2722373
   0.4494057  71.9094944  32.1042418   1.1076794  72.8693676  31.1366153
   8.2564329  10.1129008  38.4586501   8.1666540   9.7190047  39.3264127
   7.7679323   9.5287085  37.8787303  66.1495495  79.2628050  24.5509672
  66.6478586  79.0697241  23.7568402  66.8159008  79.4036531  25.2235508
  45.2744650   5.5178023  14.3235528  45.2145456   6.4540244  14.1334844
  44.7787928   5.4058886  15.1347339 113.6103595  16.0107089  14.8256087
 112.7957929  16.2299205  15.2779996 114.1594471  15.6119967  15.5007100
  19.1749929  11.1980773  15.2613544  18.5055231  11.8822051  15.2577639
  18.7420916  10.4373027  14.8739958  29.4159483  27.7332164  40.1016665
  28.6017965  27.3026038  39.8409724  29.9637007  27.7049113  39.3171930
  80.9957027  94.5984745   7.1446878  81.6274643  95.2456188   7.4582422
  81.1053467  93.8518524   7.7335465   4.9844704  63.8704443  56.3299513
   4.7112713  63.3545876  55.5713415   5.9159909  64.0356445  56.1843538
  53.9261137  24.9038978  94.2827464  53.9021193  24.9215503  93.3260098
  54.8582922  24.8770900  94.4985054  94.8845196  95.0987625  41.3318825
  94.1128540  95.6649971  41.3439178  94.5704746  94.2737770  40.9617281
  60.9844112 109.9803352  32.0339274  61.7111444 109.9024010  31.4158511
  60.9295893 109.1195297  32.4489379  98.2084860  27.1297408  52.9073811
  97.3706974  27.5720835  53.0440283  98.7493004  27.4073268  53.6467743
  93.8083267  96.3903236  58.8590384  94.4980335  95.8280563  59.2117262
  93.3185863  96.6801167  59.6287203 108.7959480  94.7409630  54.7714663
 108.4872627  94.0697002  54.1629028 108.0340672  94.9392223  55.3159571
  73.4067011  94.5998669  21.3167548  73.0037451  93.7426853  21.4549541
  74.2938900  94.5061970  21.6636801 103.0577087 103.1845474  29.6378112
 102.6955032 103.2107162  28.7521696 102.3761082 102.7652550  30.1630354
  89.4720078 102.2369385  16.2613499  88.5280514 102.1065998  16.3518870
  89.6332073 103.0973434  16.6485679  98.6107635  76.1354685  36.3513708
  98.6361122  76.9719410  36.8160248  99.3659115  76.1648369  35.7639003
  67.3563385  78.3492374  29.9728703  66.8799686  78.0298471  29.2065191
  68.2792997  78.2408047  29.7435021  91.6186523  85.3632736  46.3281488
  90.8942223  85.4175186  45.7048559  91.2434292  84.9291706  47.0943022
  91.3121796  83.5700607  27.4996543  91.4107227  83.3867455  28.4339547
  91.5221310  82.7411366  27.0694900  80.9569454  81.6356659  26.6922379
  81.6431046  81.6550732  27.3593545  81.4019966  81.3360119  25.8995414
 101.1429691  71.7675829  38.0859780 101.3925266  72.4938154  37.5145459
 101.9220257  71.2126112  38.1221080  98.2678127  39.2899776  22.6306081
  98.9441967  38.6232901  22.5111794  98.4851456  39.7048068  23.4654212
  91.1182022  82.5903225  75.0111103  91.9606209  83.0440903  75.0366116
  90.4777336  83.2607460  75.2489662  18.8866005 103.6523724   5.9553456
  18.9453946 103.2569504   6.8250674  19.5434342 103.1882477   5.4363209
 110.1434612 104.4775105  39.8354793 109.9385071 105.1167965  40.5177736
 110.5436611 103.7458134  40.3052568  49.4245338  73.4364843   6.4506686
  49.6955490  72.5662327   6.1583567  50.1526594  74.0083170   6.2076193
  88.4540939  47.8560162  52.3822355  89.2427635  47.7392483  52.9119539
  88.1424046  48.7327576  52.6067543  78.5165167  86.1551380  31.4556623
  79.3337917  85.6633759  31.3753080  78.0443382  85.7205677  32.1658945
   5.5039273 105.1172161   5.5132365   5.8558236 106.0061741   5.5595565
   5.2961121 104.8943043   6.4206260 108.7629604  67.2446489  61.2990665
 108.2822704  67.6872587  60.5995893 108.0866814  66.8003702  61.8104410
  26.6082262   5.7837439  66.4021778  27.5309156   5.6306601  66.1985731
  26.5671610   5.7622195  67.3582554  40.7858824   1.6554881  46.4200783
  40.4944300   0.7616759  46.2401056  41.7194819   1.6500807  46.2088919
  92.8971767  92.1911240  43.9392281  91.9866753  92.0867825  43.6629486
  93.3528900  92.4926472  43.1533241  59.4971548  29.1673894  86.1826402
  59.0128695  28.3447785  86.2534231  58.8299643  29.8207994  85.9725231
  69.1034113  33.5949082  90.1147377  68.5382067  33.7356801  89.3551618
  68.5733973  33.0687280  90.7134393  74.7117472  81.8873978  42.2713995
  73.8531446  82.0398617  42.6660919  75.0517893  82.7639294  42.0916748
  15.7288144 106.6726775  75.5694002  15.0966618 107.0114178  74.9354654
  15.9620831 105.8064360  75.2355677  62.6239180  10.5456687  21.8992114
  62.6111864  10.4477835  22.8513074  61.9882082   9.9032832  21.5838695
 100.7525539 106.5111542  36.3502550 100.6031227 107.2721958  36.9112468
 100.0069618 105.9362507  36.5229011  89.1868401  91.8194580  45.6995583
  89.4893074  92.1285915  46.5534782  88.4484100  92.3898888  45.4861259
   4.8259043   3.8607550   2.5928044   5.3340410   3.7384463   1.7908892
   4.4931006   4.7561217   2.5312418  16.2556038  78.3562279  38.4485149
  16.7783223  77.5681353  38.3004999  16.7843686  78.8857365  39.0453935
  79.7158861 102.1782303  15.6867349  79.0563154 102.6817417  15.2095819
  79.9741602 101.4852905  15.0789821  76.9476223  95.7608128  27.8168988
  76.0923004  96.1814499  27.9047894  77.0583057  95.6378460  26.8741059
  99.7993755  81.6184425  37.5763941  99.0485287  81.2115765  37.1440506
  99.5227242  82.5203609  37.7383685  71.3686323 104.6249962  10.5294991
  71.3546562 105.5817127  10.5565190  71.3380766 104.3589687  11.4484799
  96.4935017  51.8830872  37.6240683  96.3062477  51.1095238  38.1558299
  97.3947239  52.1152210  37.8479815 102.6342392  91.2729931  61.2930202
 101.7598057  91.4197826  61.6536570 102.9092407  90.4350758  61.6651773
 101.4976501  74.5422792  29.4548416 101.6394138  73.8503695  28.8087797
 102.3170948  75.0369692  29.4597173  92.8910637  82.7778530  19.4235873
  93.7668037  82.8255844  19.8070288  92.4057102  83.4865570  19.8459625
  89.3929863 101.5436840  23.1238961  89.2591667 100.9077072  23.8266468
  88.6192894 102.1061516  23.1593442  66.7594194  86.6659164  55.4825354
  67.4904108  86.5086651  54.8849106  66.1595488  85.9369946  55.3242207
 112.0405388  93.8662910   1.1400934 111.5677929  93.7104225   1.9576797
 112.9642773  93.7912464   1.3794990  99.2790413  46.0261869  28.1532741
  98.8531590  46.3731432  27.3693871 100.0553036  46.5746117  28.2667398
 113.2512951  96.1539078  20.7396817 113.6912823  96.9869614  20.9090018
 113.9508533  95.5679512  20.4507232   1.8056164  42.1685314  45.2678204
   1.5430794  41.2833118  45.0154543   1.4921914  42.7239656  44.5540380
  98.6328411  71.3895464  54.8214197  97.7945900  70.9300661  54.8708725
  98.3956432  72.3151827  54.7651958  42.1867537  13.7829161  43.7991905
  41.4624762  13.7825442  43.1733704  42.6435827  14.6081591  43.6363411
  78.9222574  76.1202097  50.8259392  79.2226267  75.5645609  51.5451479
  78.2854176  75.5812263  50.3567266 112.5396919  80.5504417  15.9368443
 113.4723282  80.3374100  15.9690225 112.3499680  80.9258747  16.7966616
  47.2865378  21.5900083  73.3127409  47.1813475  20.6480117  73.1792837
  47.3770796  21.9483657  72.4297863 105.8271790  81.9847202  36.0001373
 106.3399601  82.7502823  35.7409072 106.1655140  81.2741470  35.4553008
  86.7461586  92.8742218  21.6365170  87.6354885  93.0374241  21.9506788
  86.8480778  92.1924686  20.9723997  64.4841099  85.3243637  54.8283863
  64.7615719  84.5162201  55.2598286  63.5293007  85.3160477  54.8954582
  95.7182407  91.0097885  26.0202432  96.6523457  90.8924294  25.8472991
  95.6850529  91.6447639  26.7357397 110.3284550  80.1165104  57.8756762
 109.9180126  79.3302393  57.5157452 111.0179138  79.7848654  58.4509039
  93.0070782  65.1583195  37.6968050  93.0584717  65.9554625  38.2242060
  92.1046734  64.8577547  37.8043270 109.3053722 103.8958454  46.2529755
 110.0822544 104.1595745  46.7460728 109.3723011 102.9429245  46.1922550
  69.7706842  95.1547718  34.4795370  70.0388002  94.9215889  33.5907340
  68.9316654  95.6015968  34.3671536  91.6930866 109.4131088   0.5124011
  92.5168037 109.8919296   0.4204198  91.8379021 108.5941505   0.0385303
  94.9232210   6.3486434  28.5414243  95.7640566   6.6860820  28.8502336
  94.7413410   6.8499041  27.7465105  57.3847662  15.4941983  84.2602390
  58.2432162  15.8161492  83.9852005  57.4485956  14.5425792  84.1790968
  83.9959132  29.6549172  94.1459494  83.1304156  30.0348134  94.2970613
  84.3296133  30.1174588  93.3772346  37.7606176   1.5452529  28.8578939
  36.9367575   1.3747645  29.3144274  38.4290098   1.4885665  29.5407319
   2.2026787 104.8557758   8.6438364   2.1305333 105.7137203   9.0621215
   1.3673363 104.4272995   8.8304979 114.1186523  84.4742393  25.7875109
 114.9512291  84.8367023  26.0903025 114.2854404  83.5362816  25.6945276
  21.3474535  13.3544207  35.2838302  20.5720209  13.4331179  35.8394766
  21.8612646  14.1385413  35.4772115  17.2769986  72.3077488  21.9091535
  17.5285874  71.3940525  22.0436573  18.0076943  72.8124523  22.2663426
  90.4888235  28.0104585  85.9215331  90.5993067  28.9579053  85.8417880
  89.5849596  27.8510137  85.6497830  54.2277050  99.9180222  53.5112810
  54.1380262  99.0596867  53.0972290  55.1704597 100.0835609  53.5176277
 102.2376823  66.4463758  53.3513260 101.5580082  66.2673378  54.0011120
 101.8001461  66.9797897  52.6878071  13.3349774 103.4971852  92.9223920
  12.9125283 103.7449974  92.0999828  13.5588048 102.5735945  92.8078818
  61.9331335   9.0151549  54.2052078  61.7782759   9.9243117  54.4615221
  62.7537989   8.7806178  54.6384859  90.0823498  86.1303616  31.6961026
  89.3684959  86.2578392  31.0712934  89.8222446  86.6391563  32.4640203
 108.7591553  58.5173845  44.7278547 108.9538002  57.8970718  44.0253210
 108.8850307  59.3783236  44.3288851  90.6698990  99.8006439  51.9829226
  90.8714867  99.8390961  51.0479784  90.2826309  98.9344120  52.1090126
  36.5478360  30.1753087  90.2821103  36.4732062  31.0951657  90.0281167
  36.0884653  29.6980233  89.5911646   6.1642418  79.7908926  25.2148128
   5.9209595  79.8069286  24.2891836   7.0586644  80.1313210  25.2333045
  64.5143032  82.7298832  27.9531074  64.7130442  83.4281731  28.5769057
  65.3617668  82.5016403  27.5710845   0.4617367 103.5642529  39.1681457
   0.7332287 104.1978645  38.5040259   0.4795514 104.0556049  39.9894190
  57.2322941  76.4117241  30.2287292  57.6903152  75.6679296  30.6201553
  57.9032755  77.0892668  30.1453543 103.7838554  85.6537056   6.5704429
 103.6010551  86.2048721   7.3313820 103.2452106  86.0242939   5.8713317
  26.9867884  34.1569467  87.6556724  27.7490889  34.5646043  87.2446441
  26.6729628  34.8110242  88.2801223   2.1738396  90.9038067  57.8410053
   1.5427170  90.9921455  57.1267891   1.6895352  91.1692715  58.6228037
  96.6600037  95.8398914  57.4399233  96.3378620  96.6079998  57.9115772
  96.4622116  95.1033020  58.0183268  88.7917805  94.8824215  34.3674612
  89.6785641  94.6424770  34.0986228  88.4898186  94.1382980  34.8883557
  15.3430497  10.6619926  94.6489436  16.2848173  10.5056520  94.5792034
  15.1972328  10.8351703  95.5789865  54.4194031  37.4862409  28.0031800
  54.8753834  37.3866272  27.1674824  53.5495472  37.1186733  27.8467107
  77.0979786  50.2721882  32.3731756  76.4077091  49.6929121  32.6959777
  77.8184032  50.1545286  32.9923487  77.2367144  67.1207142  61.1591578
  77.6581573  66.6163921  61.8550634  77.5800467  66.7441320  60.3488874
  76.8928957  78.7279558  48.0292511  76.4467430  79.0571070  47.2489691
  76.2733698  78.1094551  48.4163952  82.2392178  29.5783901   8.9168257
  82.4697018  30.2922988   8.3223176  81.2906742  29.6514845   9.0224820
  10.0223229 105.4296107  91.8714627   9.2122910 105.9258837  91.7540076
  10.0052998 104.7746939  91.1735889  68.3797693  67.6409960  32.6452374
  67.6675844  68.0117559  33.1663489  69.1652727  67.7929163  33.1707263
  10.8316193 103.6973000  26.6390419   9.9893628 103.6696053  27.0929766
  11.2125740 104.5381641  26.8921351   0.7991085  31.5429354  72.3810291
   0.4071579  30.8563185  71.8414354   1.6575966  31.1960459  72.6237249
  89.3708897  76.7583609  19.2575741  90.1039124  76.2417603  18.9228749
  88.7854195  76.8577766  18.5068583  29.2863916   1.8352175  37.2395325
  28.9041399   1.0878325  36.7795944  29.1791033   1.6258479  38.1673717
  47.8468500  73.2769342  92.5375765  47.7838599  73.2376523  91.5832594
  47.1369253  72.7147908  92.8478068  26.7836737  14.5589591  53.6402655
  26.4001345  15.0465537  52.9113054  26.5443873  15.0631571  54.4179249
 113.0377007 108.8652039  36.5433764 112.2977924 109.3660355  36.8868089
 113.0869579 108.0934238  37.1074295  99.1982365  87.6533985  46.8097019
  99.8065090  87.5326824  46.0805511  98.4137154  88.0266285  46.4078712
  13.6682295   6.2858630  26.2516999  13.8862108   7.1271849  25.8505869
  12.9486345   5.9461642  25.7196999  69.2542601  89.8494148  28.5057068
  69.7750711  89.3263626  27.8962779  68.3498716  89.5868015  28.3344054
  86.5236187  90.5965233   1.2387358  85.7347584  90.3541756   1.7237094
  87.0464039  91.0960102   1.8659815  23.3556627   3.2765055  70.1226377
  22.7756666   2.5539828  69.8822260  24.0795111   3.2203150  69.4988489
  93.1847000  67.6458120  39.2987704  92.2336578  67.6753807  39.4030523
  93.5167599  67.4686956  40.1788855  32.3577153  29.5201154  77.6271134
  31.4032685  29.5737214  77.5781792  32.5726162  29.8618455  78.4950214
  86.7465115 108.5962009  52.7625036  86.0717010 108.0077267  53.1009579
  86.4057541 109.4743729  52.9326200  80.7177353  90.0083065  36.3605261
  81.2786293  90.3192806  37.0711017  81.0921001  89.1630459  36.1123037
   6.9514714 107.2519207  20.8294845   6.3146840 107.4228668  21.5233970
   7.2936402 106.3802528  21.0278273  50.1285910  14.1605998  28.6989522
  49.5926832  14.9534274  28.6777687  50.2325987  13.9666224  29.6305037
  18.9322911  67.3107052  38.6285520  19.0125237  67.1570396  39.5699239
  19.1016636  68.2469130  38.5233974  80.8948326  66.2213373  40.1876736
  80.4229450  66.1087513  41.0128212  81.6758060  65.6759834  40.2820444
  89.1813469  76.7096663  55.5042887  88.5563374  76.7359304  56.2287951
  88.7839127  77.2548008  54.8252392  12.4993573  81.5001869   2.0344004
  11.6658745  81.6553307   2.4787807  12.4727593  80.5746365   1.7917418
 113.3170033  91.0587788  53.6778355 113.4536076  91.9905472  53.8492155
 112.7325153  90.7695484  54.3785095   4.6596407   3.1439162  17.2317004
   5.0449061   3.9970542  17.0318103   3.7197279   3.3141375  17.2935534
  98.7339783  97.4766731  32.5757384  98.6017799  97.9615784  31.7611098
  98.7516880  96.5580082  32.3074603  69.1809927  -0.0302653  90.9694797
  69.5401083   0.7428260  91.4049074  68.6645876   0.3214927  90.2443409
  23.7203083 106.5660381  33.0192232  23.3375988 107.1069241  33.7100172
  23.6530648 107.1029758  32.2296643 114.5370960  61.9717503   9.0612602
 114.1626549  62.5191689   8.3710718 113.9182091  61.2475586   9.1548002
  85.3736973 100.2856636  44.1158485  85.9113979 100.1019287  44.8861361
  85.1295853 101.2065887  44.2082882 100.3128529  70.8092594  11.2297189
 100.0829506  70.1934576  10.5338979 100.5040359  71.6277266  10.7716882
 106.2827015  92.0247936  24.6894169 106.3024902  92.3525238  23.7902856
 105.8975220  92.7395058  25.1964259  93.7102509  78.5240364  61.3243484
  94.2490768  77.7765465  61.5834951  94.3204308  79.2610264  61.2967777
 108.4537125 101.4293098  41.2916040 109.3494892 101.0919857  41.2960863
 108.5330200 102.3239708  41.6225529  64.7262859 103.3798981  25.1279235
  64.3363714 102.6252651  24.6866536  64.0138340 103.7449741  25.6526804
  63.1032133 100.5691719  31.0349083  63.4830093 101.4169979  30.8043146
  62.5779390 100.3266621  30.2723408  90.0929832  79.9806070  54.4985867
  90.6837463  79.7898579  53.7699938  89.2256165  79.7400665  54.1729355
  94.2943573  86.7620373  35.9177303  93.7737370  87.3460484  36.4692116
  94.0540695  87.0006943  35.0224447  80.8153439  86.8726349  40.8103609
  81.1536789  87.7678108  40.8308220  80.5613995  86.6918182  41.7153740
  68.6076927  60.4867363  51.5607023  69.3638897  60.9245872  51.9514561
  68.1344986  61.1846590  51.1076880  97.2216892  62.5990486  21.1045647
  97.6413536  62.3023415  21.9120765  97.9490280  62.7809048  20.5094743
  69.6709728  83.2414246  20.5608821  68.9411592  83.6339378  21.0399795
  69.4347668  82.3173904  20.4795837  85.8018303  85.7301235  16.3230789
  85.2121162  85.9372997  15.5981266  86.1455536  86.5787411  16.6022360
  92.7342987  54.3276358  17.1100187  92.4914646  54.6268797  16.2338269
  92.6081562  55.0946474  17.6685953  70.1209879 100.4873276  35.6789160
  70.4509306  99.6282101  35.9421492  69.7844553 100.8728027  36.4878583
  94.2266273  94.6463680   2.3371044  93.9656544  93.7261009   2.3721471
  93.4176445  95.1311302   2.5007400  97.1496391  87.1310997  64.5959997
  98.0334854  87.2400570  64.2450333  96.7257690  87.9757690  64.4440174
  59.4872046  92.9419994  45.5413485  59.4924450  91.9986153  45.7032919
  60.3740454  93.2276249  45.7608128  98.8998318 107.8339195  11.5518653
  98.8020897 108.7797451  11.4419138  98.2603836 107.6038074  12.2259545
  92.5770092  49.5502043  81.1883354  93.3726597  49.1825533  81.5730572
  91.8627453  49.1011286  81.6404343  44.1494440  13.9970542  59.9044323
  43.2987570  14.2879630  59.5758915  44.1042303  13.0414344  59.8731470
  92.8203583  94.6899223  65.8037472  92.7183437  94.7775650  66.7514515
  93.7161827  94.3733311  65.6875420 102.5280762  69.7455740  13.1859386
 103.0930901  70.0569057  12.4787831 101.6627502  69.6673155  12.7842987
  66.1360788  87.0537186  20.6948972  65.6193399  87.8207302  20.9416890
  65.5975103  86.3073730  20.9578490  96.3021088  73.3271980  38.7805462
  96.7344666  73.0407763  37.9760170  95.9291172  74.1809845  38.5611057
  72.3570442 103.3654404   6.3796413  72.1703863 103.8402939   5.5697608
  72.0676947 102.4700165   6.2043935 103.7313557  89.5140839  57.6192141
 103.7792206  88.5685825  57.7605295 103.6573696  89.6109104  56.6698027
  87.3973083  30.3218389  31.3243103  87.5770283  29.7743320  30.5600023
  88.1130791  30.9572387  31.3374090  16.7862854  80.8957291  57.2817373
  17.0401917  79.9962902  57.0749092  16.6399823  81.3053894  56.4290905
  90.3157330  65.2346087  39.1215324  90.3894711  66.1889267  39.1299391
  90.9900284  64.9368954  39.7322059  93.0560363  19.8230410  73.4255219
  93.9055551  19.5363570  73.0903244  92.9210771  19.2993689  74.2153263
  54.8935223  80.4363346  16.1438155  55.1947117  79.5302725  16.0762405
  53.9473677  80.3654194  16.2702882 104.7122955  64.7601318  22.4264097
 105.1772785  64.1677141  21.8355966 104.6703815  65.5893135  21.9500351
  83.2030773  79.4915199  53.5105371  83.5709667  79.9716663  52.7686834
  82.5032043  80.0564194  53.8381100  55.1947092   4.5912600  71.8884468
  55.4826616   5.3799201  71.4287329  56.0031580   4.1943789  72.2126722
   3.4667467  16.0018588  21.3405252   2.8271936  15.7679606  20.6678462
   4.2459463  16.2630034  20.8497190   2.6403212  19.1122103   4.8947692
   3.2448458  19.8333598   4.7195098   2.8114866  18.8721228   5.8054256
  18.3448481  21.3029052  23.2125759  17.4859690  21.4587832  22.8198099
  18.9407324  21.8635321  22.7157378  41.1592817 106.2140656  52.2366190
  40.7935286 105.6487560  51.5562677  41.7280388 105.6375408  52.7468777
  44.5769095   8.0698920  70.4082298  45.0069689   8.2861663  71.2355757
  44.4736170   8.9118434  69.9647331  21.0963713  72.6674504  80.8756739
  21.9515501  72.3082013  81.1119789  21.2200676  73.6162992  80.9003550
  40.9092878  -0.0540017  36.5070009  40.6303095   0.2964450  35.6610727
  41.1260771   0.7197905  37.0270801 113.6675132  32.8050853   9.9412233
 114.6017374  32.6237059   9.8384833 113.4065832  33.1971217   9.1078866
  87.1934700  82.2186375  44.5521450  86.3368130  81.8214512  44.3952560
  87.7677250  81.8141365  43.9018774  29.0529309  59.8250723   9.1792595
  28.1810055  59.7738838   9.5708627  29.5791016  59.2051744   9.6843415
  20.3954850  83.9614868  36.3530588  20.6273327  83.7224102  35.4556632
  21.1286793  83.6467361  36.8818116 114.5509720  78.0409145  52.7490091
 114.6360683  78.6099672  51.9840479 115.4521370  77.8769064  53.0269480
  66.1560129  18.4061862  54.1047859  66.5254568  18.2526351  54.9743652
  66.7330431  17.9257155  53.5111475  25.0312386 104.3078899  33.3548832
  24.5674477 104.9566174  32.8254700  25.7184849 104.8064995  33.7968349
  97.5373732  38.6822839  94.6274077  97.2463499  39.4865747  95.0571109
  98.2019125  38.9717050  94.0022253 114.4835377  95.8297443  66.3872957
 114.5115948  96.2110424  67.2648239 115.0883484  96.3653851  65.8739567
  91.3798237 107.1029186  47.5298691  90.7644749 107.7075577  47.9445934
  91.3805294 106.3337135  48.0995655  91.0209846  92.8423882  35.3851843
  91.2984657  93.6313438  34.9195814  91.7769337  92.6021004  35.9209347
  34.7309374  26.6268206  63.1841421  34.9256968  27.0674468  62.3570061
  35.2516913  25.8241606  63.1563473  63.8058281  79.1923857  32.3976135
  64.5713377  78.6197042  32.4451566  64.1395044  80.0076485  32.0231342
 100.0601101  97.1008110  59.5308971 100.9787464  97.3463726  59.4211435
  99.6542263  97.8669071  59.9365807  63.3963966  95.5484104  38.7674165
  62.9672909  94.7294712  38.5195708  64.2843390  95.2887440  39.0131021
 105.2557373 106.0720444  58.7047863 105.2421856 106.7294312  58.0091619
 105.8947468 106.4038563  59.3354940 105.9036446  61.0096979  35.6486726
 106.5409946  60.6912565  36.2879038 105.8820915  61.9571114  35.7834816
  94.3043518  87.0031166  33.0165339  93.8335991  86.5027905  32.3499775
  95.2208710  86.7521000  32.9016209  10.5769228   7.2831107  14.8861516
  11.4984583   7.5344134  14.8240519  10.5238699   6.7636252  15.6883681
  31.1677050   5.0303508  26.0558438  30.3908419   4.8555613  26.5870333
  31.8813013   5.0982047  26.6902041 104.7422123  49.5866585  31.3038421
 104.9757099  50.1822662  30.5918360 104.0260506  50.0282097  31.7603374
   6.3701878  76.0623932   4.9568763   7.1504269  75.6960678   5.3731245
   5.8209000  76.3478708   5.6869560  21.3834629  83.5674286  54.8761129
  20.7980786  82.8381729  55.0804567  21.0230408  83.9464951  54.0744686
  92.6547241 104.3189144  21.7770290  93.5383511 104.1264439  22.0907092
  92.6996326 104.1755676  20.8316898 104.7490025 109.2048740  28.8727880
 104.4371510 108.3339024  29.1185093 104.1091633 109.8051739  29.2555189
   3.0644379  82.8178024  22.8087115   3.4603367  83.5253811  22.2999620
   2.4045716  83.2518196  23.3494854  90.5380344  89.8487091  39.6481824
  90.0870991  89.3659687  38.9554715  91.3753700  89.3961239  39.7494698
 114.6220745  10.2862883   3.3095279 114.4373048  10.0308181   2.4057433
 114.0203155   9.7592402   3.8352010  41.2245440  28.8522959  71.6822815
  40.9769415  28.9822722  70.7668400  40.5886911  29.3682719  72.1779585
   2.9011498  93.8804245  21.0797310   2.3614560  94.5521545  21.4965558
   2.4697171  93.0551338  21.3011026 102.9231644  89.8851776  12.6558328
 103.1766987  90.2311993  11.8001366 103.7445259  89.5869064  13.0465090
   8.0815564  46.4726019  38.5944319   8.2005558  46.4440107  39.5437765
   8.9095841  46.1492348  38.2394123  84.4919300  64.6354961  21.0941458
  84.8355865  64.1446257  20.3477025  84.5068455  64.0106153  21.8190813
  70.7402611  87.3634338  38.9963293  69.8147345  87.6008320  38.9391279
  71.1154222  87.6605701  38.1673622  87.4000835  78.7834883  28.9315939
  87.0904350  78.0011463  29.3879843  87.7068424  79.3622732  29.6295428
 105.2812481  97.9574966  29.0120077 105.6098270  97.0738125  29.1774464
 105.7430649  98.5071754  29.6451068 101.7199516  73.4357977  13.0345261
 100.8972263  72.9833889  13.2207632 102.0978832  72.9527521  12.2996342
  51.9878279  27.1187253  93.5073945  51.7912089  27.9325528  93.9713527
  52.3654066  26.5471120  94.1759225  25.8503985   2.6272631  53.0221844
  25.1863836   2.3298217  52.4002171  25.7163405   3.5731650  53.0815554
  94.5338249  72.9553604  20.6522155  95.3746128  72.8505850  20.2068830
  94.7662830  73.1861734  21.5516138  26.2466883  16.9029761  32.1392608
  27.0443987  16.5715934  32.5516677  26.0699724  17.7292109  32.5890779
  24.8393797  10.1541091  53.5446453  24.3366121   9.5839835  54.1263771
  25.0630831   9.5976973  52.7985811  75.7544184  87.7436352  48.7505484
  76.1302710  87.8567791  47.8775263  75.5687332  86.8066120  48.8117790
 115.6574154  78.7558270  55.8126497 115.5279732  77.8658867  56.1405039
 115.6858063  78.6586571  54.8608160   6.2237320 103.9678288  66.5196323
   6.8635807 104.5131779  66.9772387   5.9739266 103.3024883  67.1608400
  92.7904762  42.0852900  30.9867978  92.1278681  42.7754069  31.0170841
  92.7436460  41.7473651  30.0924563  87.6169491  94.9762726  55.0934744
  86.8688488  94.8220062  55.6703424  88.3693409  94.6435738  55.5828094
  57.1405672   3.8407851  11.5902638  56.2369989   4.1501284  11.6542864
  57.1248507   2.9710723  11.9897485 106.4999390  85.5663681  28.8252807
 106.1872673  86.4424133  28.5994148 107.3761559  85.5188179  28.4428954
 102.0222759 101.6645908  17.4889898 102.8541183 102.0218468  17.7998674
 102.2713566 101.0148907  16.8316650  92.1716118 101.8959427   9.8043108
  92.8471565 101.8113041   9.1314769  91.7823410 102.7559662   9.6460205
  10.9025250 108.3207417  64.7869301  10.4371891 109.0989590  64.4802284
  10.3368912 107.9562187  65.4676819  91.4111233  92.3654747  28.2093883
  92.1252441  92.8762817  27.8281569  90.7789326  93.0207825  28.5045695
  90.6888485  68.4770870  28.9454627  90.4467678  68.7653351  28.0653811
  89.8530483  68.3528233  29.3951631  24.1499100  83.2380676  34.7797632
  24.3978463  82.6476383  34.0683174  23.1927452  83.2321739  34.7733259
  91.5674019  91.9045448  52.8827524  91.7119694  91.0746956  52.4281311
  91.0949898  92.4452782  52.2497749  43.0013727  39.8486186  57.5545454
  43.4471487  40.3443099  58.2414246  42.1621393  39.6021033  57.9433203
 108.1487907  20.4534388   5.9181035 108.5543789  20.1414633   6.7270541
 108.6969770  21.1884356   5.6433129  74.4511557 107.0880413  75.4190683
  74.5035601 107.9943657  75.1156425  74.3806982 107.1578979  76.3711119
 102.9936504  88.1466198   8.5832548 102.7852345  89.0789413   8.5234994
 102.4123478  87.8146267   9.2674261 103.2789707  75.1064253  27.1989536
 103.8521194  74.7593355  26.5153909 102.5973034  74.4421005  27.3001075
 104.0705013 103.3783817  25.9657335 104.6254444 102.7015114  26.3531852
 103.1780529 103.0532169  26.0842133 110.4874992  48.8157082  85.2999115
 110.1430702  49.3515968  86.0143566 110.2197933  47.9232883  85.5193424
  15.6964550  73.3802414  30.7811379  16.6047821  73.4614468  30.4902911
  15.3215084  74.2497540  30.6411743  34.4502997   6.8501139  43.9225578
  33.5260557   7.0153380  44.1088724  34.4553923   6.4920665  43.0348587
  30.9154295  12.2715903  57.5254774  30.3851866  12.8010035  56.9298267
  31.5840887  12.8743029  57.8508377  93.8099766  80.1744843  73.5142851
  92.8906059  79.9106407  73.4769964  94.0214348  80.1746273  74.4478369
  31.4809774   9.5894480  53.5295868  31.1338877   8.8988448  54.0942287
  32.2990107   9.2297793  53.1865120 107.2210026  45.4895067   5.8120036
 107.9087830  44.8887730   6.0988903 107.6931095  46.2275887   5.4265434
  30.4158388  76.5456624  83.6352271  30.5977665  76.3825746  82.7097350
  30.0566326  77.4326558  83.6560279   3.1890259 108.3080006  31.1130452
   3.2459507 109.2062187  31.4389133   2.8353749 107.8082371  31.8488455
  97.3546505  83.2523918  26.8546796  98.1198597  83.7708855  26.6059637
  96.6648960  83.8993073  27.0029449  34.0129446   0.4764605  68.3678198
  34.1365027   0.7822657  69.2664003  33.2626795  -0.1158857  68.4174299
   8.8590597  43.1149150  42.2023582   9.1396689  43.1367541  41.2874699
   9.4024443  43.7733222  42.6353264  11.6959725 101.7331791  42.6824522
  12.2196446 101.9489956  41.9108200  11.4318810 102.5818729  43.0377102
   1.8067990 108.4399033  51.4389181   1.2072525 108.9645767  51.9694710
   2.3756466 109.0821552  51.0144758  93.0305004  80.8095551  63.1023884
  92.7896118  80.9393501  62.1851349  92.4916840  80.0723648  63.3895302
  18.9852785   0.0625277  16.1446309  19.7508310   0.6165457  16.2970364
  18.3120703   0.6656409  15.8295608  89.7249603 101.2010002  47.7213860
  90.3357410 100.5475140  47.3805952  90.2310848 102.0131302  47.7439022
 113.0719055  10.4657317  24.6920133 113.9549221  10.4622317  24.3225503
 112.7847923   9.5543910  24.6349692   0.7023964  83.7906551  23.8411665
   0.6156979  84.1874790  24.7079086   0.0441227  84.2353821  23.3071947
  78.5298300  77.6778936  54.5324945  79.2619324  77.8567696  53.9423609
  78.8696527  77.8807306  55.4040480 108.2365538  99.7773957  33.6011982
 107.4638225 100.0673717  33.1164002 108.0255438  99.9564397  34.5175242
   2.4876009 103.3986908  47.1658516   2.0958792 103.5825687  48.0196524
   3.3156430 103.8788091  47.1738386   4.9174820 108.3396172  26.4519811
   4.1941677 108.5142125  27.0541167   5.0153338 107.3875185  26.4648461
   4.0701186 100.2793335  20.6314635   4.0430437 101.1406618  20.2147961
   4.8161780  99.8394435  20.2238846  80.0723076   0.4185030  23.5489678
  80.3183937  -0.3129426  24.1152358  80.1341057   0.0655643  22.6613593
  82.5200462   5.9700716  43.9061642  83.4106445   5.6404436  44.0262461
  82.6368046   6.8684620  43.5971451 105.9319044  74.7728776   5.1378530
 106.6474749  74.4031214   5.6550282 106.3565184  75.1132368   4.3503961
  56.3498259  26.5156436  29.6335578  57.0467091  26.4699364  30.2881551
  56.7107582  27.0645809  28.9374065  52.0656633  11.1062264  17.2293162
  52.6702023  11.8113446  17.4607682  51.8887329  11.2384951  16.2979555
  11.2966416  18.6029691  90.6371608  10.5025075  19.0570301  90.9189865
  11.1135266  18.3371157  89.7360372  30.4600859  21.0094571  37.9262233
  30.1299310  21.8660164  38.1973910  31.3540506  21.1802316  37.6297474
  97.8398300 106.0474797  58.3776426  98.2555748 105.2065482  58.5679626
  98.5148741 106.6977676  58.5717392  67.8770304  18.4280765  24.6225429
  68.3781195  17.6660073  24.9130416  67.0488071  18.0648029  24.3089986
  62.1237755   4.3473673  46.2602091  61.5916586   4.8037949  45.6084728
  61.7928648   3.4492132  46.2531519  56.6439629   4.6284628  14.8514020
  55.9605312   5.2946776  14.7784984  57.2345543   4.9639925  15.5258298
  65.9327936  40.7623816  38.4180927  66.4104843  41.4679956  38.8541579
  65.8880281  41.0342836  37.5014162  60.8973694  32.2855020  36.4854956
  61.5206432  32.9929399  36.6507030  61.0985804  31.9916415  35.5970192
  84.5764542  11.3779879  29.2744946  83.8828182  10.7959557  29.5848751
  85.3295803  11.1690342  29.8270988  39.3061148  93.0149972  38.6173773
  39.8618304  92.2741138  38.8592434  39.1583906  92.9069208  37.6778412
  69.5671415  39.2632437  25.6518817  69.3190622  40.1871634  25.6844902
  68.8938713  38.8162231  26.1648297  60.0354576  19.8268986  24.8672199
  59.6473932  19.7766042  23.9936590  60.4500389  18.9735961  24.9946213
  28.7093149 107.2848161  69.4203186  28.4364020 107.8654563  70.1306772
  27.9065310 107.1161189  68.9270544  51.9287764 109.7087626  31.7560387
  51.9747530 108.9008695  31.2447381  51.1173617 109.6289912  32.2575068
  33.9503837  13.8112879  32.6158118  34.0087843  14.5935798  33.1643033
  34.0099478  13.0815101  33.2323408 101.5393507  57.6890234  90.7902139
 100.6523335  58.0011920  90.9690699 101.4441359  56.7419422  90.6892010
  35.7757974  54.3556833   4.5031208  35.6403971  55.2582932   4.2146930
  36.5175056  54.4056368   5.1061153  31.1733710 107.7428027  19.9064732
  31.7778145 107.5746285  19.1835606  30.4439150 107.1422207  19.7534132
  90.5958092  69.8546106  90.3053292  90.2718889  69.9153692  91.2040037
  91.5292942  70.0552053  90.3731248  16.9937788  97.1871316  17.1181142
  17.7865969  97.7143764  17.0197129  17.1520459  96.4133834  16.5772843
  81.9913351  72.7588076  84.0117830  82.6299250  72.2751743  83.4878224
  81.1476338  72.5572473  83.6070961  68.1049156  19.4609487  41.8564987
  67.5268221  19.9483359  41.2695646  68.9349651  19.4049883  41.3830900
 101.4463961  65.4100663  90.2639067 101.9783509  64.6162552  90.2080259
 100.7129490  65.1675839  90.8291396  21.4458439  76.1829085  76.6962784
  21.4997456  75.4833621  77.3473996  21.7906258  75.7905835  75.8941299
  61.5777302  36.9363403  32.4056578  61.3833189  36.2921906  31.7248440
  62.4427176  36.6871691  32.7311516  62.0510101  11.7760944   3.6585724
  62.3800707  12.3759270   4.3280131  62.0923042  12.2790110   2.8451836
  71.0945845  46.3243437  39.8447418  71.1442566  47.2405529  40.1173687
  71.9815874  45.9880018  39.9725270  64.8896551  20.2037477  42.4118805
  65.1641130  19.6651971  41.6696739  65.6264591  20.7955885  42.5637865
  57.2477865  11.3550782   7.9728466  56.4101887  11.0977173   8.3581126
  57.8400421  10.6330943   8.1830925  38.9328146  39.1389012  52.8256226
  38.2579947  39.7754431  52.5896978  38.9130569  39.1123486  53.7822533
  99.9185658  99.0483689  12.2682858  99.0554906  99.3680131  12.5312686
 100.5267573  99.4791650  12.8689086 105.2093197 109.0770582  23.5740495
 104.5700861 108.5906088  23.0534935 105.9166265 108.4513994  23.7305689
  34.0485274 104.9483829  20.8491778  33.7654244 104.0394055  20.9484029
  34.1786801 105.0572323  19.9071360  67.7329540  24.8966575  54.8244286
  68.4262037  24.5876694  55.4076624  67.0719624  25.2636909  55.4114676
  53.9005947  32.0037413  18.0085504  53.4231615  32.8313303  18.0667293
  53.2610273  31.3821959  17.6608908  88.9385986  40.5682325  17.2027957
  88.9394188  39.7102237  16.7784715  89.6011829  41.0705805  16.7285955
  82.3906422   6.8500423  50.5123281  81.7572212   7.0183688  51.2099457
  81.8614292   6.7940295  49.7166967  45.5809784  28.0953288  26.6153812
  45.3724146  27.2574067  27.0284438  46.4993858  28.0136180  26.3583136
  10.1467692  87.8217434  27.7436519  10.9665333  87.3825001  27.5172043
   9.4678770  87.1737861  27.5552702  54.0659571   9.6118301  53.3868313
  54.9548817   9.6181881  53.0318642  53.7806702   8.7020820  53.3019733
  28.0753313 106.6606992  44.3532944  27.1615397 106.4380654  44.1753864
  28.5324656 105.8197396  44.3463373 101.3712598  91.5572750  36.4557886
 101.0464502  91.6917776  37.3460913 101.4215017  90.6061768  36.3602972
  12.1137893  27.2083306  33.6606336  11.4130735  26.5830898  33.8458514
  11.9551134  27.4855328  32.7582979  67.9052305   6.4289784  17.2441661
  68.2111263   6.9477713  16.5001822  68.6884499   6.2880671  17.7760887
  35.4213119  28.4982300  33.1898236  35.8076262  28.3483315  32.3269653
  36.1723804  28.5805035  33.7774944  92.1746218  72.5037128  87.5505394
  91.7937004  72.5527984  86.6737711  92.5807202  71.6376991  87.5871068
  90.1786613   9.9869639   8.2584673  89.6071815   9.7432894   7.5302762
  89.5822811  10.3144121   8.9317697  13.2538735 107.7323056  17.4325979
  13.6677347 106.9727876  17.0226216  13.9559399 108.3792275  17.5020480
   5.4158102 107.3189551  47.7101183   6.1542498 107.8083622  47.3475981
   5.5771290 107.3059269  48.6535358  93.6197006  74.9307341  71.2796956
  94.2255890  75.5325932  70.8473760  93.8828575  74.9458737  72.1998864
  22.4373852 103.7442761  24.0731239  22.5004469 103.0469226  24.7257733
  22.8004967 103.3593624  23.2754850  43.5065222   6.2301892  56.5981865
  44.2367458   5.6380206  56.4183474  43.7033892   7.0152891  56.0872173
  24.4387555  36.1219716  21.0877085  24.9321151  36.2375069  21.8997931
  24.3540907  35.1733613  20.9917927  47.3008919  27.1072841  35.6222296
  47.5694609  27.7802801  36.2476730  46.4161158  27.3625112  35.3609633
  65.9572649  16.3082159   4.0529329  65.9740400  17.2097993   3.7318456
  66.3660955  15.7974768   3.3541936  30.8752847  21.0972166  68.6236620
  31.5264726  21.7968845  68.6751604  31.1659145  20.5529118  67.8918839
  79.8074484  16.4982557  59.5431185  80.2056408  17.3684323  59.5214701
  80.1910114  16.0406590  58.7949800  60.9258461  30.0123763   6.5240514
  61.5381432  29.4155812   6.0937524  60.2584028  29.4395065   6.9016373
  63.9432383   3.0448204  40.0567198  64.6718216   3.6280203  39.8439479
  63.6523151   3.3310452  40.9225559 116.0967470  88.1407189  12.1929228
 115.5758501  88.9257097  12.0235527 116.9161368  88.4717392  12.5606966
  15.8258986  53.0044985  12.7375638  16.4881182  52.7169943  12.1090436
  15.1522160  53.4225702  12.2012818 103.5661328  65.9641213  73.2983595
 103.5257447  66.8945140  73.5196501 102.7051747  65.6228096  73.5402065
  92.8369677  89.7828717  92.3677736  91.9867432  89.5702237  91.9828945
  92.6515829  90.4956669  92.9791549  36.7349625  13.3623934   5.2312601
  37.5166154  13.3197176   5.7821059  36.6447139  14.2904711   5.0150269
  41.9269562  35.8434772   8.1293350  41.2942410  35.8925557   7.4127489
  42.7086210  36.2786007   7.7888954  53.6373234  20.3159714  23.5716343
  54.1879034  20.6891036  24.2600155  54.2571020  19.9377906  22.9478693
  82.9477894  75.1169843  88.7558472  82.1657574  75.6670732  88.8012659
  83.3422625  75.1892514  89.6249848  62.2240435 101.3084566  35.7269669
  61.2875925 101.4593720  35.8555198  62.6479517 101.8587451  36.3855386
  61.5977812  21.4814758  26.5264392  61.2440729  20.9390473  25.8215332
  61.0153675  21.3194752  27.2685838  40.3636551   6.0310394  15.0952244
  40.4360628   5.0779939  15.1471221  39.9285984   6.1929584  14.2581236
  46.0509859  92.7042317  27.0903850  46.8042265  92.1894335  27.3799396
  46.3074194  93.6130058  27.2472405  35.2724171   1.7641237   7.8248876
  35.6394243   1.4330491   8.6445999  35.3623343   1.0355100   7.2106653
  25.0778770   4.4235054  27.8128147  25.6063342   3.8905516  28.4068918
  24.5891953   3.7871975  27.2907662   9.8107121  57.6300341  67.3077947
   8.9356873  58.0030457  67.2009545   9.9236653  57.5516868  68.2550746
  99.1339588  11.1607003   8.7531352  99.0167236  10.6098437   9.5271152
  98.2449055  11.4056373   8.4965867  23.6869465  98.3361649  28.0546355
  22.9747235  97.7037453  28.1495738  24.4832074  97.8219747  28.1880927
  44.8903275   4.4877335  39.6747756  45.3908539   4.4614276  40.4902601
  44.3354654   5.2631235  39.7592139  28.6329066 109.9298736  22.7855921
  27.9704033 110.4143442  22.2930384  28.5175883 109.0200935  22.5113058
  56.1721659  18.8945532  55.5508757  56.9225693  18.7747037  54.9688387
  55.4540920  19.1415226  54.9681187  67.6223516  26.1049175  24.6771073
  67.1206331  25.2966356  24.7828841  68.3942842  25.8436894  24.1749930
  43.9405537  23.4244299  18.6748195  43.0691004  23.4368157  18.2790291
  43.9508200  22.6285768  19.2065549  75.3616333  25.2517176  55.6109571
  75.6563044  24.5336294  55.0508213  76.0616064  25.9021783  55.5545998
  63.1981754   6.3785207  26.4864588  63.6223269   6.7493016  27.2603130
  63.2834339   7.0581567  25.8178353  49.0003777  12.1495867   7.6937538
  49.8512745  11.8000603   7.4291164  48.4597635  11.3744116   7.8456539
  86.3024342  89.4604987  93.3844737  86.2060606  89.3407435  94.3292504
  85.7764160  90.2352804  93.1863622  82.4371529   1.8780737  23.4310699
  81.7981052   1.2211968  23.7074041  81.9096375   2.5798398  23.0496526
  17.6791165 100.2856726  94.9507799  17.5441239 101.2242216  94.8198969
  17.6427338  99.9133057  94.0697287  45.9821606  29.2327118  30.1880836
  45.0299072  29.1772318  30.2678561  46.1297369  29.5520663  29.2978787
 110.2004982  71.8679117  16.5534246 110.1354671  71.7003059  17.4935901
 109.3025852  71.7841696  16.2325358  17.5859867 100.6476926  34.7466016
  18.1343495 101.1061405  35.3832769  17.0687615 101.3393711  34.3339396
  64.6464014   4.0856504  21.2115884  65.2876329   4.3993753  20.5739164
  64.1194773   4.8569196  21.4207029  98.9802647  28.3690119  36.0989046
  99.4070244  29.2215323  36.1844540  99.4118118  27.9593015  35.3491497
  33.1640625  41.0535955  12.3897266  33.7065196  40.2717209  12.2865605
  32.2704005  40.7176924  12.4587727  -0.1402844  97.8737878  19.3918562
   0.5825387  97.7479588  20.0066137   0.0225674  97.2360133  18.6969066
  61.3582993   3.6721149  22.7400637  61.9185448   2.9231864  22.9436898
  61.2805605   3.6607063  21.7860937  41.7118216  25.5053592   9.8607922
  42.5345421  25.5583858  10.3471613  41.0426569  25.7683516  10.4926789
  29.6325278  13.0427992  28.9112163  30.1591015  12.7603316  29.6589875
  28.9539599  13.5997069  29.2928362  74.1781044  17.2660136  21.4416409
  74.0407705  16.3377154  21.2528777  75.1284361  17.3775733  21.4161396
  84.2640316  75.2723879  94.1297095  83.6260664  74.5593316  94.1017130
  84.5684254  75.2859372  95.0371184  72.9691206 104.0852373  35.7323575
  72.8506075 103.4320980  36.4219904  73.4005724 104.8194432  36.1694217
  74.4250250  28.5319781  14.1922045  74.9809694  27.7948666  13.9395618
  74.4727135  28.5513663  15.1480186  69.0044022   5.2140719  30.7724667
  69.5805454   5.5203009  30.0721025  68.1668425   5.0500387  30.3390837
  57.7592087  20.6014132  32.0373702  56.8883181  20.2151942  31.9445467
  58.2844639  19.9126923  32.4448061 115.0302231  72.1680874  83.0260616
 115.5532086  72.3043365  83.8160950 115.2858412  71.2991399  82.7165133
  27.6617789  36.4122891  14.9030066  27.1902585  35.8318067  15.5004513
  28.2666421  36.8953848  15.4660261  33.0867815  19.1202152  42.6704121
  32.1579385  18.8933182  42.7151632  33.4673500  18.4587443  42.0926094
  56.2114334  34.0261173   3.1098649  56.8981504  34.4344068   2.5826597
  56.1642551  34.5642781   3.9000481  67.7160072  27.0545864  14.7560525
  66.7930126  26.8023300  14.7300339  68.0905628  26.6749239  13.9611971
  75.2186155   6.9047862  22.7906466  75.2307510   6.0676330  22.3266864
  74.2893267   7.1175945  22.8764963  45.4582119  23.7946343  13.6013246
  44.7003555  23.6294556  13.0404329  45.5466127  24.7477055  13.6099505
  67.1268702  48.3472729  25.2281189  67.8278112  48.4340715  24.5820689
  66.3339996  48.6038828  24.7572255  55.1383686  35.3238893  41.3422966
  54.6010113  34.9285436  40.6558704  54.9530315  36.2610126  41.2816429
  78.5866463  71.7806084  94.1248210  79.0652430  71.0043961  93.8338426
  77.6731097  71.5937681  93.9085545  24.6104275 109.3300507  21.9751859
  24.9387442 108.8337436  22.7249336  24.3151270 108.6620236  21.3565040
  68.1554079  29.6358085   1.2990882  67.4629831  29.2129946   1.8070276
  67.7758265  30.4707980   1.0253353  52.6654196  18.6158919  25.4740286
  53.3121490  17.9234850  25.3378582  52.8347874  19.2433918  24.7713256
  74.5774746  29.1934657  39.2999578  75.2600098  29.7969007  39.5936298
  74.8905230  28.8707018  38.4549379  50.9892035  20.5194807  22.2622132
  50.6180382  21.3300705  21.9137692  51.8341064  20.7808971  22.6283145
  82.9158652  64.1020489  84.9174124  83.2296812  63.6831499  84.1159922
  81.9659245  64.1463018  84.8083764  54.3535982 109.6519683  23.8103652
  54.2289912 110.5759699  24.0269923  53.8758646 109.1795831  24.4921684
  91.7228615 107.7177424  90.2574330  92.4153912 108.2848782  89.9183237
  92.1875107 106.9660467  90.6252453  62.8695726  32.7193952  30.7379770
  63.7513733  32.4074984  30.9413886  62.3135138  32.3177457  31.4055920
  19.1615330 109.2520365  54.2366934  19.3135296 109.6981840  53.4035778
  19.4876372 108.3632576  54.0954208  75.8910608  21.8843865  57.3463869
  75.7259130  20.9770250  57.6026154  75.3080034  22.0329499  56.6019392
  80.4024315  13.7479055   6.8718624  80.9198570  14.2342901   7.5136805
  80.4407310  14.2824066   6.0787213   0.6284115  77.9846424  75.0999266
   0.7594798  77.4143571  74.3424135   0.8387158  78.8615078  74.7788244
  46.8471795  60.8766002  91.1634084  47.6030123  61.3711477  90.8465934
  46.1090410  61.2175727  90.6583139  61.1379957   4.9253091  17.7443361
  61.2202311   4.1429406  17.1990204  62.0265436   5.2779627  17.7927959
  79.9000323 103.7721581  91.1198097  79.5579493 102.9443688  90.7822031
  79.2116225 104.4101805  90.9320396  39.0169144  20.9028697  20.8076954
  39.4622898  20.0650311  20.9337974  39.2804861  21.1847734  19.9317431
  15.8449017  96.2256228  29.3540859  15.7449614  96.1565792  30.3035474
  15.7702147  95.3247725  29.0392518  58.6758757   5.2127767  34.2467880
  58.4033108   5.0590670  33.3421826  58.4944344   6.1404991  34.3972588
  93.9607906  30.8891702  13.7164807  94.0392590  29.9907255  13.3957386
  94.6095848  30.9507275  14.4175529  19.7048937 105.1980304  41.3449621
  18.7711083 105.1269230  41.1469126  19.9292122 106.1011400  41.1206722
  53.8342142   4.5997325   3.4592104  54.2912722   3.8156399   3.1550214
  52.9223585   4.4595855   3.2040426  97.8931582  59.4888953  93.9905727
  97.8125965  58.7287033  93.4145082  97.3759234  59.2600972  94.7628121
  80.2986050  19.0959203  28.0972958  81.1657143  18.9726067  27.7111006
  79.8343563  19.6515238  27.4711847  80.5998230   6.5518695   1.5697382
  79.7042513   6.2484217   1.7184015  80.7431984   7.2150296   2.2449376
  71.7943764  22.6238155  19.2579329  70.9618187  22.1682668  19.1332138
  72.1874237  22.1998763  20.0208354  73.8870144  10.5303144  55.7271433
  72.9485035  10.6891406  55.8281279  74.2300129  10.5455160  56.6206503
  42.7036762  55.9147406  15.1647329  42.2950029  56.0496521  14.3097365
  42.0464849  56.2121439  15.7939267  96.0781765  18.7786746  19.5943880
  96.6361046  18.0433512  19.8478448  96.4808464  19.1208887  18.7962794
  85.1424789  54.4782829  45.1771688  84.2380333  54.6360445  45.4479694
  85.4661655  53.8218498  45.7940578  83.3172035  51.4987564  43.7951946
  82.8734112  52.2358322  44.2147255  82.6084232  50.9156704  43.5233879
  80.9887886  15.1661730   4.7936225  81.3385868  14.8323774   3.9675155
  81.7581367  15.4749882   5.2721286  72.6542234  25.8186603   8.4934419
  72.3707819  25.0714254   7.9666287  71.8656158  26.0957837   8.9598459
  79.2866659  16.2800634  14.0121901  79.2538643  16.9539201  13.3331656
  79.2251968  16.7657137  14.8347461  58.9765787   1.6207986  27.3222613
  58.4879351   0.9174275  26.8947911  59.6586370   1.8553594  26.6929698
  43.6877918  48.6057949   8.4111732  43.7436676  48.2669544   9.3046486
  43.0136776  49.2840052   8.4539402  66.9555902  10.2955770  33.5523796
  67.2771692   9.6141517  32.9620576  67.1360016   9.9573338  34.4294643
  62.7970982  42.9869556   2.4417171  62.6321507  42.7728176   1.5234751
  63.6769199  42.6504755   2.6118112  67.0018196  10.1205814  22.6071310
  67.0229578   9.3362772  23.1554508  66.5872622  10.7858121  23.1565309
  83.6347353  83.6585588  91.0183516  84.5657313  83.7338561  91.2276748
  83.5736906  82.8708524  90.4779589  75.2695524  71.1095352  80.2437371
  74.5161521  70.5248994  80.3263324  75.9466469  70.5712218  79.8338693
  21.3318703  71.2524826  88.6551475  20.9271309  70.4905445  89.0697175
  20.6083081  71.8644971  88.5205471 103.8230383  44.2082197  92.5221804
 103.6229670  43.2810957  92.6511922 103.1018555  44.5363993  91.9851297
  55.9245491   5.1698756  42.6171303  55.2184296   5.4496247  42.0345783
  56.1401796   4.2844975  42.3241425  16.4635823  39.7263545  73.5136300
  15.9754059  39.3613715  72.7755886  17.0289204  40.3917021  73.1212860
  74.6247864   8.4320819  26.1581349  75.5193758   8.6094278  25.8674669
  74.3448114   7.6849413  25.6293368  12.1448456  78.7317895  21.4720750
  12.6865851  78.7027120  20.6834650  12.6367222  79.2834186  22.0803475
 100.0098145 106.0635037  92.8653158  99.5010626 105.6666369  93.5723537
  99.6321308 105.6991572  92.0647901 112.8361320  28.1163406  38.5480309
 113.1997776  28.9519095  38.8409758 113.0488777  27.5028181  39.2512822
  44.4287920   0.8535709  28.4235024  44.6510172   1.2405203  27.5766754
  43.8330984   1.4852001  28.8265252  63.0900431  16.4037728  39.8513079
  63.3414459  16.8465924  39.0407920  62.1367359  16.4842176  39.8824239
  34.0098882  13.5173094   2.0714594  33.5766625  14.3595493   2.2099414
  33.7492847  13.2562876   1.1881784   3.5587632  79.5229124  44.6021175
   3.2171856  79.6524214  43.7173653   3.7908589  78.5948872  44.6357918
  13.9738629  91.5958304  53.7377006  13.1154511  91.9775862  53.5543424
  13.7860749  90.6885809  53.9782649  52.3739004  25.8381176  28.6267829
  52.8132010  25.6975770  29.4655299  52.9821634  26.3816237  28.1259346
 109.8694670  67.2939307  84.8292905 109.5905220  68.1986517  84.6882170
 109.4602072  67.0434934  85.6575525  18.0359674  39.0771961  38.4245777
  17.5587249  39.2008877  37.6041055  18.0424953  38.1292653  38.5572982
  97.5471210  49.6839190  20.1422071  97.7872181  48.7713051  20.3025889
  97.9987049  49.9110842  19.3293691  68.8838720  36.3275647  31.6998744
  68.2044935  35.7875633  31.2960482  69.4541645  36.5781403  30.9730959
  66.6788626  19.3348777  17.8635919  67.1694565  19.0843630  18.6464024
  67.2779608  19.9003887  17.3762393   3.2457516  12.8411335  75.7768172
   3.5719273  12.1016020  76.2895852   3.2903931  13.5862774  76.3759857
 111.2696887 107.8786589  12.1594751 111.8535710 107.8208698  11.4031851
 110.8002354 108.7038117  12.0371306  23.8165461  91.4293122  66.5807915
  24.3399273  90.7068693  66.9277525  23.6173235  91.1702406  65.6811094
  45.0488268 101.4312106  17.7353442  44.7893034 102.3500311  17.8035235
  45.4906069 101.2449985  18.5638297  82.1870232  32.0330620   3.1637904
  82.1207619  31.3001919   2.5516292  83.1146431  32.0667958   3.3975050
  93.5668146  97.1720118  83.9444881  94.1526854  96.4253277  84.0687698
  93.2587635  97.3840041  84.8256212  75.8018160  15.0876582  41.3272476
  74.9942541  15.4729962  41.6672325  75.8908558  14.2609406  41.8014240
  34.6513438  11.1711073  34.9374413  33.9990997  11.5915799  35.4978108
  34.1375327  10.6421208  34.3271923  76.2798309  26.3403082  19.3927562
  75.4781914  25.8895183  19.1274309  76.5626049  26.8084097  18.6071658
  69.4243288  43.7981176  20.3627038  68.7233877  43.1901503  20.1275611
  69.3926334  43.8421297  21.3183665  77.1875620  24.2779183  23.6023283
  78.0946684  24.1368365  23.8734150  76.9191599  25.0704432  24.0671897
  76.4974117  11.2838781  23.5465908  76.9764900  12.1033418  23.4233165
  75.7240915  11.5323889  24.0530038  52.9335642  66.7561430  83.5553318
  53.7323808  67.0232755  83.1006211  52.9371953  67.2660035  84.3654328
  44.7624016  16.2723482  17.3779070  44.6974850  16.9012630  16.6592383
  45.4633665  15.6769633  17.1125698  18.8030373  85.5085754  22.3979354
  18.5795628  85.6115150  23.3229733  18.5050284  86.3204693  21.9877529
  52.1553503   0.4822297  90.5118406  52.1864401   0.2712626  91.4449850
  53.0148302   0.2237649  90.1790869  55.0566435  26.1849403  35.3048587
  54.1281271  26.3821673  35.4281235  55.3041410  26.6769791  34.5219970
   6.0422108  75.2598042  88.9683151   5.2856324  75.5873865  88.4819877
   6.5590642  76.0417456  89.1623652  46.3612986  25.5712843  10.1557744
  46.1473179  24.7483873   9.7161305  46.8543720  26.0698009   9.5041686
  35.8488213 108.2712179  75.7287407  36.4022480 107.8362527  75.0800848
  36.4222037 108.9205515  76.1359644  53.5805082  40.5500889  12.8209221
  53.8671494  40.4078722  11.9187891  52.7681494  41.0495472  12.7381992
  77.8236818   6.3251984  14.2323160  78.6589766   6.1521995  13.7980449
  77.8685093   5.8235466  15.0462985  92.8333950  31.5434837  17.3786736
  92.1610641  30.8825469  17.2132373  92.7462101  32.1608400  16.6523814
  71.2719631  31.6807365  29.7658443  70.8219051  31.9412208  28.9622140
  71.7828178  30.9109354  29.5155120  23.6968446  30.3518081   7.3568088
  22.8694892  30.4844570   6.8940818  24.2759132  31.0313797   7.0117033
  53.0123663   7.3390502  14.5089173  53.2275820   7.7719802  15.3350437
  52.2662926   6.7777300  14.7199225  73.2955647  49.7188187  37.8282857
  73.2635880  50.2885389  37.0597625  74.1139030  49.9529886  38.2661462
  46.9998503  55.3783417  30.8218169  46.7582846  55.7504654  31.6699934
  47.8779936  55.0225019  30.9577370  38.3053337  84.1669797  30.2207470
  37.6057612  84.0794753  30.8681798  37.8621231  84.0835141  29.3764544
  65.5400705   3.1590369   6.6349220  65.0641298   3.8862938   7.0359337
  65.6551743   3.4225488   5.7219356  57.6671124  16.8407083  48.5369253
  57.8566694  17.6189899  48.0129242  58.3239031  16.2010038  48.2619095
  94.9907970  35.4857230  52.7481794  94.4750977  34.9413657  53.3431292
  95.2010250  36.2669134  53.2598209  94.2336655  28.0335450  22.4792886
  94.5092201  28.7263846  21.8790603  93.3004856  28.1946421  22.6187968
  49.5833670  79.2270731   2.5285736  49.0880572  78.5387658   2.9725698
  49.0109335  79.5128226   1.8166056  35.7325909  88.2657761  86.4586812
  35.2481816  88.0963773  87.2666931  36.4935944  87.6874227  86.5099185
  59.3126583  38.7938523  48.5673809  60.2019358  38.7696886  48.2140589
  58.8523531  39.4252753  48.0145168   6.7737376 108.3892692  12.0578897
   7.0448147 109.2855829  12.2563064   7.5774943 107.9529422  11.7753637
  38.2012725  17.8893816   5.3185117  38.7484646  18.3328044   4.6702912
  37.9996037  18.5660267   5.9648186  98.7849915  23.9762897  88.2177192
  97.9553997  24.4106240  88.4161109  98.6984217  23.6998052  87.3054176
  60.2440310  35.2244544  44.1037321  59.4671345  35.6069589  44.5116043
  59.9075079  34.7564054  43.3395910  47.6087046  53.1357288   2.7115631
  47.6526594  53.9963770   3.1281984  46.9376421  52.6645470   3.2054198
  37.6512801  90.1377427  38.1169844  37.8734385  90.0726294  37.1882033
  38.4960638  90.1240002  38.5668564  58.0438614  53.5643530  16.4906430
  57.4642658  53.2112122  15.8156681  57.4513769  53.9059258  17.1603584
  40.4659986   0.7408929   7.4867505  41.0264683   1.3102251   6.9595277
  40.6292391   1.0136149   8.3896387  44.2020702  12.5881851  45.1632595
  44.2918777  11.7163789  44.7783947  43.9226437  13.1436408  44.4355059
  36.9241892 105.1983070  24.4330192  37.4983441 104.4877070  24.7187257
  36.2087714 105.1985734  25.0689459  64.3408251  33.1641531  25.4731441
  64.2423105  32.9455495  24.5464611  64.5432281  34.0996933  25.4783320
   0.8968995  80.2869934  82.5701850   0.2713368  79.7514409  82.0822435
   1.6975520  80.2570290  82.0464569  43.3440113   6.5860289  24.2676115
  43.9428711   7.3326939  24.2768693  42.4953651   6.9625264  24.0346193
  38.4774923   7.9547048  71.7464924  38.7801886   7.9151469  72.6537085
  37.9858565   7.1428353  71.6224241 108.4029257  54.9502551  91.1995107
 109.3043387  54.8467891  90.8945879 108.4204685  55.7442564  91.7338198
  89.4548702  15.2178407  18.7217057  89.7465801  14.6203709  19.4103026
  89.2104053  16.0180366  19.1866302  20.4852078  79.6597118  92.7637191
  21.2347958  80.2253622  92.9491742  19.7243474  80.1745290  93.0325830
 110.5514337 104.5140832  12.5311875 111.1146403 104.9710142  13.1558824
 109.7162915 104.9795952  12.5766349  94.0035629  30.4452062  21.1182666
  94.3203926  31.1856031  21.6356277  94.4743729  30.5144358  20.2877378
  72.4590575  72.5264770  91.9913617  71.5967023  72.9248936  91.8737179
  73.0680239  73.2648415  91.9768432  95.0316715  14.2687166   0.8742957
  95.5256748  15.0738144   1.0292591  95.4403591  13.6223781   1.4500192
   9.4451128 102.3395669  37.3769689   9.5384680 101.4225834  37.6351476
  10.3017317 102.5767928  37.0217848  14.9388062  96.7341172   8.7542456
  14.8318373  96.3044535   7.9056120  14.0573393  96.7508482   9.1270322
  67.7686167  26.5856695  11.8165827  66.8708134  26.7952180  11.5591574
  68.3102989  27.1922922  11.3117838 103.0971682  82.6571507  83.8555532
 103.7304795  81.9681043  84.0564650 102.6040184  82.3187060  83.1082314
  77.9559994   6.6316253  23.6902928  77.7079630   6.0994846  24.4462943
  77.1242046   6.8629599  23.2769680  77.6940012  32.9001212  17.1285021
  78.1886768  33.6945605  17.3294926  77.8702736  32.7361608  16.2020707
  72.7184473  82.4428057  21.1012125  72.6308333  81.9649982  20.2764368
  72.3454653  81.8557786  21.7588735  68.1614971  15.9776437  36.4165092
  68.6692667  15.3084707  35.9575868  68.6682987  16.1625552  37.2071981
  16.7316401   5.9435612  21.5900040  16.4647222   6.8072331  21.2752676
  17.5173187   6.1106420  22.1106052  70.7437706  30.8714485  21.4913702
  70.9414768  30.3868604  20.6899214  71.1595297  30.3627968  22.1875381
  76.1624193  39.0699387   5.2342033  76.8742085  39.6204019   4.9077439
  75.8929491  39.4871736   6.0524529  42.3505783  25.5829167  22.0103335
  43.1221294  26.1362338  22.1318913  41.8145943  26.0558248  21.3736939
  32.4049317  29.0633340  72.0467430  32.0052182  29.8167176  72.4813396
  31.7100178  28.4055944  72.0202929  88.7492847  18.7751257  48.4178257
  88.4501362  18.3211601  47.6300097  88.3447647  19.6409488  48.3635187
  38.8128948  23.6652374  55.7721758  38.7478662  22.7215505  55.9186649
  38.4277439  24.0564418  56.5563011  28.2194458  98.3480548  14.3534446
  27.8655087  98.3401083  15.2427697  27.5180661  98.7216627  13.8198566
 116.0131323  98.4777493  92.2432384 116.0425341  97.5641770  91.9590613
 116.1845839  98.9816803  91.4476940 101.6806042  83.6601824  86.3173574
 101.6550314  84.6127838  86.2272000 102.1929610  83.3621353  85.5657655
  23.2997261  99.1742288  45.6424713  23.0724274  99.9436414  45.1203871
  22.6956068  99.2012619  46.3844585  45.4238176  48.3698463  34.9126792
  45.3130007  47.4195480  34.9424863  44.7447729  48.7085819  35.4961109
  65.1685095  31.2098122  31.5936828  65.2210379  30.5456519  32.2809696
  65.7794619  30.9077954  30.9215569  53.1049204  12.6239324   4.5929146
  54.0090656  12.4118662   4.8248079  53.0952692  13.5778439   4.5142317
  59.6886396  19.4738173  39.5250988  60.2978659  19.9820161  38.9895558
  60.1433659  19.3565392  40.3591871  27.4222994  21.8706870  18.1228101
  28.2466292  21.8963218  17.6369536  26.7999578  22.3352981  17.5632930
  57.8584337  36.3958001  19.3373060  56.9050741  36.3418865  19.2707264
  58.0481911  36.1685538  20.2475715  50.7138586  28.6938429  42.6736069
  50.3754044  28.0508971  43.2967424  51.6149235  28.8500643  42.9562902
  43.9368439   3.8291228  50.4106712  43.1316805   3.9960876  50.9006310
  44.5784426   4.4277167  50.7931232  51.0779476   7.1794403  10.2558756
  51.4877319   6.3388127  10.0517809  50.2691650   7.1822017   9.7439241
  59.0721178  26.6503429  16.3561893  58.4503126  26.9250202  17.0300889
  59.8832369  27.1076250  16.5780246  26.2923323 106.6821625  30.9410071
  26.5885388 107.0097169  31.7902446  25.4271637 107.0739239  30.8217072
  30.7488036  27.5565863  20.6260109  31.0210395  27.4596167  21.5385461
  29.8318005  27.2822022  20.6191874  71.8960428  15.3967094  24.4905066
  72.8206110  15.6354451  24.5569253  71.7791080  14.7073817  25.1442552
  90.5890465   7.3149937  45.2763510  89.9078751   7.7734792  45.7683134
  91.3846779   7.4426675  45.7929802  54.6558523   9.2052478   6.8300998
  55.1841068   8.7633258   7.4948454  54.5530367   8.5553730   6.1348855
 109.3611490  76.6699571  87.3396128 109.1873610  75.7330102  87.4299472
 110.0150931  76.7261762  86.6428846 106.9880688  82.4010414  60.1658112
 107.1200001  81.8450493  59.3978935 107.8707754  82.6666493  60.4237062
   2.5280259 107.6585335  69.6574312   3.1065247 107.4805493  70.3989821
   2.0340941 108.4352631  69.9200159  31.5095353   6.0872829  44.1846132
  31.3345051   5.6826466  43.3349895  31.0404539   5.5379921  44.8126888
   0.7125733  72.7983445  85.0809723   0.8490155  71.9321567  85.4648143
   1.2618849  72.8021807  84.2970902  51.6802645  31.2332630  27.7461219
  51.5261602  30.4136968  27.2762370  50.8904076  31.3601756  28.2717156
  91.9983303  48.8797123  91.8732327  91.7729389  48.3412093  92.6318139
  91.7323267  48.3540452  91.1188131   6.7637799  68.0524403  92.5644082
   7.5668690  67.5640578  92.3834330   6.5842126  68.5272903  91.7529249
  89.4839775  72.2868032  51.0061246  89.6905148  73.0987555  50.5431920
  90.0594055  71.6323251  50.6101781  18.2700417  70.6354088  92.3028534
  17.4438737  71.0737056  92.0989436  18.8689206  71.3467843  92.5298384
 104.4387924  37.0764119  82.6746326 104.2492592  36.3205046  82.1188336
 105.1794588  36.7979593  83.2132512  16.0614382 101.9700842  11.0036755
  16.2024914 102.1829157  10.0811577  15.1102101 101.9828283  11.1096871
  41.7912817  22.9352188  21.9391036  42.5182056  22.5729752  21.4325571
  41.9470739  23.8796544  21.9398856   0.9110854  93.1599826  89.8008382
   0.9681676  92.5383396  90.5264643   1.6458771  92.9316491  89.2314726
  85.9442329   2.4739835  40.4526424  86.7142773   3.0324435  40.3459644
  85.4325390   2.9003462  41.1401129  94.6107674  60.3745461  28.3836150
  94.3172359  61.1025810  27.8358603  94.4960785  59.5995855  27.8335977
  78.1570101  13.4108007  16.7589307  77.8233624  12.6594996  17.2492981
  78.4192133  14.0388322  17.4320257  56.0165548  32.1004963  25.9172678
  55.8388329  32.7744031  26.5733910  55.9912205  31.2778306  26.4059496
  82.7748203  17.8551102  31.3232517  82.9842567  18.7863231  31.2510610
  81.8482399  17.7992046  31.0897040 112.6079465 102.9750954  11.5791678
 113.0504371 103.7726169  11.8696773 111.6835667 103.1296068  11.7737973
  51.5312338   9.8418844  35.8795547  51.1605549   9.0644825  36.2972546
  50.7780313  10.2877581  35.4921126   2.9545246 107.9088976  39.5871544
   3.5386788 107.9379011  38.8294220   2.0791374 108.0304182  39.2195129
  17.2560488  87.5405311   5.0105625  17.9221522  88.1952285   4.8010191
  16.9415127  87.2377323   4.1587344  87.2511673  24.6143436  31.0193300
  87.8401375  25.2190232  31.4706707  86.6359711  25.1814461  30.5544019
  78.1632710  31.1665368  19.8049927  78.5484266  31.9118762  20.2658153
  77.3289204  31.4963698  19.4713688  80.4734802  46.7736292  15.1406610
  79.6075678  46.4124489  14.9510038  80.5157661  47.5783062  14.6240032
  89.5948994  64.0059513  95.0358774  88.6700308  64.2509610  95.0644874
  89.5946705  63.0558181  95.1519745  62.9816341  25.9891772   0.9522566
  62.8867769  25.6000471   0.0828825  62.1308136  26.3904738   1.1291780
  13.2358300 110.0011357  56.1572361  13.9937722 109.5501835  56.5292501
  12.5205075 109.8068705  56.7628813 111.7383015  61.8137181  92.9458448
 111.6950524  61.0276008  92.4014362 111.4653074  62.5231988  92.3641729
  75.7202959  21.7947650  11.5294445  75.6038284  21.1478019  10.8336663
  76.4792347  21.4825892  12.0221794  67.4820614  33.7384748  12.2949004
  67.7282810  34.5168638  11.7951834  67.0156288  33.1877875  11.6660774
  62.4782467  13.0143476  41.4691257  63.1090546  13.2410192  40.7857943
  61.6236210  13.1735790  41.0685110  54.2729855  31.6751289   7.1385717
  53.4553957  31.1845374   7.2227830  54.4187689  32.0486856   8.0077291
  60.6904793  23.4037590   4.9892914  60.1610804  23.4706807   4.1946274
  61.2132835  24.2055368   4.9970290  23.0039774  84.3544983  37.3391700
  23.6238467  84.5156931  36.6278243  23.1744705  85.0550412  37.9687786
  49.3342543  31.4588928  29.5176482  49.2846775  30.5052710  29.4514728
  48.4525204  31.7603302  29.2987680  59.5807505  16.4863718   1.0655846
  59.0424347  17.2284687   1.3407937  59.7179365  16.6245115   0.1283924
  32.3444210  99.3638038  22.4550605  32.8789984  98.6080312  22.6985002
  31.6284167  99.3653237  23.0903268  35.2368723 108.8392831  18.4570086
  34.3648182 108.6376930  18.1177163  35.6605326 109.3295924  17.7524948
  55.7684231  29.2240191  48.1813431  55.8480215  29.1672707  47.2291470
  55.0346327  28.6477494  48.3951187  79.0480375  33.6348677  20.9464049
  79.5318604  33.1678581  21.6276193  79.1177225  34.5572138  21.1926866
 100.5958176  51.3032532  29.3220425 100.9660625  52.0751476  28.8938689
  99.6585083  51.4883184  29.3806267  96.9891226  61.4040614  90.6261271
  96.6014158  60.8921326  91.3359463  97.0646393  60.7863117  89.8988622
  61.3154554  40.1553774  27.0778394  61.8729067  39.6046352  27.6275301
  60.4816818  39.6869898  27.0370245  90.4953289  28.7864137  11.9768393
  90.8608055  27.9252696  11.7741299  91.0907555  29.1512299  12.6315260
  73.1667519  65.4887438  29.7385645  72.9074192  64.7942448  29.1330433
  74.0914679  65.6424141  29.5448923  46.5871382  25.8101177  -0.0943942
  46.5078497  26.0724497   0.8227349  46.6422558  24.8549151  -0.0663821
  82.8162670  30.8080459  36.6325402  82.1565247  30.1665330  36.3690400
  83.5739899  30.6125975  36.0812736  76.8324232   7.6382560  31.3795042
  76.6619635   8.5155839  31.0367632  77.7191067   7.6887029  31.7365551
  87.0697212  49.2267418  24.2488503  86.5966034  49.0316820  23.4399414
  86.3900471  49.5050526  24.8626971  67.6521778  10.4907048  18.9728451
  68.1463289  11.0341346  19.5866299  68.0220938  10.7009101  18.1154013
  68.1236601  44.9772215  35.7069397  68.8681364  45.4255199  36.1082053
  68.3944225  44.0604496  35.6574702  73.8180685  43.3818913  25.9122944
  74.1934109  42.7692604  25.2798104  74.2980289  44.1976500  25.7694483
  70.3515148  36.6048694  11.2446880  71.0517931  36.2025499  10.7309020
  70.7623196  37.3659325  11.6548765  40.1993942  46.8424273  28.0897212
  40.6097507  47.1054935  27.2659254  40.6711292  47.3359966  28.7606120
  68.6586748  95.8904588  38.1585217  68.9275729  95.0960004  37.6972628
  69.4508635  96.1870837  38.6064839 115.8363438  17.0773447  47.1171236
 115.1778698  17.7466404  47.3033667 115.4272652  16.5154898  46.4589405
  98.3382034   6.9416767   3.1173214  98.5026646   7.7190810   3.6510137
  98.8873291   6.2621391   3.5083836  94.9985182  63.4252799  89.5866686
  95.5542767  62.7137513  89.9046176  94.1527283  63.2756496  90.0091475
  60.5783939  27.1868944   2.0904641  60.8132362  28.1147075   2.1059753
  60.0344515  27.0644689   2.8685230   6.1665140  79.7179269   3.0723670
   5.2482449  79.7512149   3.3405244   6.6473566  80.0732302   3.8198853
  88.9242172  44.1962624   8.0804032  89.3944263  45.0299835   8.0739743
  88.9999294  43.8716555   7.1831131  43.5131918  27.5724645  84.8119885
  44.1786848  27.6678891  85.4933429  44.0124499  27.4882550  83.9996606
  53.6684084  35.2257299  50.4540396  54.2424822  35.2740979  51.2184572
  53.3379173  34.3274069  50.4591608  92.3603916  41.2861156  28.4387231
  93.1844139  41.3822126  27.9612494  91.7075253  41.1199713  27.7587247
  68.5928154   1.1226159  51.5076017  69.3161011   1.2842204  50.9018183
  68.0211973   0.5129482  51.0409260  38.2588135   8.1632276  94.1127569
  38.5813843   8.2923932  93.2208514  37.3256813   7.9787965  94.0056106
  76.6127253  57.5825548  48.5969162  77.2640753  57.8139639  49.2590523
  76.1642170  56.8183565  48.9589548   2.3651478  65.0659639  81.7557519
   2.9010651  65.1435072  82.5450605   2.8616307  64.4785923  81.1858994
  17.4206005 101.3284390  15.9864378  16.4705120 101.2120884  15.9916878
  17.5773083 102.0468663  16.5992475  81.8494701  94.2334557  32.1332955
  81.9237137  93.4306049  31.6173935  81.5218735  94.8862648  31.5146279
  81.4805984  31.5870261  39.1147304  81.5115356  32.2528386  38.4277320
  81.9314003  30.8318782  38.7368870  50.4927254  39.1671371  25.9465456
  49.7496700  39.7164369  25.6967974  50.0949097  38.3598709  26.2725806
  88.9088058  45.4858351  32.4333024  89.2824173  45.2914381  33.2928705
  88.6619663  44.6309376  32.0805311  15.0532124  84.1148729  85.8513021
  15.4227135  84.4912333  86.6500854  14.1459344  84.4197649  85.8403218
  26.1170959  24.9932957  27.5659299  26.6130924  24.4335723  28.1633663
  25.3168726  24.5003200  27.3846841  95.5329418  42.2732353  15.7409894
  95.7013893  41.3500357  15.9295738  94.8748875  42.2595263  15.0460029
  83.1715870  42.7579069  46.7157841  84.0192795  43.0929756  47.0079708
  82.5553131  43.4644127  46.9088888  75.2188540  54.7564745   1.3241249
  74.8702335  55.3911066   0.6980742  74.9046183  55.0620508   2.1750730
  24.9778019  19.9790711  80.0334090  24.9165570  20.0944705  79.0851670
  24.4005476  20.6519218  80.3943544   0.8760903  88.8036007  81.9612413
   1.7163632  89.1052074  81.6159779   0.4790089  88.3202929  81.2366897
  60.0431776  34.3617773  49.5977020  60.0237560  33.4221411  49.7791862
  60.3702497  34.4256926  48.7003899  55.5379391  24.5191860   1.1749323
  56.1789274  24.6165371   0.4707412  54.6971416  24.4404268   0.7242751
   6.7868958  29.4276977  37.9062462   7.0510540  30.1715302  38.4476924
   6.6440068  29.8027706  37.0372629  85.4315472  34.2904472  30.2934289
  84.8127556  34.7971869  30.8193088  84.9920368  33.4527230  30.1475453
  58.5071278  35.7292151   1.5624505  58.3934927  36.5670967   1.1138166
  59.0180349  35.1979089   0.9517795  93.4061146  17.7384710  20.4021096
  93.9840508  18.4324133  20.0848293  92.5499821  18.1586313  20.4841781
  86.5085030  58.4325981  17.1255088  86.5473843  57.8816795  17.9073060
  85.6985378  58.1705475  16.6878760  89.2092609  51.6011143  39.2912221
  89.8686504  51.0378695  38.8860154  88.4077454  51.4240694  38.7988067
  78.0758142   2.9022339  33.6706185  78.7203693   2.9924116  34.3725109
  77.6277971   3.7477759  33.6467719  95.3755009  98.4216685  77.2642034
  94.5829260  98.1931586  77.7498311  95.3223288  99.3707699  77.1519178
  41.3072634  37.6912355  24.4628167  41.7411089  37.5176167  25.2982020
  41.9798374  38.1107640  23.9262795  72.7809525  18.4307289  16.2764990
  72.8941345  19.1742682  15.6844079  73.1447124  17.6858711  15.7978547
  62.8609705  33.4608793  18.8812423  62.5492954  34.3552136  18.7424874
  63.3751297  33.2623005  18.0986559  97.7974892   6.3066137  38.1454468
  97.8163624   7.2082454  37.8246117  98.5424232   6.2496817  38.7438416
  84.7795296  37.4805021  27.6010776  84.7826481  36.7929435  26.9351292
  85.4599380  37.2169662  28.2206154  77.6479244  20.4366469   6.7750114
  77.0900965  21.1604118   6.4900136  78.5392427  20.7776713   6.7009073
  83.9245701  49.3943357  30.7104254  83.2268429  49.1947603  30.0862670
  83.6491966  48.9678717  31.5219259  85.0541973  25.6025958  40.8615971
  85.3313541  24.9227905  40.2473688  85.7505608  25.6309080  41.5177345
  71.6082608  85.5477351  78.7929159  71.4636576  85.4693193  77.8499561
  70.8142507  85.9683818  79.1228252  78.8408279  47.5038910  24.9858904
  79.5803499  46.9315147  24.7816229  78.0851221  47.0690060  24.5909071
   6.2581883   5.6839365  34.1909528   6.8295060   6.4517438  34.2082429
   5.4747830   5.9787285  33.7266231  80.7054710  49.3179703  31.7806315
  81.2994480  48.5938835  31.9784188  80.3366470  49.5637751  32.6290298
  54.8558044  21.4041209  45.0327969  55.0723791  20.5499244  44.6590662
  55.4366875  21.4890027  45.7888412  73.9582907 105.8545812  28.7184215
  74.5126902 105.0804325  28.8162065  74.1015040 106.3547739  29.5218706
 102.8495979  20.1016092  49.7907782 102.8354931  19.2073488  50.1318502
 103.7213039  20.1979613  49.4072723 109.6018898  82.4607748  72.5002748
 110.5166018  82.6794595  72.6783639 109.2301857  82.2664804  73.3606916
 111.9755173   6.7558265  46.7120934 112.5841618   6.8650573  47.4427509
 111.8873787   5.8078098  46.6134644  82.6910305  10.8886909  44.5938444
  82.5581741  11.6312349  44.0046024  82.1809578  11.1075306  45.3736973
  17.0631586 102.6881605  32.9271269  17.8033720 103.2539665  32.7076316
  16.5783058 102.5989794  32.1066403   2.9890130  43.7309355  84.6127933
   2.2137425  44.0488357  84.1500479   2.9557774  42.7797980  84.5104915
  57.8117644 108.3273394  32.7891564  58.1884943 109.0274678  32.2561216
  57.5753485 108.7540907  33.6127019  81.8914604   1.4758898  12.3355138
  82.6509285   1.5629323  12.9115975  81.2001324   1.9718863  12.7740073
  37.1955845  82.3713488  71.0507351  37.5634263  83.2449359  70.9174472
  37.7722428  81.7903871  70.5545765  95.6260204  56.4895773  25.5919480
  95.3182697  56.5306759  26.4973903  96.5804386  56.4765978  25.6637383
  61.8879652   9.1028416  14.2579138  62.6817465   9.5114756  14.6031153
  61.2901497   9.0720814  15.0048447  62.8547096  20.4593706  14.2296135
  62.7408981  20.3303123  13.2880068  63.6672783  19.9983811  14.4380617
  77.4605322  43.6893225   3.5615250  77.2795486  44.1281700   2.7303272
  76.6049337  43.3826256   3.8617164   8.6882660  39.2991406  83.8878482
   8.7790177  39.0480859  82.9686266   8.0887196  40.0451929  83.8743084
  51.5236746  12.7593989  79.2044335  52.2577273  12.7000375  78.5929817
  51.7796217  13.4463115  79.8199624  88.2298183  23.1142163  12.7261221
  87.4692154  22.5596213  12.8997517  87.8650093  23.9011860  12.3213601
  65.1061916  41.7903280   3.8042819  65.4391909  41.1796856   4.4618961
  65.5615473  42.6119852   3.9880455  58.7779951  30.8205509  26.2528992
  58.9088774  29.8825979  26.3919973  57.9308319  30.8813000  25.8114767
  63.9402533  26.7771053  18.7123430  64.2106152  25.9998393  19.2012167
  63.9556265  26.5010285  17.7959490  58.3824110  48.9572668  21.4691615
  57.6496172  49.5273161  21.2361574  58.6862707  48.6039495  20.6330585
  66.9289684  27.8724098   7.5741136  67.3008728  26.9992471   7.4496049
  67.6622391  28.4028387   7.8858668  71.8155670  22.0345926  39.6569395
  72.7379704  22.2864890  39.6127820  71.7495203  21.2667799  39.0891933
 103.6974621  42.1313334  28.6025500 103.4148407  41.3134670  28.1933403
 102.8922462  42.6386166  28.7050509 104.2503452  11.7418110  14.1760385
 104.9603939  12.3828769  14.2089975 103.4841061  12.2468710  13.9039505
  77.5094973  33.4800191  90.9909239  76.6233050  33.8081403  91.1433300
  77.7510821  33.8317437  90.1340949  64.7245979  17.9982769  22.3042130
  65.5657387  18.4333122  22.1647406  64.2495346  18.1265998  21.4831877
  78.2770157  28.3793283  23.9867473  78.8877058  28.7844419  24.6025133
  77.8071022  27.7287769  24.5084691  89.9239731   7.9355830  19.9018419
  90.5946445   8.0701250  20.5714130  89.1490269   8.3793223  20.2465010
 105.4218209  95.3061766  64.8956114 105.0826132  95.8627505  65.5966073
 106.1011517  94.7788710  65.3159529  86.6310883  33.4645438  39.5701909
  87.1773624  34.2464757  39.6501899  86.1372185  33.5991240  38.7613559
  89.4126320  29.8114181  27.0961380  90.0725460  29.2987275  26.6293550
  88.7758541  30.0517440  26.4230871  80.7151127  36.9243765  15.4958141
  81.2889957  37.3742723  14.8757541  80.0229645  36.5482402  14.9520361
 106.7908192  42.8535891  47.2087765 107.4244118  43.3215475  46.6648960
 106.3139820  42.2953987  46.5945435  92.7928162  26.3753319  12.9475474
  92.6111889  26.5829849  12.0309651  93.2892799  25.5576301  12.9140425
  87.9443836  17.4850273  58.5599184  88.8420677  17.6777959  58.2892799
  87.6487350  18.2843399  58.9957190 100.3785992   5.3515458   4.2011225
 100.4843807   4.6991253   4.8935032 100.8230972   6.1303526   4.5359558
 113.5515129  91.9385070  91.8742874 112.9814207  91.3965911  91.3288045
 113.5300123  92.8011579  91.4600396  28.1716511  66.2383766  87.2394460
  27.3685906  66.6083283  86.8727624  28.8536999  66.4769787  86.6116655
 107.2929478   7.9583496  15.1192987 107.6562119   8.4942842  14.4142878
 106.3533974   8.1401467  15.0985670  51.0956287  28.9481163  31.2590981
  50.4584217  28.3139849  31.5878510  51.0731697  28.8393331  30.3083658
  61.9656420  45.6041574   1.8608896  61.9990444  44.7410536   2.2733945
  62.5706339  45.5400133   1.1219023  57.7336979  20.6079912  37.7203298
  57.4410629  21.4740038  38.0042672  58.4122038  20.3658891  38.3506012
  91.5686893  62.8217602  11.8396282  91.0645485  63.2788372  12.5127947
  90.9687138  62.1572733  11.5009177  91.4730740  49.5642567  20.9430909
  92.0927238  49.2165327  20.3017235  90.9907341  50.2407598  20.4677701
  89.4771290  66.2117004  16.8200874  88.6364841  65.9012604  17.1565056
  89.2777157  67.0592356  16.4224029  71.6998482  66.2023592   5.0538337
  72.6077509  65.9958363   4.8318151  71.1791134  65.6476688   4.4729844
  71.7011249  93.6221856  90.2546465  71.3939345  94.0478582  91.0550639
  71.6771710  94.3124527  89.5919335  81.6005230  70.8602285   6.5775847
  81.4925003  70.0860023   6.0251892  82.5238419  71.0945082   6.4836967
  36.6731763  41.5450621   3.9064723  37.5886273  41.7681789   4.0750045
  36.5724468  40.6621361   4.2621756  57.6470757   4.2934611  36.6155744
  58.1571245   4.7591680  35.9528518  57.4311161   3.4554839  36.2064457
  79.3052149  68.2219362   2.7082694  78.7302780  67.7971315   2.0716968
  80.1858330  67.9390478   2.4618526  70.7039928  26.7867422  50.3842545
  70.5762482  27.3287702  51.1627913  71.4189816  26.1951804  50.6189489
  99.6485996  23.3592296   3.0892137  99.6567917  23.8335109   3.9206111
  98.7305832  23.1221771   2.9577398  64.2893505  32.7138591   7.3223156
  64.4089031  33.3314729   8.0437678  64.5389938  31.8657470   7.6892155
  59.2997633   9.3008895  84.8996037  60.1591002   9.4882817  84.5219165
  59.2313658   8.3463950  84.8774069  50.9292746   0.8280633  19.7461867
  51.5644884   1.5441029  19.7413981  50.3133059   1.0496506  19.0478194
  51.8481445  44.9005222   7.3644036  50.9481001  44.5959568   7.2486663
  51.7802715  45.6117916   8.0013657  76.9523096  19.2478466  44.2845583
  76.0192347  19.3922675  44.1272497  77.2541094  18.7692583  43.5124826
  88.4994602   5.1579398  11.5448880  89.0142632   4.8666188  12.2974467
  88.9262199   5.9664416  11.2612879  85.2489090  37.8284454   9.3393296
  85.6052780  38.0837488   8.4884173  85.8833599  38.1609869   9.9742472
  81.1634159   9.7628039   2.0451942  82.0773697  10.0454533   2.0772673
  80.8972359   9.9152631   1.1384755  94.7375774  50.4586983   6.3668263
  94.9206829  49.7983646   5.6984967  94.0408707  50.0742531   6.8988365
  62.3461151  54.5009708  17.1597743  62.9035187  54.6992731  17.9122424
  61.7154741  53.8614798  17.4907851  79.7241831  42.3511600  43.8137197
  79.3281841  42.0005465  44.6115208  80.6667519  42.2643757  43.9560747
  91.9509315  20.0827575   3.7800395  91.0312366  19.8575914   3.6396661
  91.9323635  20.7476068   4.4684166  53.1198263  39.3832517  39.6875048
  53.1631041  40.3391409  39.7127032  52.4514914  39.1566253  40.3341913
  77.4119043  33.0138850  49.9163532  78.2193804  32.9249477  50.4226208
  77.6700735  32.8138137  49.0165997  71.2088823  50.6197166  53.3004379
  71.6859865  49.8278522  53.0523443  70.2999020  50.3334665  53.3901453
  91.7266178  80.9158707  26.3910174  90.8846474  80.6196594  26.7368054
  91.8893623  80.3480244  25.6378245  85.6596756  60.6770802  11.4290237
  86.1100483  61.0290670  10.6612360  86.3065815  60.7322311  12.1323740
  21.1492239  93.4796058   7.1538717  21.1389767  94.0677666   6.3987601
  20.3714024  92.9330026   7.0422894  72.0736408  25.7186294  13.8889039
  72.9946423  25.4794621  13.7850261  71.9472027  25.7790565  14.8357904
  85.9941673  49.2392206  47.5506639  85.7130623  49.4583225  46.6622925
  86.9497204  49.2145920  47.5003004  88.2402039   8.7166178  39.0636945
  88.8168430   8.6384803  39.8237062  88.8355923   8.8035458  38.3192492
  95.3927624  58.5747558  91.5564921  95.0265658  58.9415321  90.7517525
  95.1602137  59.2078263  92.2357374  48.0192995  47.3242807   2.9706445
  47.9125500  47.2101593   2.0262864  47.4207830  48.0368042   3.1949610
 102.0515644 100.3021855  91.6944140 102.5392687  99.6450848  91.1978274
 102.0975315 101.0921854  91.1558795  33.0452035 103.5723490  90.9012118
  33.4812710 102.7915854  91.2424975  32.1189568 103.4356589  91.1002439
  91.4329636 102.0203633  86.8628943  92.2025549 101.4983029  87.0896536
  91.6816246 102.4769921  86.0592228  89.0772629  19.6691215   3.4043777
  88.8368511  20.4227161   3.9433810  88.8817596  19.9433756   2.5083899
  17.5944506 102.8268837   2.0081612  18.1214844 102.0299750   1.9498037
  16.6891466 102.5159984   2.0061626 101.6618919   7.7492535   4.7683632
 101.8088913   8.6653936   4.5331773 100.9661770   7.7792281   5.4251069
  83.5277557  51.1580563   7.7363104  84.0423775  50.3517199   7.7013433
  83.0351067  51.0924864   8.5543716  52.2273970  38.7792993  23.5604787
  51.5762806  38.1872845  23.1839204  51.7258596  39.3443155  24.1482282
  80.7893288  86.8269271  94.2630332  81.7332089  86.8554730  94.1064629
  80.6464493  85.9949297  94.7142504  66.5017891  13.3695793  11.6815066
  66.2837267  13.0458188  10.8075154  65.6696939  13.6841846  12.0348871
  50.1155996  34.1536307  44.5676327  50.0474167  34.8801255  45.1871395
  50.7188368  33.5387301  44.9850512  60.8538961  43.2603550  27.0003057
  60.8548117  42.3048019  27.0564461  60.2376795  43.5394716  27.6775098
  91.4691771 107.7166075  12.8388929  91.8641759 108.4313484  12.3395407
  90.5271471 107.8254705  12.7086627  93.5058117  52.1920681  37.9162621
  94.4031811  52.0245504  37.6283216  93.5589504  53.0176306  38.3977771
  72.8329659   7.4638659  16.4728367  72.8773642   6.5483850  16.7487991
  73.7295485   7.6807165  16.2172103  87.7214241  57.3247242  11.2013483
  87.5359058  56.3931847  11.0828376  87.8168488  57.4314260  12.1477854
 112.1530151  44.9660349  20.5699015 112.7378178  44.9724054  19.8121405
 112.1783257  44.0623283  20.8843899 114.9257052  89.7182388  93.9871554
 114.5968973  88.8500614  94.2203567 114.3011105  90.0449104  93.3395448
 106.1095333  79.3711615  37.1912789 105.6927109  80.2114582  37.0005155
 106.3374615  79.0163183  36.3319969 107.3410892  51.7623997  11.1964273
 107.8720379  51.9721699  10.4281032 107.4569130  50.8199835  11.3175583
  24.8591219   9.9717183  75.3982180  24.2784725   9.4495149  74.8446995
  24.3743025  10.0829787  76.2160224  93.0652332  58.8260841  10.8884454
  93.3070850  59.7521639  10.8992743  92.2224998  58.8039064  10.4350901
  64.6106625  13.8542533  47.7292299  65.0816917  13.0218840  47.7682686
  64.8305988  14.2926979  48.5511923 109.8935318  47.4930000  31.2874961
 109.8192501  47.6592779  30.3477812 109.1215324  47.9129601  31.6668010
  86.7587948  79.8725748  24.6121740  87.6602650  79.8739910  24.2903256
  86.2432098  79.5368147  23.8789153  93.8906777 103.1070179  92.0404807
  94.4520771 103.0458350  92.8133428  94.0059769 104.0055174  91.7312184
  83.2965767  86.5538258  93.1573099  83.3039534  85.6038970  93.0397758
  83.8799155  86.8842334  92.4740961  87.0248413  59.3032789  32.3677516
  87.4910450  58.5032558  32.6103354  86.9983959  59.2843628  31.4111042
  98.7059498  24.0342855  25.8143878  99.3623638  24.7249436  25.9057355
  98.2727051  24.2241645  24.9822354  91.3866901  22.2696066  37.2071600
  91.5819263  21.6010928  37.8638244  90.6620884  21.9031024  36.7003465
  79.7416162  27.9418635  27.5673556  80.2092838  27.2696447  27.0717263
  79.1280079  27.4522138  28.1150436  57.9396915  40.4854059  31.0966110
  58.4483433  39.8862290  31.6429543  57.0908022  40.0549078  30.9951735
  77.1736145  19.8967373  20.2493954  76.3861322  20.2801442  20.6355333
  77.1590376  18.9827693  20.5334425  76.8099833  51.5069771  10.9048629
  77.0689297  51.7375708  11.7970538  76.1291885  50.8435154  11.0169697
  50.8631216  86.4893936  13.0620408  50.7935797  85.8912849  13.8061237
  51.2816511  85.9699892  12.3755383  40.9083319  54.3996668  37.5512552
  40.1699162  54.0728140  38.0652046  41.4304161  54.9034357  38.1756568
  89.5646667  48.1070232  23.1003833  88.9757538  48.6335897  23.6408806
  89.6073055  48.5751915  22.2665763  76.9986677  19.2098558  17.5799680
  76.9377708  19.8706388  18.2698143  76.2986565  18.5886788  17.7808440
  75.8941447  11.0464664  88.0018449  76.4709460  10.8981271  87.2524959
  75.3030669  10.2935643  88.0018574  55.6330191 110.0911747  10.6187904
  54.7281252 109.9798563  10.9103560  56.0850989 109.3098515  10.9372163
  96.6114807  35.0305772  13.9747477  97.4191380  34.5250678  14.0663183
  96.0658646  34.7451091  14.7075760  20.0952504  73.6429507  86.1404639
  20.8118317  74.1509992  86.5207642  19.4303296  74.2950434  85.9193647
 112.6909733  10.4992688  34.9132824 111.7410088  10.5087996  34.7962642
 112.8228855  10.7652533  35.8232737  18.3866011 105.7951903  11.5001893
  17.7084099 106.2851914  11.0352314  18.4212147 106.1983501  12.3676538
  88.6262894  73.9557838   4.4870698  88.3554363  73.9938498   3.5697782
  88.2959557  74.7692823   4.8682976  84.2523753 104.5047241  24.3142796
  84.8629843 105.1895400  24.5870686  84.5896612 104.2055582  23.4699035
  59.0938711  24.4149089  12.5777578  59.7823000  24.1371226  11.9734943
  58.8417053  23.6143422  13.0379057  79.8211348  90.4744882  79.0354258
  79.3498051  90.9244818  79.7365564  79.3803560  89.6286268  78.9550096
  75.0515413  32.7696633  14.6317899  74.1896248  33.0788326  14.9106264
  75.3567219  33.4350991  14.0151131  74.0399837  52.3997164   2.5977856
  74.6693754  52.9006004   2.0789249  73.4355927  53.0575609   2.9415566
  87.1158028   8.3393246  16.2887001  86.2357903   8.0169839  16.0939980
  87.7005005   7.6793545  15.9161317  19.4190108 102.6270067  26.9592595
  19.3016468 101.9317519  27.6066208  20.3552805 102.8241890  26.9866276
  66.6174889  13.0784082  32.5576305  66.7865276  12.1700561  32.8077388
  67.4803209  13.4317315  32.3410368  81.7841589  89.0643758  90.9119275
  82.0242226  88.2332725  90.5022084  81.7561495  89.6893067  90.1874208
  57.6197863  61.0265970  20.1281023  56.7109346  61.2339687  20.3454018
  57.7070570  61.2694168  19.2063344  88.4696400  79.9432701  91.1890864
  89.4029152  79.7559089  91.0884759  88.4416353  80.8112830  91.5915778
  74.1527700  15.9245992  15.7291436  74.9553967  16.4351356  15.8357799
  74.2191219  15.2335739  16.3881671  98.3409405  20.3334975  32.4853516
  98.1009865  19.4075179  32.4504232  97.5063610  20.7993174  32.4331236
  82.7569866  49.8230696  27.3630238  82.4006653  49.2794132  28.0656648
  81.9888306  50.1100969  26.8692803  66.8301916  42.1074104  32.0741224
  66.9586992  42.2998524  31.1453152  65.9036970  42.2900391  32.2306061
  61.9048977  17.1137357  12.4263203  62.7054358  17.1350944  12.9506409
  61.3985443  16.3882613  12.7917278  52.2054672  11.1443126  39.1232085
  51.9017839  12.0106721  39.3941903  51.6974115  10.9477842  38.3361316
  48.3336054 108.1862465  26.4727640  48.5894381 107.2723367  26.5974808
  48.7232100 108.6475195  27.2155094  82.4191189  38.6980748  38.7873173
  83.2635593  38.6067462  39.2286897  82.1688557  39.6100354  38.9353943
  87.6497746  76.1266518  25.1674938  88.3902931  75.5389833  25.0174594
  88.0240154  77.0051861  25.1015401  54.5935965  19.7727716  19.2183316
  54.3383598  20.4947376  18.6440051  54.2728710  18.9881265  18.7737000
  78.5375154 100.9016747  72.1044713  77.6805126 101.0531897  71.7059475
  79.1001618 100.6472487  71.3730818 110.8571446  47.4723721  92.9970665
 111.7361748  47.1488488  92.7999081 110.9526980  48.4244192  93.0236643
 100.7008266  30.8335638   5.5873883 101.3406277  30.7024169   4.8876116
 100.2293396  31.6274834   5.3351438  16.9748436  14.0685124  84.5454293
  17.1828257  14.0870423  85.4795772  16.3874804  14.8131509  84.4160098
   8.4580027 104.7176748   9.1371459   8.1705462 105.4399621   8.5786641
   7.6677166 104.4471901   9.6046031  98.4354401  26.2462616  33.3865428
  99.2055511  25.7078099  33.5688353  97.9968357  25.7995892  32.6624274
  90.4782391  39.4251585   4.0653220  89.8194599  38.7308717   4.0799206
  90.8049393  39.4642735   4.9641913 104.5105648  25.2757525  43.9865780
 105.4156876  25.2535057  43.6759520 104.3308926  26.2042093  44.1346216
  40.2560412 108.1254146  38.0710292  40.8459889 108.4013971  37.3695850
  40.2510964 107.1697145  38.0176926  95.7016373  16.5948284   2.6861250
  94.9833775  17.1293926   3.0246171  96.3890076  17.2254455   2.4714883
  75.7529306  58.8826990  44.7371578  76.5599918  59.0651655  45.2183914
  75.2931690  59.7219229  44.7135925  58.3937693  32.3279619  14.6146929
  58.1114674  32.7218032  15.4401767  58.8503933  31.5279245  14.8748243
  42.2781229  49.5449924  51.0724211  42.6573944  49.3955374  51.9384766
  42.9354095  50.0645351  50.6095171  49.1234576 108.2424475  43.9428425
  48.8778673 108.5999005  44.7961569  49.3556773 107.3314142  44.1226387
  93.7148857  40.0811100  16.9109881  94.3244267  40.4530573  17.5484419
  94.1876793  39.3404055  16.5314400 113.3650112  50.0698566  27.3630166
 113.6661530  49.9494886  28.2636046 112.4558258  49.7706318  27.3724723
  66.2771463  57.6887035  26.1937308  67.0652103  58.2183218  26.0725069
  65.6036854  58.1418085  25.6864071  74.2073631  40.2357912  31.9081664
  73.7861347  40.5165768  32.7205467  75.1254416  40.4841995  32.0161343
  71.5016365  70.1719475  22.8313613  72.1111012  69.4466066  22.6947284
  71.9785690  70.7829618  23.3929968  86.3768578 106.8871880  50.6552124
  86.9330025 107.1283531  49.9144220  86.6277027 107.4949551  51.3508701
  68.4041786   6.9284052   0.8202881  69.3076277   7.2437596   0.7965526
  68.2066584   6.8374515   1.7524597  65.4701138  10.4653180  39.4208050
  65.0770283  11.1661601  38.9006710  65.3951502   9.6867049  38.8691044
  95.3081894  20.9432960   2.8500414  94.5170307  21.3650489   2.5147289
  95.0384045  20.0448036   3.0401912  65.5386305  45.5089664   5.5747598
  65.1652050  44.6329975   5.6720370  66.4150238  45.4391146   5.9532899
  97.9566765  34.8940253  17.0550358  98.4219074  35.6735897  16.7516088
  97.9733276  34.9615788  18.0097044  78.1268501  17.0168734  28.4775424
  78.3248234  16.5886450  29.3104053  78.8123846  17.6776111  28.3790469
 104.1117287  42.9824209   3.2645825 104.1195393  43.9120531   3.4925282
 103.1900215  42.7300835   3.3195132  76.4172459  30.5605960  46.7160273
  75.8453751  31.2774897  46.9903612  75.8835125  30.0470591  46.1096954
  83.7549114  43.6385059  17.2304535  84.6055222  43.9767075  17.5102830
  83.5785007  42.9108667  17.8268170  14.2097531  61.1004400  16.9709134
  13.3404599  60.7043123  17.0313382  14.1269741  61.9320345  17.4376357
  87.9512501  34.6125436  30.7060361  87.0697880  34.3957114  30.4023170
  87.9391956  34.4088960  31.6412449  61.1493921  61.5442610  18.5207999
  62.0754099  61.6883850  18.7156069  60.8089066  61.0953093  19.2945838
  81.6255760  41.2258530  39.0902996  81.6895008  41.4826441  40.0101948
  80.8949661  41.7409372  38.7480617  70.2819681  40.1162100  49.7734928
  69.6719360  40.7333422  50.1775217  69.8625994  39.2620754  49.8775053
  56.4934349  57.8383970   9.6914560  56.7187500  56.9188404   9.8324269
  56.8897200  58.0554485   8.8476092  68.2921982  58.5131359  10.1322138
  68.0274916  59.0125322  10.9047174  68.2521915  57.5988531  10.4127848
  92.3047733  89.4838142  51.7970037  93.2069683  89.1643429  51.8117476
  91.8064785  88.8159847  52.2680998 112.4346256  37.3343873  36.7241001
 111.8146229  37.1386003  37.4265957 112.0087433  38.0232382  36.2138629
  68.9223099  46.4247227  22.4802542  69.0925217  46.7066240  21.5814829
  69.3229866  47.1030045  23.0239654  53.4044348  43.1119771  91.2707019
  53.8795840  43.5507817  91.9763317  53.4224783  42.1853204  91.5099087
  81.9805241  18.7107944  71.4279079  81.4371586  17.9228485  71.4165878
  81.6049576  19.2507493  72.1233463  61.7592812  80.6195927  43.4964180
  61.7047310  79.6868467  43.7043381  62.2704077  80.9952831  44.2132473
  95.6169510  64.4674921  43.6280489  96.3813019  64.6949053  43.0986261
  95.8710480  64.6902370  44.5236206 106.3586903  20.6856728  41.1965036
 105.7446480  20.5178809  41.9113636 107.1856976  20.3095627  41.4978886
  81.0275745  15.8743823  57.0614338  80.9245682  15.9819973  56.1158991
  81.0714817  14.9270487  57.1913004  96.7072964  73.9935160  26.0026622
  96.7207336  73.2394266  26.5920663  97.6287365  74.1562462  25.8008862
 113.1769085  42.4545193  31.0142946 113.6126900  41.8202353  30.4450703
 113.8910198  42.8835154  31.4857173   3.4213135  83.6448855  87.6370930
   2.7193806  83.0166406  87.8069174   4.1264413  83.3818549  88.2285613
  63.6871958  60.9725857  31.1290908  64.3128586  60.2952051  30.8723211
  63.2416534  60.6093836  31.8944716  65.4595327  30.3783011   8.2596940
  64.7867680  29.9240088   8.7668824  66.0140514  29.6779203   7.9158789
  60.5250216  73.5659075  52.1029043  61.1226559  73.9061308  51.4370871
  59.9500370  72.9678106  51.6255093  79.4146729  24.6446896   6.2475449
  79.0444565  25.3845954   6.7289108  78.9412069  24.6391439   5.4156601
   1.7298947  25.8938551  22.9916596   1.0300980  25.3936219  23.4115100
   1.3248310  26.2583375  22.2047019  71.9385624  42.8463173  41.9380426
  72.8003693  42.5072432  41.6960669  71.4757109  42.0895004  42.2975302
  93.5190296  40.1221800  38.8245034  93.1842899  40.6715631  38.1157327
  92.8641987  39.4307637  38.9213061  68.4775257  40.3949118  46.6661453
  68.1015778  39.6984029  46.1278439  67.9784060  40.3627205  47.4822807
   1.3726960  45.8102512  18.7709367   0.8297692  46.1169291  18.0447054
   1.0510693  44.9275589  18.9543223  86.7324924  69.7215128  39.4416308
  86.6637897  69.6550131  38.4892178  87.6607513  69.5774031  39.6254492
  96.2327671  38.7230945  48.4719515  96.1482143  39.3545771  47.7575922
  96.1077499  37.8709078  48.0543613  61.7274523  49.7891092  20.6631064
  61.7455244  50.1904964  21.5318942  61.6930723  48.8480425  20.8347154
  11.3426182  86.2692661  88.2877654  11.8728039  85.7518906  88.8939518
  11.5277741  85.8936471  87.4270338 102.4301338  58.2467556  48.4577799
 102.2870064  59.0337610  47.9320717 101.5760517  58.0606842  48.8478518
  23.9906441   2.4713702  86.7130601  23.5803639   3.2594485  86.3569242
  24.8718630   2.7511926  86.9608211  66.9505405  36.3768220  55.8898687
  67.0388556  35.6160641  55.3156900  66.0425425  36.3453603  56.1911774
  99.6951294  32.6640868  32.3394918  99.7327042  32.2924566  31.4581800
 100.1562500  32.0287704  32.8871870 116.0138416  19.8852599  50.6191683
 116.2116241  19.3369341  49.8599195 116.6724682  20.5792904  50.5914688
  68.7774277  26.0419106  42.6259232  68.2185459  25.8661699  43.3828878
  69.0430593  25.1753902  42.3180008  57.2745371  41.8982315  45.4354477
  56.8730593  41.3381720  46.0998106  57.0855856  41.4592314  44.6061039
  11.5789864 100.8507342  94.8154801  10.8662675 100.5483097  94.2526319
  12.2737286 101.1032767  94.2073755  39.2371152  51.3515407  63.1069928
  38.9151833  52.1701322  62.7295071  39.5644257  51.5989888  63.9717895
  13.4585164  72.6756567  81.9469589  12.7045415  73.2205171  81.7213863
  13.2844803  71.8370778  81.5194934  19.9412320  86.9593138  74.8167425
  19.5567105  86.3244123  74.2123633  19.4763730  86.8170280  75.6413001
  29.3643067  75.1990647  77.8692204  30.0929425  75.7859129  78.0715447
  28.6577485  75.4862565  78.4476095  85.3237724  62.8224754  19.1946936
  85.2446175  63.3303165  18.3871901  86.2355804  62.5314522  19.2062068
  63.0484581  34.4013286  15.3980637  62.3288393  34.0188646  14.8959661
  63.4546041  33.6559153  15.8403718 106.7056656  55.4082775  31.2293434
 105.9468555  54.8369408  31.3477468 106.8591881  55.7851934  32.0957136
  89.7211933  51.6745186  25.0170255  90.5684280  52.0495129  25.2574468
  89.5289516  52.0487356  24.1572380 103.4711933  13.9127755   8.6584234
 103.1724262  13.5018063   7.8472084 103.4683418  14.8506284   8.4669632
 108.3738136  38.5044670  41.2276173 108.8898277  37.8491807  41.6972589
 107.8182507  38.8987517  41.9000149  74.6485281  17.6812625  18.1533456
  74.3907213  16.9856143  18.7581933  73.8507509  17.8804195  17.6633203
  74.4332361  35.9195662   8.3946741  75.1700306  35.4932141   7.9569662
  74.1797543  36.6274118   7.8022784  31.8435929  92.2346229  75.0494653
  30.8962319  92.1054978  75.0040298  32.0981476  92.4575848  74.1540772
  14.7128640  62.2635460  28.9829326  14.3518219  62.4867010  29.8408842
  14.4301854  62.9772425  28.4111261  75.9128237  41.0031176  27.6450968
  75.0414038  40.7168770  27.3713732  75.7538509  41.5574694  28.4090662
 103.0932522  27.0744085  25.4381609 102.2501850  26.6828132  25.2098680
 103.6963940  26.7516804  24.7686148  67.4538374  48.8689184  28.0792832
  67.5886393  48.3173561  27.3086739  67.8688765  49.7013950  27.8535461
 109.1082966 101.1578316  45.9752160 109.2124855 100.7233662  45.1286822
 109.9354136 100.9981818  46.4297753 104.8155022   9.6063411   1.5205081
 104.4731903   8.9443624   0.9198140 105.6038761   9.2091674   1.8905941
  79.7534609  19.7943246  30.7978582  80.1429653  19.4907868  29.9778676
  80.4576492  20.2735305  31.2345576  80.9962260 109.7212080  20.3824067
  81.4430319 109.9107548  21.2074280  80.3765189 109.0249278  20.6001067
   4.5670769  81.1128396  85.4060149   4.9135087  80.7718725  86.2306106
   3.9151452  80.4666323  85.1346767  64.5267200  31.3300586  13.0251193
  64.1812611  31.0642862  13.8773263  64.1536903  32.1988463  12.8758299
  66.6359711  21.4277577  33.1452274  65.9374142  21.3235974  32.4991679
  66.5437126  20.6695056  33.7220931   8.4612343  65.0521309  84.3829947
   8.9913914  64.2612571  84.2845815   8.3285210  65.1355476  85.3272718
   1.9301949  57.2931957   4.9118990   2.2357998  58.1319523   5.2573335
   1.1766968  57.5190210   4.3664861  95.9625053  10.7092941   0.6455557
  95.5999470  10.3776133   1.4669997  96.8485641  10.3487539   0.6119635
  61.0605608   3.3499141  63.3454972  61.8142973   3.5651250  63.8948589
  61.4429461   3.0037208  62.5391656  87.4929905  13.5708046  18.2987463
  88.0424786  14.3376696  18.4606767  88.0760384  12.8246069  18.4383237
  83.2816696   9.9360889  40.2440500  84.1750145   9.7475362  39.9566460
  83.1092834  10.8218646  39.9248028  15.5926583  88.9101834  88.6411977
  16.3875649  89.0260882  88.1207007  15.8278535  88.2508630  89.2940444
  85.0965786  56.0830975  43.0535507  85.2508640  56.9808865  43.3475018
  85.1653481  55.5554104  43.8491917  57.0306015  45.9348011  35.9941125
  57.8868437  46.2989283  36.2188101  56.5403271  46.6766691  35.6398535
   1.6418145  66.0040480  89.5194930   1.5075371  65.4068870  88.7835592
   2.2693131  66.6490216  89.1931718  95.6045628  32.7362537  50.4097462
  94.8600483  32.2690177  50.0307798  95.2216434  33.5240698  50.7956839
  90.1531219  45.0445890   2.8527284  90.7206917  44.2738390   2.8588435
  90.3369141  45.4707479   2.0155659  62.7968311  56.2983227  14.9824762
  62.7048779  55.8250570  14.1555572  62.4945498  55.6796741  15.6474066
  68.2310091   1.1166949  77.0332986  68.5706793   1.3148255  76.1606043
  68.1145941   1.9729133  77.4450844  77.2804165  38.6238861  49.8239136
  77.2307253  37.6760674  49.9480104  76.4941454  38.8414407  49.3232393
  74.4918728  52.5624752  41.6681767  73.9203501  53.0912971  42.2248983
  74.8547363  51.9009781  42.2572279  42.3611723  38.3636804  92.3875448
  42.7292715  39.2304750  92.2160733  42.2545897  37.9728837  91.5202784
  70.8038616  44.7025108  44.5750761  70.4863214  44.5698071  43.6818838
  71.0507631  45.6267834  44.6066523  76.8670082  73.1816912  64.6792126
  77.1262789  73.5573959  63.8378716  76.7955303  73.9346266  65.2659082
  90.9717464  77.8448868  15.8964539  91.4178658  77.7227402  15.0584269
  90.1042938  78.1735373  15.6603408  58.8430214  11.0603619  43.1950283
  58.4599638  11.7273438  43.7647963  58.3370447  11.1183822  42.3845625
  50.4383850  27.7718592  16.6799951  50.0398827  27.1568871  16.0641742
  50.8130693  27.2169089  17.3640060  24.0334950  54.9004316   9.7405720
  24.9688397  54.8786640   9.5383555  23.9776669  54.6017122  10.6482518
 112.8160763  87.2333241  18.5568762 112.5133514  87.9914379  18.0570102
 112.1661091  87.1296310  19.2518747 102.0518315  70.4409689  94.7770654
 102.5539219  69.9078912  94.1606528 101.6931879  71.1501688  94.2435454
  74.0883589  38.7407947  19.7287738  74.6426678  38.4864259  20.4665208
  74.4124746  38.2190847  18.9946079  34.8640013  25.1720715  15.1368678
  34.5449090  25.6581450  14.3765092  34.3839812  24.3443465  15.1106930
 102.2277641  34.9555874  25.1202893 102.1910572  34.0200210  24.9212813
 101.6214371  35.0687265  25.8522725  63.1495428  77.3625851  16.0843074
  62.4978638  76.7730904  15.7047796  62.7397060  78.2269096  16.0496044
 100.7535076  58.2355070  58.5168934 100.8008385  57.8295422  57.6513386
 100.9795856  57.5312376  59.1244459  29.4900929   7.7592034  64.5028597
  30.3443514   7.6322455  64.9156028  29.6931778   8.1018062  63.6324531
 113.4907532  28.0291462  14.6729612 113.7808037  27.6605105  13.8385713
 113.9016533  27.4741125  15.3357804  73.6601210  66.7625380  19.9003100
  73.5965347  66.4498854  18.9978492  74.0629578  66.0369968  20.3773284
  31.2165247 107.5370086  22.7734113  32.0998799 107.3692765  23.1017137
  31.3410651 107.7490705  21.8483424   0.6756649  37.5871754  24.0997958
   0.9793435  36.7559671  24.4646263   0.1414738  37.9726458  24.7942662
 110.2480507  43.2668304  35.3053856 109.3689537  42.8901958  35.2658200
 110.2021503  44.0415335  34.7450638  79.7415495  44.7807026  40.0707293
  79.3603992  44.0067339  39.6560884  79.4832468  44.7117233  40.9898329
 115.2175045  75.8023596  20.4498672 114.9784088  76.6508150  20.8229446
 115.9586430  75.5081654  20.9793925  72.0932341  51.2688398  41.4188242
  72.8565216  51.8418932  41.3465071  71.3522863  51.8254375  41.1791849
  79.1632080  37.5968075  18.3187699  79.9457550  37.9383302  17.8860891
  78.6067104  37.2924423  17.6019001  93.4541798  77.1496201   5.6887776
  94.2109299  77.6769829   5.4329395  93.4440327  76.4256954   5.0626272
  96.2311172  48.2801294  10.2976990  95.9972954  47.4376345  10.6872618
  96.8431950  48.6707735  10.9213948  68.6902857  24.4598389  49.7567034
  69.0742779  23.7277889  49.2741203  69.3243217  25.1702070  49.6586847
  83.1439590  43.3217573  51.0976982  83.3550358  44.0931416  50.5717230
  82.6019859  42.7810717  50.5231142  83.4671307  55.9220314  35.1076651
  83.1834602  55.4003668  34.3569136  84.3365383  56.2396765  34.8638105
  76.6896152  47.5464964  13.2734859  75.9849310  48.0321598  13.7021828
  77.4013948  48.1810093  13.1898797 101.6571522  50.5047131  31.7286968
 101.0504818  49.7844410  31.9001508 101.4875507  50.7492971  30.8189464
  92.6669312  26.1050034  20.7418251  91.7179680  26.1694741  20.6343865
  92.7831745  25.6485415  21.5751076  83.9977169  21.2051344  33.2694793
  84.4660282  20.9613776  32.4710393  83.0863285  20.9715176  33.0933833
  51.9274330  69.2274141  27.5791550  51.7880535  68.7623787  28.4041071
  51.2692738  68.8652992  26.9859171 105.5024242  56.8335485  23.6190438
 105.3515244  56.6199923  22.6982522 104.8748398  57.5308514  23.8091540
 111.0578882 104.1043181  84.8671764 111.5796864 104.1556734  85.6680006
 110.2958596 103.5789198  85.1111054  88.0200863  37.0430112  23.1980109
  88.7139511  36.8809772  22.5588417  87.4614239  37.7005363  22.7835441
  61.6958761  88.2508564  24.9293208  61.6202259  89.1025448  24.4990563
  61.8694019  87.6366901  24.2159343  77.0427942  37.6930261  31.6838741
  76.3046932  37.5346613  31.0953522  77.4511433  38.4904075  31.3467264
  85.7250118  43.3355474  31.5643954  86.6332912  43.0482578  31.4709830
  85.6428623  44.0711784  30.9574962  93.0914116  77.7189684  41.4821672
  92.3215199  77.1711254  41.6350126  93.7714958  77.1046400  41.2059116
  69.7017431  33.1615019   3.1427181  69.1965818  33.7742186   2.6082826
  69.2431164  33.1418419   3.9826626 104.4755745  49.4724989  27.1956229
 104.4946766  50.0616646  27.9497814 104.1349888  50.0098658  26.4804530
  99.7941208  54.0561962   2.4531578  99.0599918  53.5661459   2.0828512
 100.5269337  53.8697100   1.8662651  68.3154058  69.3865204  57.0851374
  68.8460684  69.1706705  57.8519726  67.8979206  70.2182293  57.3091841
  82.0142174  63.8781071  28.2050037  81.6869164  63.7982750  27.3090506
  82.5670910  63.1064081  28.3276796  95.4086685  55.3922415  29.6786451
  94.5782375  55.2233982  30.1237512  95.9708405  55.7692623  30.3554320
  89.2557049  42.6215315  40.9912491  89.1288185  43.2472658  40.2780962
  89.6698475  41.8653011  40.5755091 108.6154270  93.5578060  24.6333838
 108.3869457  92.6650143  24.8920989 108.1770897  94.1135216  25.2778029
  88.9372063  65.3694963  48.7611008  88.6776257  65.6535387  47.8846502
  88.1132412  65.2946901  49.2424726  79.2314816  59.4816017  58.2360458
  79.1818142  58.5508633  58.4539747  78.3365011  59.8019695  58.3483076
  13.5260807  24.7789235  93.9468518  14.1679417  24.5778890  94.6279059
  14.0461384  25.1285882  93.2233140  62.5786781  30.2237654  43.2873011
  62.9212189  30.8018446  43.9690065  62.1648598  30.8144927  42.6579952
  33.5938714  59.8523579  84.9445790  33.5735676  60.0578029  85.8792507
  33.4094117  58.9140860  84.9015242  31.6582463 101.3300509  74.7434693
  32.0836709 101.4066738  75.5975073  32.2618268 101.7577261  74.1359979
 114.0790939  78.6269379  28.7405181 114.0575123  79.5189428  28.3939767
 114.4979668  78.1121016  28.0507946  71.6663265  27.2478819  42.8088379
  71.7465496  27.0204353  41.8825197  70.8614826  26.8146324  43.0930090
  39.6914265  96.9387287  79.4551223  40.4286072  96.4445824  79.0964931
  38.9542744  96.7154402  78.8868087  79.4385099  51.2163162  26.9147515
  79.2728281  51.6055536  27.7733994  79.3527603  50.2738523  27.0584369
  63.0578423  42.9500103  19.6644342  62.1208525  43.0491877  19.8330891
  63.1032753  42.4137640  18.8728464  50.9606123  68.2100248  19.3064737
  50.5535269  67.3438740  19.3236196  51.8001223  68.0889320  19.7500908
  19.5137189  79.0555019  82.0604831  19.6778462  79.9968046  82.0035177
  18.6975072  78.9842171  82.5554043  87.2264862  46.0177851  12.8628826
  86.4468288  46.5665007  12.9481280  87.6422024  46.3163233  12.0540047
 104.4116402  70.7102489   5.7076222 105.0665569  71.1232758   6.2704134
 103.6516953  71.2899542   5.7591581  96.9571114  27.4075460  39.7954822
  96.5075588  27.9301548  39.1313934  97.8592682  27.3459601  39.4815373
 103.1171703  64.0437555  27.1159744 102.5910664  64.8418283  27.0657420
 103.2361889  63.7775564  26.2042689 104.8542881  37.3763680  30.4333329
 104.2035675  36.8746829  29.9423075 104.4118786  38.1977963  30.6472635
  71.8928003  85.2325630  29.2576790  71.8908167  85.2036858  28.3009171
  72.8173685  85.1693439  29.4972897  34.1831899  45.4981995  24.9332118
  33.2285666  45.5239058  24.8679090  34.3772459  45.9167528  25.7718968
 103.4692478  63.3190060  24.6124935 103.5700321  62.4482107  24.2280698
 104.0280342  63.8830042  24.0777993  99.7015762  36.8684554  16.0715449
 100.4296970  37.1220016  16.6388023 100.0173187  37.0416832  15.1846790
  55.5933475 105.7753658  67.6373720  55.1541424 105.2278996  66.9865179
  54.9661016 106.4734554  67.8257036  60.4642200  46.0386610  18.3725774
  60.8449078  46.5011883  19.1191566  60.6279802  45.1134253  18.5552037
  65.7469463  73.5708332  29.7639775  66.2759542  74.2932224  29.4255495
  64.8625326  73.7521076  29.4458842  61.8194294  72.7480364  34.5213556
  61.5660334  71.8280172  34.5960903  62.2081804  72.9591131  35.3702092
 110.2779961  64.9899721  20.7665968 110.3025246  65.6746531  20.0981331
 110.9864330  65.2176046  21.3687086 109.8214436  57.0628500   7.1305221
 110.0703335  57.0211983   6.2071848 108.9923954  56.5866566   7.1768272
  86.7817307  52.9270792  35.2048898  86.2508202  52.9201031  34.4084477
  87.6240349  53.2878160  34.9281025  32.6913045  82.5608510  90.0162375
  33.4515259  82.2081680  90.4787421  31.9814656  81.9532270  90.2239707
   4.6206055  92.5461006  38.2838488   4.2703877  92.8308105  39.1279554
   5.3327141  93.1590366  38.1009674 111.0369587  75.2588797  32.2382545
 110.3825665  74.7525787  32.7195573 110.5581665  75.6224680  31.4934087
   6.5571187 101.4122719  79.1092962   6.2444756 100.6350560  78.6462396
   5.9800885 102.1160597  78.8127368  95.8136749  82.2750950   9.2707205
  96.7161274  82.4093056   8.9812434  95.8377647  82.4384594  10.2135682
  70.8960056  34.1958547  18.4330785  70.3731346  33.4012413  18.3261836
  71.1481619  34.1942334  19.3564677  68.7058163  21.7661786  20.1669002
  68.2483530  22.6039505  20.2382922  68.4282732  21.4130020  19.3216372
  87.2320080  36.6944981  15.5335259  86.6464043  37.4102807  15.2866542
  88.1116199  37.0508075  15.4087424  14.0074692  61.6339397  37.9073524
  13.1434880  61.2361097  37.8001046  14.5151387  61.3080502  37.1641874
  80.0782490  15.5202949  10.4797149  79.4012403  15.0377893  10.0052810
  80.8006382  15.5949700   9.8561710  12.1654389 107.6780886  82.7147931
  12.4622700 108.2197184  81.9835192  11.6313050 108.2670826  83.2477349
  67.1638393  14.5387852  39.2599702  67.2943783  15.4574895  39.0250802
  67.6382780  14.4326389  40.0845146  82.0669365  47.2406101  24.9413085
  82.2921658  47.6792192  24.1208649  82.8923512  47.1970129  25.4240298
  80.6932449  25.6997466  26.3513947  80.2412605  25.2092147  25.6648707
  81.6232395  25.5743003  26.1626935  91.5599823  24.3047881  26.2951040
  92.0214367  23.5337639  26.6249728  92.2531319  24.9397659  26.1146188
  97.0576954  47.1551752  48.7644482  97.5239372  47.6111650  49.4651127
  97.3228931  46.2400484  48.8563395 100.5274832  83.0661673  92.5481415
 101.1149037  83.5469002  91.9649905 100.9777987  82.2375125  92.7117774
  78.0484247  36.1377811  13.9573109  78.0715275  37.0494103  13.6664009
  77.1302462  35.8817220  13.8700604  46.9830227  47.5246048  23.9168310
  46.9096804  47.4336529  24.8668718  46.2415314  47.0279837  23.5707259
  61.4734507   0.7989352  19.3945682  62.3958302   1.0546872  19.3886352
  61.4615011  -0.0639881  18.9804995 108.4389591  65.8881903  54.8783016
 107.9823399  66.4606285  54.2618227 107.9032326  65.9141636  55.6711149
  95.3226280  59.8994160   1.3173097  94.3676662  59.9622059   1.3355830
  95.6246567  60.7903814   1.4939137  76.6407824  49.0296841  29.0645623
  76.5037727  48.4597301  29.8212743  77.5549889  48.8868237  28.8195205
  59.8948574  67.5961971  15.4420710  60.7702065  67.5406218  15.0587916
  59.9438620  68.3384085  16.0445249 113.9386940  39.8999906  29.5198703
 114.8481750  40.0280619  29.2502761 113.8428020  38.9506364  29.5957708
   2.9922352  88.7344456  25.9155154   2.3738537  89.4110394  25.6397605
   2.7820645  88.5787773  26.8362904  55.3151464  41.5143776   3.6078280
  55.3693581  42.4645662   3.7099701  54.3856382  41.3142586   3.7182677
  83.7037373  51.6651917  16.6544330  83.1811142  51.6649151  15.8524990
  83.6561203  50.7633400  16.9716537  62.7555084  38.9756465  14.8545587
  63.1395292  38.7266874  15.6952596  63.5015440  39.2546654  14.3237019
  72.4977160  72.9835510  22.5859332  73.0556536  72.2928047  22.2284341
  72.6016378  73.7146187  21.9768620   8.6665223  72.5147039  81.4943009
   8.3185361  71.7402608  81.0522800   7.9584477  73.1569332  81.4451664
  99.5292198  75.2725548  93.6748871  99.7447073  76.2051172  93.6860037
  99.7434723  74.9667019  94.5562392  83.9005184   2.6762730  46.7432451
  84.3704796   3.3524972  46.2553072  84.5840645   2.0737740  47.0364809
  78.7636471  58.5333443  53.5351801  78.5416460  58.7337494  54.4444561
  79.3465519  59.2442799  53.2686758  79.6450853  75.0991297  17.0923471
  80.2775764  75.5925560  17.6145661  78.9008713  75.6929541  16.9936168
  56.5514565  39.2228508  57.7784109  55.6826448  38.8603139  57.6052999
  57.1395302  38.7111783  57.2229004  72.3338699  75.8093977  25.2125883
  73.2869720  75.8502865  25.1341057  72.1489429  76.1741877  26.0780144
  80.1936054  35.6565118  24.5184302  80.1875401  34.9055910  25.1119900
  81.0627556  35.6381679  24.1178560  16.2471472  13.0408950  91.8991497
  15.3431021  13.1850095  91.6195613  16.4305960  12.1329303  91.6579574
  65.6326056  69.4072771  19.3125403  65.7816029  69.3344975  20.2552676
  66.1385489  68.6883402  18.9338827  41.5682780   1.1829753  89.0731728
  42.3286806   1.7610402  89.0110194  40.9850346   1.4784188  88.3740520
 106.0965347  53.6118841  43.9663649 106.4538288  54.1058540  44.7043133
 105.1483822  53.6430550  44.0938997 105.3058147  85.5917168   2.5305188
 105.9549999  86.1825275   2.9122689 104.6348095  86.1726284   2.1720240
  40.9901308   2.2046042  18.9128160  40.1688646   2.6386595  18.6818659
  40.8555769   1.8991805  19.8099458   3.7703572  62.4212694  17.9315567
   3.0703698  61.8649197  17.5899088   4.4081936  62.4681759  17.2193789
   1.7121182  81.0958481  75.5986214   2.0153103  81.9990635  75.6908941
   1.4461193  80.8410454  76.4821053  71.6660357  48.2403040  51.7718840
  71.0694313  47.6215172  52.1930599  71.7583561  47.9128265  50.8771944
  89.5100689  73.4964895  14.8066938  89.4633389  74.1208029  14.0826201
  90.1543713  73.8728428  15.4062438  67.4673843  46.2457561  28.4744787
  67.0530415  46.0661697  29.3184590  67.5295115  47.2001791  28.4364247
  88.0877590  55.9527397  17.5320649  88.4020805  56.1142159  16.6424835
  88.5098553  56.6291523  18.0617130 104.2805290  28.7963033  40.3772926
 104.9693394  29.4536734  40.4755020 104.0416622  28.5637856  41.2745714
  83.7630463  55.7548714  54.8326302  83.4828663  55.4027700  53.9877892
  82.9558277  56.0667515  55.2417231   6.6711579  69.2082930  10.3197479
   6.9228802  68.9961672  11.2185645   6.1026917  69.9737310  10.4045296
 112.1508408  73.0862617  30.7586312 112.8307152  72.7682734  31.3526702
 111.6814804  73.7493563  31.2648320   7.8439484  64.2788506  30.0198650
   7.8962956  64.9609041  30.6894112   8.7547741  64.1082907  29.7799897
  60.6366253  51.7181921  35.3705788  59.8616076  52.2534275  35.1999855
  61.3574696  52.2071075  34.9736118  17.6777230  95.5949974  10.6529725
  17.3930321  96.4610291  10.3611493  18.2317601  95.2728271   9.9419951
  87.6079559  72.4856091  29.4350147  87.7807999  73.4052086  29.2332935
  88.3747005  72.2013235  29.9325228  16.1750958 108.2326216  70.6841713
  16.7768548 107.5370306  70.4190928  16.4213441 108.4309429  71.5876442
 108.0908871  72.1335220  69.4559908 108.2758713  72.7230787  70.1870394
 108.3929348  71.2765694  69.7570419 104.0515900   7.8151345  29.2760944
 103.5893631   8.5216999  29.7270393 103.5472488   7.0284313  29.4834018
 103.1135654  75.1699209  46.1729479 103.0960464  75.8944654  46.7982149
 102.8887749  74.3987846  46.6935635  84.7531223  80.9492970  31.3812041
  84.4588470  81.8055725  31.6917396  85.6634903  80.8893871  31.6708040
  93.3396435  76.1573648  21.1653471  94.0334511  75.9291124  20.5466604
  92.5357151  75.8465672  20.7490253  19.0207444  58.5915375  21.8724275
  19.1154824  59.2804146  22.5302315  19.9112378  58.4375381  21.5569282
  96.1567688  82.4695778  59.7502089  96.5457344  81.6036129  59.6275520
  95.7120514  82.4147606  60.5960512  97.5779819  80.1694775  10.3888333
  97.7909946  80.9060001   9.8157847  97.2917652  79.4772816   9.7928584
  79.0492630  18.6958861  15.9756887  78.2765865  18.9796269  16.4642465
  79.1980410  19.3930149  15.3368533  45.8961079 108.5358996  85.0046378
  45.7485364 107.8452629  85.6507611  46.8472645 108.6400265  84.9783593
  10.7469902  45.0976133   4.6607471  10.6021366  45.8824492   5.1892161
  11.6991768  45.0264359   4.5936114  14.1423474  64.5818663  26.4681077
  13.6358319  65.3931236  26.4288974  13.6064301  63.9420128  25.9994793
  15.8246670  70.7759571  10.5804503  15.5118332  71.5242434  10.0720847
  15.0781975  70.5280972  11.1259496   9.4776879  55.8452511  21.5797639
   8.8484917  56.0712862  20.8947420  10.2566204  56.3600492  21.3688588
  89.7401810  52.8213549  22.5275660  90.1827145  53.6532450  22.6959777
  89.8163033  52.6967859  21.5815639  64.6894156  26.7549558  91.9743398
  64.6187006  27.2862191  92.7674323  64.0893732  26.0238500  92.1215027
   8.1666623  69.4589663  25.9983540   8.2378159  68.9394426  25.1975656
   8.7401638  70.2104616  25.8480644  66.1101580  77.8487444  27.4487853
  65.4044533  78.2501554  26.9417500  66.6293430  77.3721838  26.8010473
  34.5803438   4.0437074  62.9959160  34.1690193   3.3095737  62.5397545
  35.4018055   3.6862559  63.3330518  96.5195084  80.2976131  27.8458261
  97.2348499  79.6935511  28.0448747  96.9338703  81.0050488  27.3517919
  63.0147982  66.4030933  46.4354753  63.0776930  66.0983133  47.3406744
  62.1406174  66.7879009  46.3725090  71.3126230  55.0025129  45.3435230
  70.8139277  54.9148417  46.1558342  71.0958099  54.2157650  44.8432732
 108.3428478  81.2228107  48.3148956 107.5217247  81.6104603  48.0120516
 108.5164928  81.6532135  49.1520500   5.7148896  57.0424414   5.1165187
   5.7187519  56.1069059   4.9140444   6.6085778  57.3311996   4.9316299
  28.0068098  36.5790124  94.3405284  27.5304114  36.8131013  93.5439849
  28.9279448  36.7110581  94.1162426  88.4864616  48.3967209  40.7962275
  88.4661102  47.9873037  39.9312425  88.9312935  47.7578497  41.3531923
  69.9289322  30.4823613  34.1898489  69.7774267  31.3658595  34.5255733
  70.6131124  30.1250792  34.7559595  60.0770187  72.5701857  17.9642737
  59.1961861  72.4327898  17.6157320  60.2183104  71.8313551  18.5562193
  72.5365353  19.2345333   4.3697512  72.1710300  18.3506250   4.3331122
  73.1740808  19.2598498   3.6562213  70.0306654  65.0112963  43.8497734
  69.1030502  65.1929760  44.0006113  70.3583431  65.7924604  43.4040880
  98.1081295  78.6218882  14.8872709  97.5000572  77.9844093  15.2615678
  97.5878716  79.0975857  14.2397511 114.8157597  57.5240660  24.7525120
 115.3230190  58.3357525  24.7616363 114.1898060  57.6408291  24.0378189
  18.5850582  48.8427305  62.2561455  18.3010826  48.1860304  62.8920174
  17.9891167  48.7321949  61.5152931 109.3270779  89.1510582  26.0329151
 110.0633621  88.9463711  26.6092920 109.1962433  88.3540249  25.5192399
  41.6466522  46.0547400   4.7136533  41.3398743  46.1380529   3.8107818
  40.8655548  46.2031221   5.2466702 109.7466850 102.2090626  28.2761431
 110.1631546 101.4606190  27.8488111 109.3049335 101.8344593  29.0382123
  61.2174511  64.4420719  27.9987478  60.4814816  63.9692926  27.6100898
  61.6788435  63.7827110  28.5170078  28.3982823  79.1326088  87.7211517
  27.8485177  78.4854526  88.1629431  29.2943928  78.8464684  87.8981858
  80.9874439  54.5704174  10.3478789  80.5154133  55.4022169  10.3088939
  81.4483738  54.5956659  11.1864150 110.9065437  94.0002537  14.9630499
 110.6996632  94.8353195  14.5434046 111.8460560  94.0474129  15.1400316
 100.2577019  77.6776838  20.8334708  99.6710587  77.1030569  20.3416586
 100.2090549  78.5173845  20.3765631  29.0233206  21.2988330  33.9310431
  29.7107672  21.1931277  33.2734179  29.2484354  20.6694079  34.6161580
 110.7645130  76.3240099  22.7065682 111.5548611  76.0186863  23.1519413
 110.0445747  75.9308863  23.1998897 104.5637131  27.6464748  30.6105828
 104.6157932  26.6910505  30.5844307 104.7384739  27.9206014  29.7102785
  59.8530375   3.5197825  66.7547685  58.9968859   3.5645862  67.1804744
  60.0001608   2.5850244  66.6105062 115.5738544  39.4373083  25.5102968
 115.8660221  40.3456640  25.4343891 115.7385063  39.2083979  26.4250231
  79.9529409  61.2765360  31.0895061  80.1272011  61.3818359  30.1542115
  80.0736904  62.1526098  31.4557600  63.2206392  72.3895264  39.7724557
  64.0637875  72.7164888  39.4587183  62.7446604  73.1748724  40.0424671
 113.5058498  75.0911570  29.2750621 112.9571629  75.3763247  28.5444117
 112.9122734  74.5995760  29.8427296  74.7198486  57.6287413  39.0398741
  73.7676334  57.6893616  38.9634085  74.8648643  57.1650505  39.8646140
  73.8093281  94.3865585  37.0022726  73.5479403  94.0385818  36.1497331
  73.3949566  93.8018990  37.6368666  26.4371275  24.4867850  24.8382282
  26.3658785  24.8483611  25.7216382  27.2877478  24.7917510  24.5224977
 101.8788052  82.9970837  31.6359687 100.9742165  82.7768707  31.4135695
 102.1748829  83.5512161  30.9138227  77.7549028  42.7277946  26.7295265
  77.2425604  42.0815611  27.2154450  78.6653757  42.5140333  26.9334197
  46.8650042  17.3652167  69.1628557  46.2743651  16.9368548  69.7824412
  47.2545229  16.6454024  68.6664992  83.7873173  29.3008256  47.6885557
  84.5847702  29.7862864  47.4773026  83.0751896  29.8885918  47.4362946
  85.8834743  47.4054193  21.8235397  85.7918072  46.5339851  22.2088099
  86.7235470  47.3776627  21.3655734  83.0157744  10.8307405  91.7303258
  83.5870634  11.4537759  92.1794238  82.2185885  10.8120675  92.2598234
  81.1415863  93.4455299  15.3864884  80.4974842  93.9697266  14.9104762
  80.6486893  93.0605507  16.1111164  86.0772038  76.6377354  11.5688920
  86.2879848  75.7409954  11.3087738  86.6357327  76.8044376  12.3281634
  97.7017689  71.8651962  40.6821203  97.0870876  71.1325121  40.7216311
  97.2178173  72.5600481  40.2358055 101.0336971  61.8449926  16.9480026
 101.8431950  62.3176432  17.1417558 100.8657074  61.3253880  17.7341473
 101.4323139  49.5200348  26.9349575 100.9714222  50.1482248  27.4910069
 102.2461414  49.9636889  26.6960001  80.6892967  60.1118612  23.0143666
  79.9773979  59.8821068  22.4171710  81.3781452  59.4757318  22.8218436
  71.9574213  63.8732767  27.3429060  71.3389254  63.6250687  26.6558170
  72.7970505  63.9561653  26.8908238  20.0565110  59.8644447  19.1003311
  19.3573342  60.3740740  19.5097899  20.3940068  60.4334354  18.4085345
  97.4844551  73.4452009   0.4970682  96.5746689  73.5374498   0.7799198
  97.7058029  74.2970037   0.1206836  92.2046185  71.9922638  27.5342178
  92.5495911  71.8720150  26.6494751  91.4006615  71.4730072  27.5504494
  87.6984501  83.8979816  34.9184012  86.7997456  83.6737919  35.1598477
  87.6062298  84.6166515  34.2929053  85.5509949  51.5304518  30.7972145
  86.3915634  51.1838341  30.4979730  84.9258041  50.8271742  30.6218100
  88.2339478 106.3632774  12.7335143  88.0442429 107.1142292  12.1710944
  87.3778248 106.0859680  13.0596697  60.4411030  28.7648821  28.4875846
  60.0208950  27.9245281  28.6705041  61.0555172  28.5760784  27.7783036
  46.1247418  97.5627226  88.4834379  46.8696282  97.4484486  87.8932529
  46.4871762  98.0234904  89.2401171  91.6924572  59.3027973  39.9163246
  92.6075077  59.5211601  39.7396016  91.2033463  59.7367620  39.2172694
  55.3749895  64.6977425   8.9516079  56.2928438  64.5272636   9.1630739
  55.0691843  65.2695227   9.6557236  79.8817635  56.3731337  38.6017060
  80.4539680  55.7387781  38.1699586  78.9969397  56.0440397  38.4435654
 115.9845448  60.7719851  30.4301310 115.1477718  60.5888748  30.8573461
 115.9874725  60.2073526  29.6572065 101.1411190  39.0038323   2.4421151
 100.4693604  38.6191368   1.8791045 101.8075275  38.3212113   2.5206122
  91.0434723  60.4352236  71.4927483  90.3930950  60.6818819  70.8351707
  90.8306408  60.9747124  72.2542524  72.4085188  55.6469584  40.8822966
  72.0071316  55.7752228  41.7417526  72.4696493  56.5277815  40.5126381
  62.8068876  88.8997936  48.3764410  62.6626110  88.0460930  48.7846184
  63.7027311  88.8570309  48.0419683  66.4192568   0.9130282  81.5376955
  67.0465266   1.5501590  81.8794876  66.2747465   0.3060527  82.2635966
  30.7069180  97.7511639  53.5244971  30.0349877  97.5207180  54.1660815
  30.7453988  96.9968218  52.9365188  89.8449135  58.6709785   2.4591041
  89.8784924  59.5768213   2.1516199  89.0534592  58.3112621   2.0585619
  49.0417290  13.1329978  16.4438307  48.4181881  12.7198040  15.8465886
  48.9435387  12.6499879  17.2643745  61.0365759  10.5257793  72.6724702
  60.3911959   9.8370595  72.5131851  60.5658232  11.1805339  73.1881457
  88.2616425  51.3221979  29.5995378  89.1595078  51.0418081  29.4222021
  87.7832413  51.1157322  28.7965846  12.5911866  86.8644333  60.5205250
  12.7526818  87.1219349  59.6128654  13.4642372  86.7605782  60.8989859
  71.1498642  70.9086990   5.2559876  70.6009293  71.1455250   4.5084485
  70.7679081  70.0951815   5.5854261  92.8474712  77.1690750  52.3737621
  92.8917027  76.2129068  52.3691416  93.7600803  77.4507570  52.4372816
   6.7982922  99.7099209  33.2532692   6.0556755 100.0566387  33.7477732
   6.4014206  99.2751980  32.4984574  95.2702427  70.5636787  42.3634481
  94.6006680  70.7215691  41.6978788  94.9878120  71.0841465  43.1155014
  96.6016006  54.9798059   5.0400889  96.3371754  55.6115961   4.3713966
  96.0852051  54.1971540   4.8476711 115.7544041  72.6985741  59.3199396
 115.8033276  72.7139950  58.3641148 116.6530704  72.5298500  59.6030712
  72.5846087  28.7612958  84.5176953  73.0081164  29.2036862  83.7820631
  73.2596194  28.7236352  85.1953155  81.0399138  10.7915492  93.7138636
  81.0162245  11.5755696  94.2624804  81.1648737  10.0708575  94.3312984
  21.6763375  82.1123571  59.2605430  21.7156575  82.8772253  58.6863833
  21.1298821  82.3920316  59.9949866  26.9409237  68.4077024  20.3071761
  27.7061901  68.6717415  19.7964072  26.2087593  68.4760857  19.6944070
   7.0094071  90.7671833   9.8931921   7.8972969  91.0022068   9.6236563
   7.0859681  89.8677921  10.2117288  89.8669421   4.1328187  77.2407847
  90.4031264   4.9059863  77.4167269  90.3843676   3.4009976  77.5768417
 115.7983971  36.8685055  27.0673895 116.1036777  36.1585951  26.5025330
 114.9273396  36.5910840  27.3511553  91.4867878  71.5089655  12.6909125
  91.6942978  72.4433136  12.6782298  92.1434021  71.1100197  12.1200085
  92.0787048  98.4164333  16.6493785  92.6305676  97.7631855  17.0794308
  91.4885902  98.7223148  17.3381686  63.8098036  24.1621394  92.4045065
  63.1401335  23.5492272  92.7080171  64.6387469  23.7149043  92.5749758
 115.1415157  84.9011993  22.1040726 115.4745770  85.6173611  21.5633106
 114.9178696  84.2124367  21.4781213  98.3597183  78.9591837  34.4277740
  98.6382866  79.8747015  34.4492126  98.3636951  78.6860752  35.3451777
 109.0265656  73.2643461  47.5080109 108.5857010  74.1010618  47.3604488
 109.0243816  73.1569386  48.4591627 109.0678596  16.5946877  40.4997873
 108.1390762  16.3885272  40.3945494 109.5216846  15.7899237  40.2495241
  95.3274523  50.0941224  74.6579891  96.0370909  50.6944127  74.4292980
  95.7673823  49.2670770  74.8546916 103.0113029  53.1314230  11.3144541
 103.6781311  53.4355307  10.6987536 102.1917057  53.1780910  10.8222032
 100.0714874  75.0873327  67.7395773  99.7828293  74.3426657  68.2671928
 100.9933472  75.2015352  67.9705763 112.7911282  75.7364035  40.2545738
 112.6776505  75.6774473  41.2031937 111.9508171  75.4524469  39.8947287
  71.2027740  51.0765934   9.4997883  71.4091253  50.9728336  10.4287040
  70.6308985  50.3361893   9.2973208 109.1010857  55.2403164   0.3334956
 108.6162376  55.8560991  -0.2160174 108.4451008  54.6025038   0.6147595
  72.7158213  75.4280996  15.1904190  72.1875525  74.6557188  15.3918839
  72.4154520  76.0922050  15.8108819 102.8717613  57.6032877  15.3859317
 102.2530746  57.0247650  14.9400949 103.5997868  57.6947260  14.7712374
  89.6316051  92.4942303  48.2764196  88.8798714  92.4857044  48.8689232
  90.3654766  92.2007465  48.8163471  55.0303125  72.3015213   8.8340819
  55.7334757  71.6904926   8.6139894  55.1537895  73.0355835   8.2323062
   0.2970562  68.1694221   9.1296983  -0.4575958  68.1671762   9.7185248
   0.5774842  67.2548342   9.0962517 104.8746204  74.2039108  16.5459013
 104.6924210  74.2090034  15.6062174 105.7507420  73.8251448  16.6179466
  54.5472895  39.0802903  90.5284351  54.6398817  38.1301065  90.5977690
  53.6643015  39.2591233  90.8518362  88.9468479  22.0236182  19.1511500
  88.1423855  21.5052676  19.1710210  89.0557098  22.3314452  20.0509405
   0.6535874  73.3354473  27.7285862   1.5307961  73.6187172  27.9864597
   0.7938824  72.5039101  27.2757125  86.9692230  64.8429775  50.5176878
  87.6967144  64.8571682  51.1396074  86.1893082  64.9673367  51.0585213
   5.5296479  67.4690390  32.8109193   6.2593422  67.0236969  32.3802781
   4.7789631  66.8927860  32.6672482  63.0325222  51.5016079  16.7991829
  63.9006901  51.6607904  16.4287996  62.5095177  52.2509766  16.5143251
  96.3569914  19.5424600  89.2608094  96.4288126  18.8390012  88.6156589
  95.9520899  19.1281838  90.0228178 109.4170284  57.0342731  35.3872275
 109.4048023  57.6502466  36.1197972 109.5595455  57.5825357  34.6156502
 108.3132172 105.9640980  15.2076352 109.2245674 106.1920834  15.3912103
 108.2958603 105.7848644  14.2675257  78.6371708  58.2281017  25.1003218
  79.4867373  58.5383892  24.7869706  78.6428165  57.2886419  24.9169970
  66.4011860  32.3783803  39.7175241  66.3028574  31.6763115  40.3606892
  66.8819571  31.9753170  38.9945912  89.3672562  45.6475115  14.4760513
  88.5181713  45.6773376  14.0351522  89.4394207  46.4953709  14.9144125
  71.3789641  26.6854234  90.8077460  70.4858767  26.9655366  90.6073460
  71.4501368  25.8144422  90.4171583  85.2712154  42.5668573  24.7552991
  84.3466759  42.3231983  24.7095537  85.7214451  41.8957472  24.2423248
  82.9443359  99.3331146  17.4388289  82.7775097  98.6202621  18.0554724
  83.8400269  99.6109867  17.6305878   8.3291016  46.5931129  41.4937019
   8.7496815  46.8139696  42.3247051   7.4276696  46.3762712  41.7316675
 113.0192757  73.5934210  64.4549799 112.1033573  73.6956930  64.1963863
 112.9805088  73.1589603  65.3070211  76.7838240  94.8254585  15.4462063
  77.7305841  94.8345947  15.3055131  76.4640188  95.5939388  14.9735546
   8.3246300 103.3561177  93.4482884   9.0436337 103.8929838  93.1150678
   8.2274602 102.6575512  92.8011483  82.2860527  87.5939369  53.1195593
  83.0424690  87.9426575  52.6479197  81.7789555  87.1327972  52.4514055
 104.1974831  47.0629311  28.8153672 104.3245220  47.9817200  28.5788870
 103.8442039  46.6583347  28.0230737  78.6368275  77.4986410  34.3308425
  79.2658901  77.5480747  33.6110759  78.4799910  76.5616608  34.4479346
  91.0840702  24.2600703  53.9780283  90.3871346  24.8219705  54.3168306
  90.8880424  23.3937693  54.3348551   5.2651844  52.2916222  21.0755515
   5.4100285  51.9026518  21.9380784   6.0705719  52.7755165  20.8927202
  80.2129364  27.4554014  22.1935105  80.4572105  28.3624053  22.0093775
  79.6924448  27.5055742  22.9952598  86.8867588  51.9199371  22.2863293
  86.8001461  52.5482941  21.5694594  87.7939510  52.0121956  22.5774026
  13.9126549  78.8859558  36.8842626  14.6013317  79.0272093  37.5338840
  13.2377205  79.5269394  37.1074867 116.2055779  85.7363701  41.3659000
 115.4750252  85.1340675  41.5064430 115.8420086  86.6017532  41.5534210
 110.4920197  95.7850266  20.0644374 110.5168152  95.0140285  20.6311750
 111.3133240  96.2420082  20.2456570 108.2827663  71.5548658  21.7366290
 108.4094334  71.3880253  22.6706266 107.4488163  71.1334038  21.5289807
  80.6265450  74.3609428   8.8954854  80.5268955  73.5103893   9.3231076
  80.2753162  74.2289114   8.0148941 103.1451702  45.6122446  26.8188119
 102.5641155  44.8882198  27.0520234 103.9696598  45.1897001  26.5781832
  84.0117645  58.6691523  15.8839190  83.7604332  59.0088320  16.7428041
  83.2247829  58.2310438  15.5599642  10.9942398  97.2792912   0.9280381
  11.3196335  97.9288197   0.3047670  10.2221165  97.6882458   1.3189550
 107.8097630  51.3884592  46.6415787 108.6138248  51.6251516  47.1038485
 107.3630905  50.7825279  47.2328186  35.1703904  94.6068663  85.9659177
  35.7625077  95.2338166  85.5505001  35.1135895  94.8978848  86.8760353
  75.4708099  65.3649044  17.2446942  75.7284927  64.7578096  16.5509593
  75.5780077  64.8640203  18.0533099   1.8687401  74.9021482  16.2148941
   1.6169796  73.9949846  16.0419583   1.8739376  75.3177977  15.3526640
  48.0357907 106.4417643  87.0208698  47.4995206 106.0182947  86.3505560
  47.5405762 106.3265461  87.8318667  91.3801193  27.3824763  14.7970295
  92.0236015  26.9778037  14.2153108  90.5333614  27.1038389  14.4483137
  99.4392014  49.6252012   6.7051661  99.2451668  48.7326717   6.4188570
 100.3813171  49.7218323   6.5662163  15.3450165  63.6039591  50.9081936
  14.6454583  63.2870293  50.3368759  15.0245247  63.4369516  51.7945480
 102.7308559  68.2923698  33.3925891 103.3772945  68.8572025  33.8160467
 102.0835304  68.8980341  33.0315042  91.7607594  38.5755658  13.9031744
  91.5830517  38.9512539  13.0409026  91.5111828  39.2634678  14.5202065
  84.1698933  52.6568604  12.7817285  84.3193531  51.7339706  12.9870641
  83.2532310  52.6961374  12.5089431  93.2349873  56.2517500  36.7250896
  93.9024162  56.7232227  37.2235680  92.5389004  56.0802841  37.3593593
 112.4907303  49.3810558  22.5023675 111.5475178  49.4380140  22.3495984
 112.6854515  48.4452343  22.4518776  34.1283785   7.9144664  73.8445645
  34.7440707   8.0858417  73.1319719  33.2757222   7.8507800  73.4142667
 102.5119591  68.2016563  39.4650173 103.2388973  67.8617334  39.9867797
 101.8792152  68.5149813  40.1113129  95.5368900  39.4892359  25.5069900
  95.6189346  38.6366320  25.0797105  96.4394569  39.7639036  25.6687641
 100.9897137  65.4263258  26.3060236 100.2304745  65.9837437  26.4765167
 101.1326790  65.4984093  25.3623104   8.3311997  56.1602163  24.1728806
   9.1614209  55.9039116  23.7712908   7.8616867  56.6221237  23.4783101
 106.7921066  48.2091665  26.1950111 106.3307667  48.7666845  26.8215704
 106.2101746  48.1693602  25.4360580 106.2284184  51.1962795   3.7784046
 107.0457363  50.9917021   4.2326847 106.5046406  51.6408348   2.9769653
   1.3235817  55.8247900  21.9596791   1.1456833  54.9350166  21.6549087
   2.1075211  55.7398462  22.5023174  58.2983862  15.5995841  66.4628154
  57.8743922  15.5155845  67.3168665  59.1984259  15.8541245  66.6662341
 115.7826710  63.5274744  10.7003617 116.0658550  63.0555677  11.4835227
 115.2087116  62.9120016  10.2442944  95.3825569  63.8668680  19.1701090
  95.2756405  64.7262526  19.5778561  95.8533955  63.3489037  19.8229921
  27.1611378  81.8881769  59.4691807  27.0988343  82.8380269  59.3685013
  26.2604306  81.5778608  59.3760353  16.2690792  93.1891346   6.6852707
  15.5112229  93.7138939   6.4273661  16.1742649  93.0803776   7.6315337
 107.1338463  69.0070152   7.3107523 107.4442005  68.5928011   8.1159467
 106.7581654  68.2889080   6.8014145  74.3950367  60.9751511  12.4495530
  74.4914246  61.8886471  12.7187490  75.0757790  60.8470249  11.7889416
  97.1256529   9.7896333  78.6431891  97.1482359   9.2686601  77.8405005
  96.7467963  10.6267066  78.3748549   5.5029068  90.2132797  29.1156673
   4.9881230  90.3828144  29.9046421   5.9071598  89.3598747  29.2722321
  99.3794537  60.2515602  32.0456195 100.0135231  60.9678936  32.0130467
  99.6436214  59.6654367  31.3364577 100.9793091  69.7746420  19.0821350
 100.5001450  70.5533123  18.7987411 100.6742001  69.0800428  18.4984589
  95.8213520  43.7527132  27.0705414  96.4293480  43.6001158  27.7939296
  95.9130287  44.6848536  26.8731952  82.4632072  90.7191563  79.6093369
  81.5885067  90.5853367  79.2443466  82.7826500  89.8362732  79.7956181
   9.4106839 106.7608399  82.1087736   9.5360730 107.6533455  81.7863792
   9.2822335 106.2364859  81.3183361  11.1014901  49.2146397  52.7766466
  11.9970475  49.3863916  52.4855995  11.1714898  49.1253662  53.7271023
  71.8976784  70.2535486  38.0641675  72.2210073  69.5038557  38.5638237
  72.6623917  70.5675697  37.5816417  88.3705711  47.7636862  20.2950096
  88.2752514  48.6069489  19.8522258  89.2943859  47.5384998  20.1850414
 104.5707989  81.0656071  24.7704887 103.6408234  80.9903526  24.5567060
 104.6431160  80.7063389  25.6547570  85.1204014  56.6289711   0.1711460
  84.9194908  56.2817764   1.0402386  84.2720222  56.8975592  -0.1814730
 103.8763618  85.5070114  20.0467038 104.2420101  86.2546825  19.5739138
 102.9664135  85.7517815  20.2149510  13.0181942  94.9433041  43.7597275
  13.3301793  95.4326534  42.9985189  12.1872578  94.5624924  43.4755373
  95.0800037  84.2214775  36.7811346  95.6035328  84.1736126  37.5810432
  94.8414707  85.1454258  36.7059231 115.4638100  74.5998430  26.0753608
 115.2502918  73.7464476  25.6980634 116.0960770  74.4045305  26.7669678
 116.0794353  32.6062441   6.0856181 115.8586502  33.3790445   5.5657500
 115.2556896  32.1244836   6.1603171  84.7200871  53.8847399  27.8939915
  85.2509975  53.2831049  28.4159040  85.2772713  54.1116428  27.1494842
 100.8505726 100.7341671  14.2321813 100.8106232 101.4817047  14.8286819
 100.3797150 100.0374317  14.6894526 115.6104946 103.4388351   5.4073161
 116.1054897 104.1669750   5.7828516 115.6229591 102.7649593   6.0869980
  22.0155011  56.2221384  17.6800179  22.2383747  56.3712788  16.7611527
  22.5792179  56.8254900  18.1641865   4.4496117  96.3507557  13.4851706
   4.3469391  96.3787651  14.4364345   5.3377495  96.6725349  13.3305550
 102.5850487  80.8598042  17.1086919 102.9298210  81.5076065  17.7232718
 103.1187439  80.0794888  17.2587514  73.1113720  80.6184006  12.6858640
  73.3931160  81.2757969  13.3220029  72.8868532  81.1226177  11.9038284
  77.7649403  70.3159046  21.7270970  78.1740379  70.9832287  22.2780466
  77.7119875  70.7199097  20.8609509   9.9879895  43.0207777  20.8293223
   9.4412384  42.3461008  20.4267025   9.6985970  43.0509233  21.7412281
  27.2008000  89.9724865  10.3615606  26.6865979  90.7118988  10.0373638
  27.6244698  89.6149254   9.5812488  28.4287428  12.8304244  77.8038073
  28.9428114  12.9914618  78.5950279  28.5617327  11.9011355  77.6167870
  80.3203583  89.4966125   4.7389600  79.6081781  88.8620949   4.6588841
  80.3522968  89.7042370   5.6728256  85.0418568  92.7566433  65.3833055
  85.9574032  92.6852894  65.1132822  84.6235371  91.9759655  65.0202990
 103.4323120  85.7942677  36.8582153 103.0932045  84.8993683  36.8782091
 103.0284023  86.1862087  36.0839581 114.7294426  50.3065681   5.3862089
 113.8003254  50.0957775   5.4786789 115.1750183  49.4626331   5.4601693
  89.6441364  74.9086332  87.1683598  90.4675007  74.4205809  87.1576118
  88.9902401  74.2820644  86.8584347 110.5154037  88.0561543  51.8770170
 110.0718307  87.3254776  51.4462185 110.6295013  87.7669048  52.7823067
  77.9904925  10.7182641  77.6095837  78.7411104  10.1259608  77.6541227
  78.0835902  11.2811036  78.3782047  98.0998135  29.5568466  19.1377831
  97.3886776  30.1625228  18.9287996  97.6581955  28.7703204  19.4580638
 109.7036934  88.5210419  54.5780468 108.9149284  87.9949474  54.7095919
 110.2784824  88.2763863  55.3032970  10.3384648  88.9899445  20.6879115
  10.4894600  89.0020943  19.7427726  10.0661908  88.0916500  20.8754301
  99.6817684  87.4067783   0.0741727 100.3910160  87.7545643  -0.4664319
  99.2265129  88.1830311   0.4003702  95.7135868  37.5163698  18.4330761
  96.3203716  37.8474665  17.7709460  94.8655128  37.4919224  17.9899073
 114.8068047  90.2776718  11.6215241 115.3182602  90.9537697  11.1770856
 113.9122009  90.6181145  11.6257656  92.1126543  20.1433082  93.3768116
  91.9194590  20.5830760  94.2047692  91.2572371  20.0219531  92.9647721
  32.4056696   5.9651328   8.9735538  32.5869345   6.7693568   9.4599593
  31.6547369   6.1832095   8.4214836 109.7274017  52.6303959  39.2911625
 109.2063808  52.8000164  40.0760174 110.1807404  53.4561968  39.1215277
 113.0456257  31.3785839  57.9669333 113.4166908  30.8503509  58.6736965
 113.7638855  31.9479704  57.6910067  77.0342909  39.6602387  89.0441638
  77.8005587  39.8592992  88.5061705  77.0689951  40.2990956  89.7561198
  31.2294375  39.1074128  94.2058214  31.4353691  38.4483762  94.8687613
  31.8700491  39.8032899  94.3527849 115.1147747  88.0097961  42.3715210
 114.4647312  88.6424732  42.0659161 115.8458900  88.5464668  42.6776123
  83.6654377  60.9598589  56.7119312  83.4306049  61.2085819  57.6059246
  82.9231644  60.4389906  56.4054203  13.0660591  91.7267990  43.6843252
  12.2099934  91.6059494  44.0951347  13.6642609  91.2051201  44.2193413
   0.1582299  79.5304203  27.1037602   0.6556664  78.9550829  26.5225744
  -0.6048813  79.7904015  26.5877151  53.5655009  10.2266259  92.2317511
  52.8804480   9.8560567  91.6753197  54.2998301  10.3803821  91.6373104
  67.6340675 101.0806656   3.7055764  67.1432924 101.8970203   3.8000363
  67.5719547 100.6630898   4.5646498   3.9154683  73.8399839  25.2829313
   3.2873783  73.5509253  24.6209812   3.5866509  73.4706926  26.1025286
 111.2308884 106.6249180  50.2004862 110.9334850 107.4668217  49.8555326
 111.1459923 106.7116547  51.1499596 104.5909786 100.4186726  46.4527655
 103.6853504 100.1262283  46.5554333 104.5738506 100.9847450  45.6810760
   1.9287453  80.0720215  36.6230822   0.9760628  80.1444054  36.6812229
   2.2563801  80.8375549  37.0951414  71.5558195  95.9609509  36.2425828
  70.9147072  95.6370640  35.6098914  71.8011189  95.1884747  36.7518330
 115.6421471  92.6284599  34.0968728 116.1321735  92.5990391  33.2751441
 115.6277180  93.5556889  34.3340731 103.4706593  92.6939297  22.2891808
 103.8492393  93.4558105  21.8505025 103.8650513  91.9423008  21.8467569
 108.1890106  47.4165058  14.8937929 109.0174866  47.7162361  15.2679884
 108.3623028  47.3444605  13.9551699  93.5247421  86.6342831  15.1051164
  93.8504314  87.3048210  15.7055700  94.2994785  86.3507748  14.6196866
  59.5153891  20.2579875  86.5581655  59.0908610  20.6078572  85.7748395
  58.8293444  19.7564216  86.9986242 101.6476631  57.6677227  53.2992363
 101.3995361  58.3262682  52.6504040 102.1500969  57.0208645  52.8038931
  26.2000631  10.8641101  23.2934809  25.4078650  10.7141162  22.7775764
  26.1891722  10.1729060  23.9555550  98.1107616  46.7348576  19.9865711
  98.6732578  46.9156742  19.2334843  98.4432983  45.9104013  20.3414226
 109.8285770  87.1328640   9.8038268 110.4947758  87.8037930   9.6545780
 109.5775700  87.2443867  10.7207716  10.7478676  68.4318972  29.6576309
  10.8689461  69.0053415  28.9008427  10.4465065  67.6034737  29.2846298
   0.4357205 100.6099224  34.7329736   0.8357678 101.4694118  34.6007776
  -0.4121532 100.7996082  35.1346803  21.3376116   8.4882785  56.7151785
  21.1810087   9.3865061  57.0065355  20.7887148   7.9518080  57.2871447
  47.1510397  41.6894860  91.9108441  46.5470778  41.0377164  92.2667387
  46.8063532  41.8848367  91.0394880  84.4572544  50.2731848  14.0956485
  84.6513271  49.4083071  13.7343264  85.0494766  50.3590393  14.8427343
  85.9571934  45.6676579  36.1122918  86.4927673  46.3778496  36.4658713
  86.5900517  45.0031662  35.8399606  62.1721649  76.7876244  31.7192125
  62.3392248  77.0634460  30.8179665  62.8224945  77.2602272  32.2387815
  26.6894697   3.1309176  29.6927500  26.4172815   2.2977019  30.0773311
  27.5691866   3.2788707  30.0397873  77.7132034  93.8096142  20.0278807
  76.9257784  94.2450809  20.3543258  78.2095289  93.5896301  20.8162332
  81.2675095  88.9190865  29.8824501  81.4178181  89.8640633  29.9082375
  80.3949165  88.8049984  30.2590036  13.8510189  88.5972786  10.6673169
  14.6796284  89.0491676  10.8267748  13.6072121  88.2362556  11.5196371
 114.5437813  68.0507135  10.9845138 114.4922161  67.9821110  11.9378591
 114.0807247  67.2769976  10.6633103  57.6770769  25.2204843  77.8147143
  58.5417925  25.1836343  77.4058860  57.8564631  25.2200074  78.7549537
 101.4946651  53.4947300  16.6982186 102.3798370  53.7111664  16.4051890
 101.1199856  52.9902697  15.9761643 107.3453331  46.6076660  36.0566425
 106.7831802  46.2916517  36.7639995 108.2188225  46.6503572  36.4457822
 106.7197609  78.8761616   7.7312505 105.8948612  79.2823744   7.9972720
 107.3909855  79.3591261   8.2133555  93.0401039  30.4566550  33.5137415
  92.6668930  31.2111616  33.9694500  93.6294079  30.0576687  34.1538644
  95.6359100  60.7746220   7.8894478  95.6449986  61.2263489   8.7333041
  94.8812580  61.1419821   7.4292439  68.2918345  20.3008552  89.8494208
  68.2409941  21.0519166  89.2581928  68.4192072  19.5489020  89.2709982
  83.0327225  67.5196934  35.8212495  83.2937241  67.2873259  36.7123818
  83.8060570  67.3332548  35.2888680  85.8068943  47.5134754   4.0496206
  86.0550499  48.1282759   3.3592057  84.8978806  47.2868824   3.8531855
 110.0252342  68.6242819   2.5288716 109.6681690  69.0452194   1.7468600
 110.9160805  68.9671850   2.5998485  32.8510069   3.5077239  19.3090594
  33.2882284   3.8517714  18.5301495  32.1218180   2.9912234  18.9659393
   8.8833676  92.9127216  14.7059894   9.2404328  93.1376934  15.5651295
   9.2081890  92.0285797  14.5356548  82.7814865  63.9615011  35.8653736
  82.2402763  64.7430944  35.9768677  82.5530338  63.4038973  36.6090965
  93.0716419  49.1111231  30.0168848  93.6300659  49.1422510  30.7936859
  93.5432911  49.6258926  29.3620634  87.4150372  96.7224407  16.6793656
  87.9681683  96.4294910  17.4035633  86.5639973  96.3186741  16.8494654
  75.3226709  78.9714956  12.5732398  74.5270061  79.3167925  12.9781079
  75.0081778  78.3311272  11.9350743  87.7552605  67.3296595  41.3444567
  88.0252171  67.4375439  42.2564411  86.9157887  67.7860355  41.2875700
   0.3575573  41.4833689  31.2879324   0.6240998  41.7838621  30.4190874
  -0.3449573  42.0813560  31.5431023  25.8047161  57.1058321  17.1590447
  25.8575879  57.0005369  18.1089652  25.4584656  56.2707567  16.8444049
  88.9661503  53.9771461  48.2904100  89.0822124  53.5224295  49.1246700
  88.4845829  54.7729349  48.5163498 106.2580490  61.1903763  45.6816053
 107.1280384  61.5282297  45.8941936 105.9193134  61.7978525  45.0239897
  80.1731097  28.5063214  87.4253040  80.3453528  27.6949639  87.9030680
  80.6730639  28.4172387  86.6139209  13.6733303  63.7496758   1.2520990
  14.5799790  63.7326050   0.9456177  13.2675133  64.4633150   0.7598922
 103.9812374  87.1465588  39.4422865 104.9100113  87.1172047  39.6719241
 103.9133549  86.6133022  38.6502934  21.4827607 102.5696940  92.8829941
  22.0640442 103.0879492  92.3264366  20.6558106 102.5382561  92.4019614
  30.3310464  85.5598730  90.8779552  30.3052018  85.9746546  90.0156796
  30.4432461  86.2870163  91.4902505   5.1637898  68.3022881   5.8229381
   4.6983204  69.1385937   5.8099461   5.3952656  68.1427717   4.9079493
  76.1227751  80.9917641  15.0108039  76.6886091  81.5930748  14.5265663
  75.3480911  81.5117168  15.2246881  71.3405800  87.8553772  51.6845322
  70.8906937  87.3965073  50.9751129  71.7590666  88.6034203  51.2584639
 107.1605778  77.6942205  10.9628141 106.7970753  76.9262648  11.4036572
 108.0807590  77.4740124  10.8178878 103.3391653  27.9077668  88.7287098
 104.2127978  27.7310987  89.0776926 103.4991442  28.3555074  87.8979456
  17.5279866  78.6500549  56.0913801  18.1291161  78.1599712  55.5304050
  16.9035874  77.9949999  56.4032412  60.9638392  11.7985435  93.8859626
  61.0391699  12.0638461  92.9693544  61.8671595  11.6578908  94.1696130
  34.6409201  26.3137580  26.2083268  34.1595816  25.5380297  25.9206033
  35.5363535  26.0036040  26.3433504  33.6711274  97.5024033  39.7423625
  32.8133736  97.0935249  39.8577285  33.8178120  97.9849339  40.5559206
  20.0961148  11.6734071  90.5380481  19.6575009  12.1864362  89.8593360
  20.8662068  12.1922679  90.7703697  95.3058815  90.7004356  53.7549925
  95.8636379  90.1743317  54.3280172  95.5121040  90.3932858  52.8721762
 113.6568165  38.1957579  24.1512299 114.2767429  37.6805496  23.6350179
 114.2040730  38.8138914  24.6356368  11.9180928  88.7023544  23.1288695
  11.1682759  88.8549995  23.7039423  11.5521489  88.7330437  22.2449160
  30.9932589   0.5539752  46.9139576  31.8489336   0.1302767  46.8466473
  30.9141707   1.0634566  46.1074829   1.9343911  72.4785948  15.1699615
   1.5338002  71.6410685  15.4029870   1.8652687  72.5200176  14.2161596
  18.1492195  81.8963242  14.2691767  18.2912789  82.7482224  14.6818900
  18.2492218  82.0644760  13.3321822   2.4695549 101.5546703  58.5817480
   2.1585808 102.3383617  59.0349102   3.3104763 101.8137074  58.2049227
 104.8208332  94.0902424  25.8984709 103.9309025  93.8665962  26.1709261
 104.8783016  95.0376415  26.0224104  98.6975014  60.5304385  85.8066296
  98.7514937  59.5826394  85.6841779  99.6090233  60.8221549  85.8228397
 106.0693932   8.5245705   9.1579115 106.0210228   8.6141205  10.1096857
 106.1037922   9.4246757   8.8340938  84.0417480   7.6227629  53.7794781
  83.2398701   7.6392019  53.2570362  84.2943192   8.5425591  53.8595915
 102.3237622  84.3934244  90.7066098 102.9289162  83.8567228  90.1947781
 102.7046692  85.2712888  90.6843751  72.4429750  24.9422646  26.4100957
  72.0294094  24.0819907  26.3385081  73.2547617  24.7785592  26.8901277
   8.8912747  91.1296839  69.0765387   9.4815514  90.4200787  68.8230258
   9.1114781  91.3093967  69.9905664  48.5867023  67.1140862  22.9300737
  48.3114004  67.7550507  23.5855150  48.6604643  66.2921476  23.4150600
 109.8186028  59.5616919  80.8763951 110.5186569  58.9192394  80.7605988
 109.9011481  59.8443279  81.7871839  85.3444481  39.8208022  24.5499277
  84.6621323  39.5583487  23.9320374  84.9152851  39.7965455  25.4051828
  50.6423855   2.9168859  16.8603921  49.8684120   2.4394520  17.1591473
  50.9243393   2.4483839  16.0747457  45.6323767   3.7849942  30.8767772
  44.7301960   3.8131526  30.5581737  46.0796404   3.1878787  30.2770782
  93.6299002  51.7472059  88.1000304  93.4668982  52.0734776  87.2150391
  92.7879393  51.8355215  88.5467189  72.5453949  23.3799195   4.1390806
  71.9597197  24.0287113   3.7488467  72.4549532  22.6084566   3.5797077
 103.4090996  33.0124760  15.8925378 103.1652641  33.7316823  15.3098559
 102.5979710  32.5197983  16.0173154  47.3607063  18.6792243  39.5718575
  47.9465580  18.7977862  38.8242245  47.2989416  19.5484340  39.9679518
  49.0099859   6.8393356   8.3511442  48.6850882   5.9840184   8.0698872
  48.5654879   7.4644995   7.7785838 113.7162554  86.9971556  91.0491729
 113.8251888  86.6788430  90.1530459 113.0897677  86.3907976  91.4442351
 105.2468407  97.1355337  85.8213424 104.9381649  96.2906164  86.1485451
 106.1247027  97.2293896  86.1911839  11.5602028  39.2297435  25.2235818
  11.4286149  40.1034689  25.5917120  11.0860431  38.6463118  25.8160424
  99.7814667  98.4152455  89.2789042  99.4895804  99.2251868  88.8605374
  99.3574297  98.4226269  90.1370245  20.0213562 107.8984473  51.6646528
  20.9340512 107.9004941  51.3761902  19.8539625 106.9921982  51.9233513
  32.6149117  85.0690793   6.3520277  33.5300528  84.9133586   6.1185896
  32.2898184  84.2130017   6.6307378  56.2661539  99.7436845  25.0961590
  57.0593249  99.3525743  25.4624128  56.4413821  99.8059344  24.1571951
  91.9309711  52.0143223  41.1407852  91.9325924  51.1747503  41.6005087
  91.1074543  52.4277115  41.3999414  86.0197449   4.3078467   8.3570015
  85.8917713   3.8367763   9.1803777  85.2683258   4.8980024   8.2994157
  81.7510605   4.3771183  21.1299562  81.3420105   4.9563122  21.7729521
  82.6651287   4.3182883  21.4078951  97.3545170  10.1176143  15.6461525
  96.8749046  10.9433973  15.5806994  96.7031384   9.4858110  15.9507322
   7.1189772 109.5977116  46.7532635   7.4165808 110.3287900  47.2947311
   7.8641592 109.4012845  46.1854982 106.9417488  70.0198252  60.9419495
 106.8198263  69.9821264  61.8906027 106.0660851  70.1892466  60.5944711
 112.3883021  81.7634768  76.4872640 113.1851446  81.2915081  76.2453562
 112.5875628  82.6810259  76.3011724  64.0265512  51.0776949  26.7662406
  64.3198347  51.2841845  27.6536965  63.4350634  50.3332520  26.8765926
  48.6849009  90.8032619   7.8786170  49.2601382  90.8024453   7.1135408
  48.3358847  91.6938245   7.9149145   9.4285081  40.8296317  81.6654652
  10.3799508  40.8493227  81.5624636   9.1255257  41.6352147  81.2465733
  45.9493732   2.3567390  56.4629269  45.0022459   2.2511451  56.5525770
  46.2706423   2.4104759  57.3629999 101.7751276  80.1749033  93.5263701
 102.5519097  79.7945089  93.1163221 101.0427248  79.6848482  93.1526537
   9.9360977 105.8897778  13.1988573   9.9530731 105.1220479  12.6274252
   9.8164545 106.6292711  12.6029837  79.3002748  30.1344562   8.9394337
  78.6816025  29.6115422   8.4294987  79.1161299  31.0387087   8.6851704
 102.0216810  58.2907883  86.1288380 102.8767216  57.9709870  86.4166975
 101.6398012  57.5553749  85.6497085 116.0748672  62.3518372  43.7408257
 115.3538609  61.7241621  43.6918402 116.7881584  61.8654776  44.1542435
  38.4283577  89.4717359  26.6300178  38.8335310  88.8848995  27.2685218
  37.4889027  89.3951988  26.7967582  98.8121187 101.3062805  93.4610078
  98.9704239 101.5127844  94.3821628  99.3417561 101.9412226  92.9787601
  42.7229868 107.6971161   4.1327605  43.2046019 107.6432747   4.9582148
  43.1177794 108.4380520   3.6730003  38.8578831  99.4930028  47.6341820
  38.4605776  99.9230760  46.8769360  38.8234125 100.1508492  48.3286428
  77.2315454  41.4024734  39.3742442  77.3665380  41.4169788  40.3217649
  77.2813845  40.4758787  39.1393709  13.4409306  76.9957227  62.2283155
  12.6752923  77.0389242  62.8011781  13.2046292  77.5324959  61.4718276
  82.1254921  38.3986735  13.6062098  82.3152733  37.8538156  12.8424406
  81.4661312  39.0207386  13.2987690  46.0823154  31.9412923  22.6287413
  45.8738899  31.3482332  21.9068885  46.7993498  32.4810100  22.2958851
  71.5332413  37.7642894   1.3001548  72.2471428  37.3491383   0.8161843
  71.5609503  38.6815405   1.0279140  34.5860087   1.0030026  90.0391555
  35.3004681   0.4756970  90.3965479  34.9951636   1.8378682  89.8115146
  41.9956398  10.6351554  30.3749466  42.4612761   9.8515856  30.0826597
  41.0856104  10.3528297  30.4664278  80.9626770  22.1226954   2.4388695
  81.7491817  21.5801311   2.4960284  81.1753941  22.9069042   2.9448307
  18.0513178 100.5413043  13.4174776  18.0727469 100.2822041  14.3386936
  18.7057244 101.2364923  13.3489156  73.0038118  18.2229817  24.6030140
  72.3824739  18.3882713  23.8938975  72.7032566  18.7815666  25.3198719
  61.1574328  86.4928765  70.6366020  60.7646906  86.2048692  69.8125654
  60.6931936  85.9955139  71.3099104  62.5622368   3.1269306   8.8751417
  63.0530453   3.6484429   9.5102495  61.7731285   3.6404294   8.7023270
 105.9027683  59.3634612  77.7809149 105.0512993  59.4838191  77.3605031
 105.9733355  58.4179986  77.9126423  57.6496458  14.1129410  13.3525884
  57.3515224  13.9983404  14.2549300  57.5050545  13.2602346  12.9424465
  56.1612749  27.7044559  20.8845878  55.6824541  28.4783602  20.5878878
  55.6278992  27.3511720  21.5965772  75.9332180  24.3690562   8.3823860
  75.1226425  24.7443271   8.0383390  76.0163784  23.5271788   7.9345465
  23.5892664  97.7829384  33.4448934  24.1782605  98.3493459  33.9433908
  23.3770357  98.2890724  32.6606631  77.9922676  39.6854758  14.1017628
  78.2602787  39.8131776  15.0117600  78.7717867  39.9014139  13.5899436
  23.0053494  71.2176198  84.1883212  22.8922818  72.0287723  84.6837812
  22.2328255  70.6953437  84.4043678 111.6679299  52.4338794  69.7940713
 112.3325550  52.6501400  69.1400534 111.4984619  51.5008411  69.6638733
  87.1026897  17.6031315   3.9425689  87.5446987  18.3370256   3.5156506
  87.1252728  17.8194034   4.8747426 110.4289448  55.9631117  75.1490313
 109.4727003  56.0024412  75.1324254 110.6967270  56.2804288  74.2865711
  31.4030361   9.7424364  18.8359272  30.7499313   9.8008347  18.1385934
  32.1274471   9.2536938  18.4452987  49.9772440  94.7868072   4.5358956
  50.7280814  94.8440801   3.9449698  49.2383086  95.1020932   4.0155160
 113.9825117  59.5309097  90.8263173 114.5261538  60.0740356  90.2556193
 114.1582262  58.6340064  90.5418518  12.9670117  68.2905311  83.1213289
  13.2133649  67.3891444  83.3287889  12.9900239  68.7449843  83.9634543
 115.7536804  44.8615379  79.9798816 115.1585686  45.3051788  79.3755191
 116.3161337  45.5587519  80.3171783  61.1636353  40.0474882  12.1153736
  60.2854490  39.7355294  11.8969703  61.1899662  40.0384235  13.0721676
  68.0289984  18.0177677   7.2656727  68.1348610  17.8661036   8.2048333
  68.9199114  17.9904640   6.9167286 101.7362416  33.3738179  94.9699431
 102.2071898  33.4076852  94.1373000 101.0420763  34.0266055  94.8792125
  22.7718293  95.2491271  12.0861065  23.4164368  95.0598764  11.4042687
  22.1002327  95.7679784  11.6434097  75.5181980   7.4540722  15.3872168
  75.3910303   6.8900257  16.1500490  76.4500141   7.3745298  15.1832020
  21.7313753  86.1946725  45.1461124  21.6385638  87.0375752  45.5901051
  21.0352694  86.1921095  44.4891024  57.4883032  35.5185509  31.2910223
  56.8692636  34.8138380  31.1002350  57.0321989  36.3167286  31.0243535
   5.5039857  83.5990829  91.6405985   5.3062222  84.2836756  92.2796991
   4.9648354  82.8558797  91.9111383  33.4361622  84.6442217  88.2874799
  33.0269597  83.9831752  88.8458752  32.7125428  85.0080365  87.7773320
 108.6807072  85.3585190  65.7651025 108.8901722  85.5683631  66.6752225
 107.7573693  85.5929274  65.6716639  86.8591225  86.9492382  78.8152534
  87.7762568  86.7089505  78.6834913  86.5193188  86.2803835  79.4097250
  75.0563431  17.8340709  41.6074181  75.9128284  17.4409950  41.4396095
  75.2487087  18.7491810  41.8118763  58.8422489  57.6913738  13.8697362
  59.5515728  57.0849323  13.6568594  58.6552000  58.1400776  13.0451715
  80.6833267  18.6506426   9.6698141  80.0584888  18.1713712   9.1256523
  81.3593578  18.9422011   9.0580845  63.0211592   7.0891088   5.3015280
  63.7713671   7.5517857   5.6748301  63.2608557   6.9433266   4.3863642
   9.3553315  30.8285904  29.3771935   9.4389496  31.7769194  29.2776418
  10.1286373  30.4727030  28.9395118 113.1489002  89.0681691  74.7456151
 113.2677853  89.1425413  73.7987429 112.6398194  89.8427171  74.9846631
  76.9316769   9.1380042  34.6192527  76.1109209   8.9482898  35.0737834
  76.6787863   9.7161621  33.8995218  49.8966360  23.1704497   5.1562798
  50.1220846  23.8248587   4.4951051  48.9952755  22.9226518   4.9504146
   4.1379998  74.9005038  76.0878795   4.9841855  75.2899808  76.3081604
   3.7864468  74.6013922  76.9264322 100.0022042  65.2424795  94.4278911
  99.3379509  65.7481975  93.9596501  99.5022690  64.6081734  94.9416532
 116.3294697  45.5971336  22.3460078 116.7177391  44.8565006  21.8802357
 115.7226086  45.1969194  22.9687309  76.9171619  10.1460779  29.4479990
  77.6972246   9.8262393  28.9947438  76.3115644  10.3818178  28.7452126
  48.3277225  17.8248751  17.5314128  47.8358459  17.4822545  16.7851543
  47.6776886  17.9074192  18.2291794  37.1856867   7.6219745  59.4531995
  37.1482741   6.7151780  59.7574168  37.0467554   7.5634141  58.5079461
  57.1404266   6.7162848   4.4773346  57.2546387   7.5297284   3.9859110
  57.6505566   6.8458253   5.2768439  62.6949739  13.5100913  19.4902492
  62.8825808  13.3460474  18.5660601  61.7797709  13.2513905  19.5984519
 112.6345598  98.8250965  79.8716420 111.7243445  98.8969273  80.1590115
 112.9604113  98.0353684  80.3033656  81.4824307  90.8614177  88.8686025
  81.3565838  90.2723259  88.1247163  80.8664715  91.5775770  88.7138635
 115.9791720 109.7693343  82.9650897 116.0563147 108.8531489  83.2313269
 115.8558953 110.2474779  83.7850994  99.5186054  57.7706242  71.9928056
 100.4523670  57.7578676  71.7826706  99.0970337  58.0815304  71.1916524
  21.2591717  96.6957135  69.0584236  20.3463051  96.9406790  69.2097455
  21.3191674  95.7920260  69.3682295 111.0674286  17.5790334  21.8357015
 111.5104675  16.9083428  21.3159728 110.6905460  18.1741345  21.1875892
  13.0679284  10.4966331   9.8372352  12.3339997  10.2015758  10.3762352
  12.8250656  11.3818109   9.5657456  70.0448405  93.1020653  15.0687134
  70.5617796  93.2302069  14.2733622  69.2598425  92.6413154  14.7725224
  66.4600754  23.9391303   5.7271481  66.3496065  24.1261697   4.7949222
  67.4040174  23.8259840   5.8385170  59.6623217  26.4588017  66.5492469
  59.0624605  26.9414563  65.9805304  59.5258414  25.5403276  66.3168484
 105.7574081  40.7923698  13.5216665 105.3209972  40.6682730  12.6788270
 106.5898895  40.3287220  13.4308970  26.2001584  84.2164869  87.5444847
  25.6742833  85.0079269  87.6598477  25.6032918  83.4991545  87.7575916
  67.5152540  19.1788614  21.3609767  67.9447889  19.9975526  21.1130357
  68.1988430  18.5143006  21.2755346  82.9343426  60.4470879  84.7651845
  83.5291826  60.1391012  85.4489541  82.1390927  60.6984008  85.2349156
  99.8014736  68.3362007  15.1196349  99.5157146  69.1966820  15.4264593
 100.6367016  68.5029078  14.6827877  11.8193791  75.0957460  66.4428240
  11.5018342  75.9512204  66.1537534  12.7178834  75.0507850  66.1158687
  93.2071495  13.1790924   3.6072734  93.5070992  14.0880620   3.6133903
  92.7703190  13.0653393   4.4513544  97.7147352  93.5261459  73.9150673
  97.7587425  93.6804981  72.9714209  97.5586664  94.3919010  74.2923528
  74.9117994  18.7626374  13.5149670  74.3339682  18.1447589  13.0671167
  74.3191147  19.3338823  14.0034664  96.5109825  44.7146463  31.9806266
  95.7906342  44.9584293  31.3993263  97.2753716  45.1593065  31.6142726
  89.3650532  38.2666636  15.9716249  90.0830746  37.6339006  15.9883976
  89.2663002  38.4924102  15.0466812  48.4195995   2.0065448  26.7079186
  47.9924345   1.1511502  26.7533183  48.8709402   2.0937343  27.5475144
  10.9835587  14.8106146  16.5643835  11.5919552  14.1104126  16.8006158
  10.6103859  15.0952482  17.3986268  34.8044430 104.4420939  13.5136318
  35.2089154 104.7363263  12.6975060  34.3698870 103.6209559  13.2831407
 109.5956707  45.8243990   2.6343578 110.0009155  45.5778074   3.4657431
 108.8143826  46.3170671   2.8855526  76.1804342  12.6751494  20.2534795
  76.7024279  11.9471920  19.9160886  75.2751160  12.3712671  20.1879907
   1.4917586 107.5818247  78.6473900   0.7714913 107.3427195  78.0640584
   1.1573908 108.3257956  79.1483253   3.1819794  92.7733368  92.1034327
   2.6540921  92.0642919  92.4706134   3.4134266  93.3150572  92.8578880
  65.6979465  22.0980549  19.3514693  66.1988211  21.7285252  18.6242795
  64.9128008  21.5529585  19.4029450  79.4211292  22.8651881   0.3939465
  79.9263430  22.2073388   0.8716741  78.6241579  22.9778457   0.9120041
   0.3319416  13.7515152  18.7858570  -0.1794471  13.3266521  19.4744873
   0.7428799  13.0284548  18.3119988  13.1046734   3.8877717  36.5804029
  13.5028324   4.7580773  36.5638709  12.4268208   3.9472440  37.2536063
  88.5496330  28.3754134   1.8426581  88.5274220  27.7582455   1.1113290
  89.1928482  29.0341210   1.5807280  52.9322672  29.4889545  13.5790169
  52.0088196  29.2626309  13.6897421  53.3255005  28.7074542  13.1906176
  70.2739382  33.3124590   8.2764387  70.4249573  33.5883260   9.1804975
  70.7560062  33.9486861   7.7481806  21.9865868  83.0829162  69.2261535
  22.7100918  83.1540341  68.6034900  22.1428273  82.2555274  69.6813971
  85.9903622  57.0525360   7.5062609  85.3931808  57.5512171   8.0638641
  86.8186378  57.5297976   7.5553489  73.2161045  23.4823871  16.2873280
  72.7335739  22.6575232  16.2326002  72.5367880  24.1530013  16.3583267
 100.8845901   9.2547774  51.2554646 100.5210686   8.8545972  52.0453644
 100.9624004  10.1839626  51.4717817  65.4485273  18.7290406   6.7461032
  66.3468695  18.6496389   7.0668882  65.2482653  19.6618807   6.8231422
   6.9556019  41.5245194  92.7425386   6.5344594  41.7662782  91.9176620
   7.2780774  40.6353921  92.5952431  88.8852322  74.6348936  92.3635593
  89.7267592  74.8526329  92.7643795  89.0260899  74.7641403  91.4256429
   4.4178174  80.2175850  66.3392192   5.0105927  79.9556894  67.0436817
   4.0301201  79.3970126  66.0349446  14.4622491  75.1874680  76.4983171
  14.3432210  75.7788939  77.2414726  15.2069161  74.6391684  76.7454499
  84.8918247  50.1621675  25.6226563  84.0983391  50.0730610  26.1505532
  84.7539043  50.9625959  25.1161718 111.6220581  74.7157413  89.4883430
 112.4562514  74.3577856  89.7920197 110.9969294  74.0007848  89.6078545
   4.6378098  35.3895617  28.5313797   4.8872147  36.0193038  29.2077327
   3.7110386  35.5661583  28.3697248  26.3370024  97.3160576  11.3809896
  25.5944477  97.5167679  11.9506955  26.9293152  96.8035077  11.9311631
  73.8912249  10.9487271  10.9060299  73.9613867  11.0999012  11.8486094
  73.2902765  10.2079570  10.8263397 111.1330855  56.3747822  91.5707934
 111.9384157  56.3151327  91.0568759 111.4247715  56.3173150  92.4806550
   9.1470978  76.5888542  92.3693210   9.6170685  76.1623234  93.0858636
   9.2228100  75.9781284  91.6361677  75.2588641  84.5825004  23.6316323
  74.9347197  83.7831806  23.2165980  75.0074183  84.4939398  24.5509601
  22.4097323   6.0331076  36.4498568  21.8633866   5.6323200  35.7737565
  22.7083516   6.8549502  36.0604548 104.5432186  39.7599339   3.8844880
 104.4259930  39.1144705   3.1874481 104.0535355  40.5263376   3.5860562
  74.1369820  45.6175327   4.9613369  74.8535824  45.7809639   5.5745345
  74.2772532  44.7188807   4.6630457  99.6334457  50.2881479   9.8075074
 100.2059746  50.1152039   9.0601581  98.8248539  50.6206989   9.4178683
  93.0956900  69.7181112  78.6988503  92.5973189  69.4339735  77.9326099
  93.9329493  70.0158614  78.3430785  69.9841928   4.3520257  27.3994851
  69.5775843   4.5175779  26.5489006  69.9477291   3.4009591  27.5013399
  13.9256226  16.8466039  95.3842797  13.1191288  16.3377090  95.4668834
  14.0892636  16.8848081  94.4419458  78.9342403  68.9247942  18.9973593
  78.6487532  68.1647301  18.4903789  79.1030979  69.6007824  18.3410370
  39.9147021  97.1336114  22.5796247  40.7486759  97.1051299  22.1106815
  39.5418536  96.2603783  22.4584675  24.4108282  91.4521956  14.4062281
  24.7097527  91.7100739  13.5342348  23.6099373  91.9579434  14.5441580
  85.3794193  25.4478192  25.8862448  86.2628269  25.8054328  25.7971954
  84.9189091  26.0813427  26.4365315  78.6493361  93.1873364  90.7318410
  78.2680356  92.3353714  90.9439748  79.1536343  93.0318875  89.9332493
  97.3929941  96.1148972  78.6042458  97.1883023  95.1816077  78.6617642
  96.5397703  96.5435547  78.5372740  52.0872961  10.0378413  77.9751330
  52.0595633   9.6268935  77.1110815  52.6905047  10.7737393  77.8711027
  42.0634053  78.2362050  94.6192501  42.4300072  78.8948149  95.2092239
  41.1941884  78.5703320  94.3977722 112.8571045  86.9185418  66.8785864
 112.4132406  86.2870497  67.4446565 112.3074877  86.9667429  66.0963899
  18.8438962  62.1091652  64.1053301  19.6596978  61.7621226  64.4662314
  18.2204220  62.0575744  64.8298031 106.2819636  98.4865994  88.8092279
 106.1544525  99.2405171  88.2333928 107.0977986  98.0885548  88.5055703
  82.3111343  13.7716961  13.9444792  81.5490055  13.6511815  13.3780205
  81.9487476  13.8042629  14.8298335  15.9944890 100.5736870  39.1705686
  16.1399720  99.6407027  39.3274432  16.8132947 100.9918732  39.4368678
  29.1684125  82.1067066  90.0199300  28.4520886  81.9577832  90.6371325
  29.9108574  81.6339106  90.3960660 109.7630596  11.2045276   4.7789028
 110.6640530  11.4052677   5.0321716 109.6963596  11.5052426   3.8726172
 103.0468762  38.2183654  74.9696952 103.9211809  38.0072231  74.6422106
 102.7453768  37.4106712  75.3855759  85.9831429  23.4037447  27.5803757
  86.8446064  23.7823963  27.7556968  85.5794144  24.0060949  26.9555497
 107.8340256  88.3989019  92.9598915 107.3127806  88.9226717  93.5683313
 108.3275568  87.8006358  93.5209068 111.1865628  89.1798753  94.4811056
 111.5983641  89.0545244  93.6261572 111.7598784  89.7976679  94.9348341
  12.7011858 104.4417172  15.5679953  12.9873549 105.2830630  15.2123606
  13.3790909 104.2064183  16.2014830  78.1725597  25.8585668   9.0476137
  77.6457644  25.0631285   8.9701527  77.5323868  26.5579581   9.1789919
  47.5537192   7.7368445  72.7179843  48.1791674   7.6958985  73.4414249
  47.9496275   8.3443875  72.0931798  64.8464012  13.3260298   3.8650602
  64.9206448  12.4679458   4.2826855  65.1826000  13.1910861   2.9790628
   6.9631741  72.6747114  87.5370204   7.7744839  73.1297106  87.7628356
   6.4667866  72.6499492  88.3550763  55.9678078  11.6823268  20.3823495
  55.5135918  11.1319399  21.0203099  56.8923569  11.6110659  20.6197619
  17.9062626 102.0232815  82.2151023  17.3360989 102.7733988  82.0463520
  18.4464810 101.9512457  81.4282053  11.7869351  64.6712000  73.6267262
  11.3098214  65.2817625  73.0647594  11.3148091  63.8434703  73.5362202
   6.1936829  71.8161029  63.1316787   5.8325932  72.3626572  62.4337393
   5.7353470  70.9804708  63.0429131  67.3559129  80.6695289  77.6239115
  67.4078929  80.3730506  78.5325533  68.1851160  81.1229724  77.4721163
  83.6525536  39.3027544   4.9156746  84.4487000  39.7975135   4.7218034
  83.0159378  39.6110868   4.2707771   2.3724339  64.1613567  67.9030257
   2.5348446  64.9152726  67.3360449   1.4516614  64.2425842  68.1516343
 108.3129311  22.8493524  10.4075897 108.0835056  23.2288742  11.2558591
 108.5326195  21.9386816  10.6041765 100.5715179  26.2058067  25.2700019
  99.9714279  26.8312263  24.8638296 100.6668282  25.5089998  24.6206903
  56.2035751  22.8351378   5.6281853  57.0403957  23.0924416   6.0151702
  56.2777138  21.8888450   5.5046296 105.1130259  77.2873730  79.0560668
 105.7059777  77.8955597  79.4973653 104.6927178  77.8136916  78.3759445
 111.2055683  35.3484011   2.8422865 110.9753323  36.2586045   3.0287117
 110.3637600  34.8991203   2.7664599  48.3593607  34.2232990  27.4635863
  48.6863184  33.6558723  26.7654777  47.8441334  33.6421299  28.0230618
  82.7774334  13.7573838  20.9606957  82.1732235  13.4749627  20.2741146
  83.5659313  14.0270662  20.4897714  69.9413967  54.6141148  13.1971419
  70.8402395  54.3641567  12.9830348  69.4304895  53.8176155  13.0529404
  69.3033028  44.8459148  30.0926948  69.9503994  45.3957081  30.5345416
  68.8917446  45.4272366  29.4532251  88.4470749  25.4892087   6.3998502
  88.5255623  24.5614076   6.6217858  88.6948776  25.5364013   5.4764879
 115.1201164  74.5990533  75.0015336 114.8964226  74.2055148  75.8449322
 114.3206990  74.5204109  74.4809800 115.7315218  79.4741935  86.5640926
 116.3794291  79.8128599  85.9462344 115.1852905  78.8876194  86.0408348
  91.1355877  31.9673181  43.1014919  90.6293201  32.6077247  43.6012888
  91.4177895  32.4424028  42.3198938  72.6830578  18.2346058  39.8889351
  73.5433388  18.1023467  40.2872562  72.8058720  18.9740455  39.2936397
 104.6644175  63.6736739  83.8871127 105.3500330  64.1676897  84.3366796
 105.1360523  63.1267250  83.2589096   0.6579075  42.5934219  16.2878728
   1.3962326  42.4695444  15.6914151   0.1798115  43.3393145  15.9255183
  48.8704729  19.6068466  37.4960136  49.3711329  18.7915945  37.4654913
  49.0408707  20.0243187  36.6516709  55.8714581  51.2969065  16.5097177
  55.7121849  51.8278313  15.7293427  55.3194046  50.5241013  16.3904023
  82.8658962  23.1590629  18.5816312  83.6315918  23.6599612  18.3004928
  82.5676155  23.6029124  19.3755186  45.3957354  97.1771752  48.2677794
  45.8429133  97.0279991  47.4347067  45.6825243  98.0486154  48.5408735
  59.6011149   2.3870702  53.4777528  59.1539370   3.1359334  53.8720447
  59.0606676   2.1559615  52.7222854 109.4501126  72.8117472  54.6418553
 109.7976219  71.9211597  54.6900540 109.1674673  72.9096765  53.7325936
  29.9228070  93.1126828  90.4650405  30.4086468  93.7970752  90.0048256
  29.9107239  93.4001679  91.3779691 113.2826805  53.7425518  36.1376119
 113.3617210  52.8266621  36.4043188 112.8230476  54.1645718  36.8634701
  44.7452914  73.3298110  12.4655032  45.6159102  73.6212301  12.1947145
  44.8766314  72.9632401  13.3399212 110.9798717  36.4422059  22.7436948
 111.7390823  36.8767381  23.1322956 110.8878899  35.6299496  23.2417011
  82.0125294  35.3522015  34.9013376  82.3868275  35.1127625  34.0535164
  81.6121578  36.2089086  34.7530460 113.2615912  58.7618164  93.8002707
 113.1316912  57.8139371  93.8299671 112.4477160  59.1261232  94.1482880
  34.8466622  97.9134750   3.3802778  35.5196892  97.2411465   3.2742599
  35.3372084  98.7240075   3.5167679   9.3419014 109.2972498  24.0230751
   8.7123905 108.9724752  23.3792830   9.8171936 109.9903029  23.5648108
  37.8882859  86.1740655  62.5934773  36.9667885  86.4329905  62.5886518
  38.2496808  86.5894217  63.3764869   8.5268185  92.3886079  54.3911057
   8.5015652  91.4335746  54.4503051   8.4294484  92.5733322  53.4569627
  53.0204474 109.1201582  26.2041903  52.5032030 109.8018118  26.6331887
  52.6346766 108.2990225  26.5093946  83.8543129  18.7542820  40.6327009
  83.7881565  19.5596099  40.1195717  84.7169113  18.8029993  41.0447454
 100.7913315  84.5650024  56.9090110 100.8324492  83.8416476  56.2834698
 100.5562508  84.1506261  57.7392274  88.9344978  40.7931614  21.6313767
  88.8218880  40.2220106  20.8715487  88.1997108  41.4046431  21.5823698
   6.4284871  75.9208173  68.6822563   5.5170891  75.6353015  68.6184603
   6.4019559  76.8548507  68.4746295  79.0361977  48.7096071  27.4968863
  79.8487854  48.3763075  27.8774738  78.9216375  48.2012892  26.6939425
 101.9179153  57.8270912  20.1367688 102.1685219  57.3195839  19.3648493
 102.6532936  58.4226179  20.2809763 111.2162876  34.0514421  30.9239268
 110.3337002  33.8401365  31.2282681 111.7942905  33.6898923  31.5958047
  88.8069153   2.0448719  80.0069809  87.9674053   2.4925807  80.1119423
  89.3223000   2.6294887  79.4512558  95.6158161   4.7342169  44.3866539
  94.9415398   4.3532917  44.9492216  95.3326321   5.6386125  44.2520952
 106.0169601  36.2042761  14.2375731 106.6782570  36.8017507  14.5867693
 106.4952374  35.3940201  14.0616143 110.1985752  73.2437081  64.5000988
 109.8369896  73.4588200  63.6403209 109.9397957  72.3340983  64.6480018
  85.8041191  67.6685429   5.0263780  86.4621544  66.9947195   4.8555499
  85.4948139  67.4819994   5.9128129  77.9477978  64.7496319  34.3969893
  78.1476974  64.9902248  35.3016376  78.6600065  64.1630697  34.1421819
  57.1517706  66.0032368  27.8690886  57.6000118  66.8370771  28.0105805
  56.3467073  66.0740280  28.3820176  99.3842030  21.3924122  25.6307673
  99.1570473  22.3199153  25.6968594 100.2484989  21.3279605  26.0370612
  19.3912003  72.8596432  93.1499456  18.8228486  73.1775863  93.8514613
  19.6555779  73.6499984  92.6791218 111.3468552  60.1853657  11.7801654
 110.7068920  59.5302820  11.5016973 112.0450878  60.1305866  11.1277032
  84.9843884  23.9872789  23.2336450  84.5335960  23.1510305  23.3507276
  84.2853451  24.6409011  23.2525134  23.9937470  89.3726034  87.6173746
  24.3476842  89.6871728  86.7855072  23.9099953  90.1600427  88.1551057
  71.4453602  89.0129185   4.7679579  71.0178995  89.7531891   4.3372589
  70.9337234  88.2504559   4.4975549 102.8270435  36.4187789  28.9829350
 101.9638348  36.1635661  29.3084455 103.3295536  35.6041551  28.9725137
 100.1327324  55.8480167  21.0682154 100.8117580  56.4902306  20.8615255
  99.5863152  55.8160353  20.2829504 113.9952850  21.5823650  18.0899239
 113.7131882  20.9295106  17.4492741 113.1814766  21.9741273  18.4068990
  76.8845450   1.9860835  94.4096076  77.5318705   1.3597341  94.7334802
  77.2871004   2.3638005  93.6276175  75.5977678  39.0718436  22.3100829
  75.8682823  39.6699214  21.6134071  74.8923159  39.5344472  22.7623725
  99.5736790  34.8264289  42.9181337  99.6490574  35.0014210  41.9800901
 100.0366306  33.9983344  43.0452585  16.6071854  52.0986176  28.6819410
  17.2446308  51.9739676  27.9788351  16.6478787  53.0344296  28.8789940
   8.2544861  18.8353145  50.7913971   8.3721981  18.0848873  51.3738346
   7.8182373  19.4928849  51.3331699  31.8129323  73.2429272  86.6738593
  31.2712071  73.8552994  87.1716195  31.4788506  73.3006174  85.7787096
  24.4007275  97.1884007  91.0468665  24.1432641  97.2906203  91.9631061
  24.7299836  98.0505843  90.7929796  43.6021887  16.2618489  87.5005930
  43.5853468  16.0023351  88.4217882  44.3476282  15.7879443  87.1318471
  93.5137367  54.7749186  21.3312697  93.7025166  53.9051390  21.6835117
  93.7903214  54.7279167  20.4161072 100.6159782  48.9215946  19.3216467
  99.8499870  49.1726828  18.8054717 100.9989262  49.7528839  19.6018922
 110.8681297  40.7872486  44.4024658 110.1602554  40.7879400  43.7581444
 111.2800121  39.9287271  44.3048573  73.6670862  25.0281758  89.0828365
  73.7051855  25.5279965  89.8982888  74.5796095  24.8108382  88.8922751
  98.7805939  63.3476830   3.5956433  98.0809498  63.7051916   4.1423839
  98.5788441  63.6603212   2.7137214  71.9425154  36.3301969  16.9460285
  71.7491102  35.6934714  17.6340747  71.6401243  37.1660089  17.3012900
  68.6459684  66.7661810   0.7304127  69.5104456  66.6427851   1.1224461
  68.7675190  67.4774361   0.1014653  74.4352579  65.3214216   4.2886084
  74.8560333  64.4739485   4.1437951  74.7646475  65.6100512   5.1397431
 101.4766979  25.8278799  31.3785172 101.7753983  24.9289608  31.5162063
 100.9228992  25.7795453  30.5992866  78.6506748  48.0370331  56.3782120
  78.1289911  47.2659445  56.1557388  79.4230938  47.6843071  56.8200016
  61.3744688  25.7487369  14.7868407  61.2378693  26.1743689  13.9404309
  60.9953880  24.8762989  14.6801603 109.8814583  34.4101548  40.3349209
 109.4715309  34.6940064  41.1520004 109.8425198  33.4542823  40.3668690
 116.5236759  71.6293383  21.2416983 116.0938549  70.7744884  21.2147570
 116.7273045  71.8239737  20.3268838  60.3195143  67.0487785  27.6401305
  60.6168318  66.1529255  27.7991486  60.3815031  67.4768353  28.4940386
  91.7625713  32.3853660  10.1723349  90.8202553  32.5460315  10.2218735
  91.8697453  31.8236709   9.4047123  76.8956137  59.9599981  15.7170141
  76.1041403  59.4300795  15.6222188  77.2090197  60.0847769  14.8212254
  79.8438263  44.0236378  21.6615582  79.4824791  43.7797832  22.5137305
  80.5969906  44.5763636  21.8700576  50.0946188  58.0261850  14.9375594
  50.6070042  58.6233664  14.3925190  50.2832603  58.2997274  15.8352363
  50.2720785   3.6485028  10.5424297  50.2533150   4.3274277  11.2169218
  49.4295311   3.7312719  10.0957763  90.1422119  67.6936197  24.8175812
  89.3620682  67.7144384  25.3718114  90.4858971  66.8062592  24.9210358
  35.9877669  24.5233817  82.4123126  36.3097369  24.1784902  83.2451480
  36.7586933  24.9138732  82.0007092  86.7094135  10.8540010  17.2054148
  86.8972683   9.9635136  16.9088066  87.0208836  11.4140069  16.4943516
 105.4546261  47.3912764  14.7651470 105.3200340  47.2697496  13.8252819
 106.4055061  47.3797178  14.8743987  99.1153049  53.0156279   7.9532492
  98.4742832  52.3501253   8.2031131  98.9476871  53.1726980   7.0240211
  93.6927795  33.9981842  21.6602254  93.8217258  34.8913217  21.3409925
  93.1538486  33.5794163  20.9890938  82.9674339  52.6718378   3.3425882
  82.0485020  52.8363371   3.5541040  83.4060478  52.6353741   4.1926014
 110.2340948 100.4769224  77.6640087 110.7803452 101.2115902  77.9434746
 110.5858004  99.7231621  78.1377011  13.9725564  86.2269873  92.7500622
  13.0748055  86.5001125  92.5611740  13.9076588  85.2856726  92.9111486
 103.6851406  50.4668713   2.7755862 104.2424488  50.0798512   3.4507537
 104.0536499  51.3384485   2.6314470  27.6461350  93.3297216  32.8110075
  28.5745608  93.5323023  32.6960421  27.4505650  93.6029577  33.7072921
 105.3107357   6.7643934  21.3846827 104.5460415   6.2085569  21.2346077
 105.9998989   6.3738227  20.8473325   5.8086369  53.1911755  62.0722276
   6.3358662  52.6812280  62.6872188   6.2853692  54.0154014  61.9741851
 104.4142532  20.6687641  14.2495298 105.2503300  20.8008170  13.8025677
 103.7547398  20.8077168  13.5698485  52.9115841  74.5994372  69.9782997
  53.4401295  75.2530999  69.5204788  52.3604558  75.1098580  70.5715591
  85.0369740   2.5476426  16.6175294  85.7138824   3.2215831  16.5556264
  85.3365326   1.9711569  17.3204958  29.1502926  81.7084522  87.4144798
  28.7174485  80.8593768  87.5036406  29.2276166  82.0332498  88.3115637
  96.7687035  55.6244230   0.2765295  96.6084290  54.8550940  -0.2699842
  95.9474659  55.7571888   0.7499889 105.6549072  32.7313447  32.2815275
 104.9334717  32.2350883  31.8948770 105.2789879  33.5905337  32.4731231
 103.7167168  45.2502155  50.0241470 103.2401180  45.9970951  49.6618509
 104.4737816  45.6389046  50.4623222   8.3652470  85.5200238  91.7259201
   9.2827485  85.7576126  91.8599754   8.1810544  84.8789925  92.4124938
  92.7236652  74.3216753   9.8960346  93.0118465  74.9440527   9.2283309
  92.1616650  73.7071705   9.4240421  75.5437708  63.8244390  36.9813228
  75.6495523  62.8812742  36.8568921  74.9029112  63.9024019  37.6880407
  85.9822178  12.5329447   7.0637900  85.7698345  11.7904615   6.4982438
  86.5752029  13.0713415   6.5396404  85.1354980  70.9886265  34.0395999
  85.6652355  71.7692184  34.2017055  85.0997543  70.9172678  33.0857325
 104.5492363  39.3798399  33.3236670 105.0182247  38.6002564  33.6212206
 105.2245998  40.0549126  33.2574058 116.2800312   3.0724761   9.6016920
 116.4934921   2.6289815  10.4226553 115.6012249   2.5270280   9.2042720
  82.3200703  79.5339775  12.6811254  82.4425316  79.2260885  11.7831063
  81.3720226  79.6265221  12.7754045  13.1083748 104.9499363  95.0831798
  13.2489750 105.7843632  94.6357488  13.1792424 104.2922587  94.3913195
  86.0443401  17.9754138   6.3412780  85.1925468  18.0836141   5.9182358
  86.0495949  18.6296523   7.0399743  39.2823289  92.9181642  91.4888453
  39.1978810  92.5373406  92.3629597  38.6912606  92.3991913  90.9433707
  17.9855988 107.9225725  89.7079098  18.6633561 108.3730788  90.2118128
  17.7759621 107.1470064  90.2282816 104.6287453 104.1291470  76.3707763
 103.7208998 104.0499396  76.6636461 104.6116841 104.8368306  75.7264739
  79.2818689  36.9865775  37.2470403  79.5216036  37.9060984  37.3621130
  79.9407721  36.5031028  37.7453709  57.9027462  30.1761580   1.3521993
  58.6159563  29.8157811   1.8791664  58.3415127  30.6149864   0.6234036
 111.9925499   3.8904035  12.6023185 111.3093376   4.4482595  12.2305036
 112.6321888   4.5038462  12.9639554 100.3560066  49.5273876  51.4893961
 100.0136471  49.9439716  52.2802687 101.2920475  49.7272778  51.4994144
  40.4040310  95.0332970  68.1724006  40.6216309  94.5652670  68.9785224
  39.5498726  95.4281229  68.3477956  90.4688644  80.8572960   4.6103925
  89.6065426  80.6627083   4.9774936  90.6954193  81.7140293   4.9722028
  74.5673847  35.2483296  30.0005651  74.5746565  36.1909461  30.1668644
  75.1082563  35.1389241  29.2184424  84.4577872   5.5927415  80.3192729
  84.3261420   5.8187432  81.2400466  83.9019381   6.2072034  79.8399991
  13.0375264 100.7679314  92.3322081  12.2214196 100.8286423  91.8356898
  13.2284138  99.8305554  92.3655796   4.3081925  67.5675470  85.6531489
   3.8736699  68.4190232  85.6040776   5.1142380  67.7377254  86.1405504
  65.2087389   4.4284911  95.1970548  64.4725024   4.0851159  94.6908266
  65.9821211   4.0381188  94.7899531 102.1967900  73.5345311  81.7190319
 102.3571169  74.3602962  81.2622636 102.5415146  73.6775345  82.6004785
  90.8055115  48.4336519  17.1517348  90.4699421  49.2046356  16.6943395
  90.0356007  47.8810787  17.2863925 108.8445473  22.7082705  32.2117710
 108.6230564  22.6452374  31.2826848 109.5348549  23.3703279  32.2490501
  68.1138182  38.2882786   4.4306102  68.0268192  37.3366356   4.3755221
  69.0400553  38.4333372   4.6236825  27.9876194  45.9369946  15.4113996
  28.8822136  45.7779884  15.1103103  27.4583016  45.2938461  14.9397862
  33.0742428  92.2697992  92.1937024  33.2860158  92.8153891  91.4362612
  33.5848878  92.6463718  92.9104018  87.4440098  48.5382080   5.8509028
  88.2562160  48.1547356   5.5199927  86.7604637  48.1732130   5.2889574
  49.4081450  46.6934967  13.9778459  49.7770214  47.2646379  13.3040822
  48.7752914  46.1487675  13.5098720  84.4036448  79.0895194  66.6378099
  84.0614283  79.9422283  66.9061452  85.2017653  78.9783973  67.1544271
  41.6182873  98.8474221  81.9469136  41.6156647  99.7922510  82.1002704
  40.7267354  98.5684342  82.1555310 115.7827759  19.6116936  26.3561869
 114.9908638  19.3265820  25.9003234 115.5291748  19.6453965  27.2785664
  88.6219978  30.9702086  36.3787937  88.6223412  31.8798971  36.0809660
  88.5210514  31.0292578  37.3288202  61.0978889   9.5212317  19.0834332
  61.9933033   9.1937137  19.1682792  60.6535912   9.2109489  19.8724544
  72.9972458  33.2652426  27.6817012  72.0423031  33.3090830  27.6327682
  73.2404184  33.9839697  28.2652497  80.5336571  35.1427770   3.7565947
  80.3918648  34.2919874   3.3415216  81.4835358  35.2049041   3.8570967
  25.7272122  67.2798890  86.2186241  25.8875916  66.6863949  85.4849517
  24.8115323  67.5406999  86.1199611  47.3724270   3.5618350  21.5894341
  48.1551027   4.1128153  21.5979195  47.6673698   2.7213752  21.9399643
  14.5456002  75.5651612  65.0316888  15.0323937  75.4574818  65.8487993
  15.1304219  75.2197904  64.3571979 106.7462444  10.8591378  30.5528450
 106.2073231  10.9596574  31.3375068 107.2123623  11.6914690  30.4741788
  93.3183085   1.9620843  81.8943888  93.1900679   2.7910943  81.4333826
  93.2749640   2.1946139  82.8219026  86.2674904  39.1164064  11.5914404
  87.2033119  39.0034938  11.7579281  86.1559105  40.0607729  11.4820993
  19.1363022 107.0207495  83.9913732  19.5675252 106.2546248  84.3699592
  19.6910641 107.2663922  83.2510108  89.9753189  59.4466925  26.7076421
  89.2015648  59.5867872  26.1618304  90.7071018  59.4479179  26.0906076
   3.4566853  57.3156438  82.5932354   2.7796338  57.7827824  82.1037322
   3.5550091  57.8161309  83.4032219  88.2164288  65.2231312  36.6892338
  88.9020061  65.1259804  37.3501253  88.1916046  66.1623287  36.5061498
  26.1456463  94.6828312  91.1301896  26.0315011  93.9214582  90.5614054
  25.5698941  95.3497452  90.7560754  52.1316767  48.9003086  35.3298807
  52.6765919  48.1260061  35.4704475  52.6631403  49.6287298  35.6510973
  70.5771255  20.9452391  22.0292592  71.0465860  20.1695514  21.7224288
  70.0176382  21.1933088  21.2932801  98.1185246  16.5581501  21.8321276
  98.5782528  15.7576919  22.0853901  98.1511211  16.5606070  20.8754873
  89.2860603  38.3011961  11.6840649  90.0340462  38.8061404  11.3650453
  89.6581364  37.4567890  11.9385612 107.3249626  48.7117529  10.9352970
 107.7748585  48.2013035  10.2620459 107.9461575  48.7491417  11.6625869
  98.1950629 101.3928885  83.1898886  98.3285010 101.0196251  84.0611523
  98.3965981 100.6758303  82.5886875  92.4418259  55.1569271  10.8495724
  92.1319580  55.6747675  11.5925717  93.3457851  55.4431438  10.7185340
 101.1937046  81.3986969   6.3646770 100.4971504  82.0498180   6.4488995
 101.6164398  81.6066074   5.5314320   8.4917805  95.9217018  55.1181823
   9.0789578  95.1666159  55.0821811   8.9884637  96.6310067  54.7102242
   2.8927765  66.8114281  31.5032625   2.6375733  66.1701345  30.8400512
   2.8420601  67.6546478  31.0531092  74.0442085  33.1846642   4.6248230
  73.4057331  33.5952210   5.2079356  73.5146189  32.6837254   4.0044808
  97.4019348  85.3197975  75.0086146  97.5067484  85.7131500  74.1422897
  97.6811182  86.0035748  75.6174963  62.4356699  73.7010145  10.0735366
  62.6455116  72.9916716  10.6810188  61.9040155  74.3079615  10.5885053
  76.5614033  61.0145617   8.0833179  77.0567179  60.1954889   8.0871332
  77.0148039  61.5656757   7.4454045  75.4471111  26.8918085   4.2732611
  76.0347557  26.1657977   4.0639508  75.9606171  27.6774311   4.0852749
  24.7059393  56.3231659   3.9360234  25.2776122  57.0434284   4.2018130
  24.3181825  56.6168451   3.1116280  97.1375084  88.2814693  56.8847799
  97.2054291  87.7698517  57.6909208  96.6138172  89.0446281  57.1288490
  76.4389801  68.2976818   6.7427051  77.1908712  68.2178450   6.1557472
  76.7563820  68.8377953   7.4664235  88.2463705  87.2153229  90.1226625
  88.0672657  86.3883442  89.6751618  87.3819411  87.5525851  90.3577000
  71.5334463  55.1845312  57.1619749  71.7918110  54.5814323  57.8589344
  71.4456129  54.6306181  56.3862801  94.9174976  74.8974943  42.6713896
  95.4224491  75.1662827  41.9039202  95.0041294  75.6285763  43.2831478
  97.5506985 104.9501843  39.3454534  96.7155182 105.2263874  38.9680797
  97.3648464 104.0985770  39.7409946  96.7296707  64.1062368  87.3527676
  96.2728417  63.7742913  86.5798831  96.1471855  63.8978476  88.0831891
  75.9233761   7.1295989  28.9401031  76.5845966   6.9151312  29.5981479
  76.3612175   7.7453738  28.3524418  90.4840933  10.9764953  95.0986563
  90.3278242  11.8801017  95.3730808  90.2043616  10.9523149  94.1835622
 113.0596924  59.0735579  45.8755684 112.2888374  58.8754129  46.4073133
 113.7665462  58.5725117  46.2824297  94.2297554  28.7411594   2.2637282
  94.9961281  29.2979574   2.1263157  94.0927505  28.3098245   1.4202760
 109.7936821  80.4063416  12.8843534 109.4179058  81.0767365  12.3137534
 109.0364170  79.9320030  13.2275486  35.7689606  18.2870145  68.6366039
  35.2078711  18.0676646  67.8927618  36.6528260  18.0655189  68.3434230
  95.0546633   4.0035672  80.8046502  94.8061549   4.7491736  80.2582592
  95.1958548   3.2884784  80.1842099  83.6872482  54.1464186  31.6050458
  83.1349754  53.6746454  30.9816170  83.1931019  54.9402189  31.8098259
  50.2714812  36.1950727  71.6204601  51.2260424  36.1964269  71.6915351
  50.0166308  35.2976365  71.8346840 114.4394398  55.1530552  53.7353754
 114.6025276  56.0552788  53.4603691 114.9575043  55.0485611  54.5334530
  13.3812580  71.0201120  22.5485730  13.7040291  71.1398840  23.4417152
  12.4483071  71.2276220  22.6012182  82.7468109  49.7937441  20.3508782
  83.0613613  49.2388964  21.0646248  81.8327427  49.9726439  20.5715775
  35.9174048   5.9142060  88.1765312  35.2306877   5.8997483  87.5098669
  36.1221634   6.8424172  88.2893747  86.2916470  44.5047045   9.7347444
  86.3911343  45.3257656  10.2166069  87.0620060  44.4647408   9.1680086
   8.0558167  58.1396246   4.2837581   8.1039486  59.0874577   4.4083846
   8.7728463  57.7916384   4.8138592   8.0823002  17.3835719   0.9350079
   8.0464230  16.4329541   1.0411704   7.5943814  17.5531602   0.1291528
 104.6115589  35.3282022  23.1766224 105.2440357  35.0327826  23.8315511
 103.8497734  35.6037331  23.6865211  70.1017141  65.3324413  10.2358317
  69.3569517  64.8660278   9.8563325  70.6467819  65.5651951   9.4841963
  29.3641064  86.7558665  94.2271137  29.3512509  87.6937742  94.0363372
  30.1076291  86.6420335  94.8191038  88.7775707  41.0387468   7.0453787
  89.2270947  41.6507626   6.4626282  88.1962490  41.5899611   7.5692642
  80.6119823  45.6355095  19.0298283  79.9986649  46.2498140  19.4331956
  80.0798702  45.1396370  18.4075749  93.6693668  54.6571493  25.1151371
  94.6180916  54.7842741  25.1142859  93.3126831  55.5141115  24.8814344
   9.5147286  54.7925043  16.6998506   9.7975121  53.8927794  16.8634450
  10.2670918  55.3291368  16.9492567 100.5296230  76.9374132  38.7966084
 101.2525177  76.3437557  38.5935616  99.9903297  76.4530802  39.4217610
 105.8326626  40.9968281  45.3848410 105.3333664  41.2773705  44.6178770
 105.2238274  40.4482508  45.8794403  89.6365261  50.7328987  16.3846576
  88.9820194  51.2743998  15.9434903  90.3599644  51.3325548  16.5670991
  91.0500240  76.1632919   2.3376152  91.6928864  75.6557226   2.8329262
  91.1164570  77.0485210   2.6956579 101.7425156  40.4554367  38.6215138
 101.6671085  41.1798000  39.2426777 102.5714874  40.6128168  38.1695366
  92.8631020  78.8746309  18.5326505  93.4786510  78.1568289  18.3840251
  92.0205975  78.4424925  18.6729002 108.6756516  59.9289513  46.7955256
 108.6021423  59.4921970  45.9469557 107.8754425  59.6848679  47.2606373
   5.3862820  75.7765293  14.2119098   6.1241303  75.9598637  14.7934604
   4.8423348  75.1600933  14.7021651 109.8987007  23.8732433   7.7863646
 110.5594730  24.4520164   8.1666785 109.5781231  23.3571076   8.5260016
  79.8236656  71.4748907   4.0079868  80.0603008  72.3987579   3.9261466
  80.4880047  71.1082649   4.5914900  89.4408213  18.1093020  93.0421158
  88.7193953  18.4102531  93.5945658  89.5687853  18.8159556  92.4092680
  75.7547079  20.3790374  87.8583890  76.6398608  20.2007003  87.5406927
  75.5647265  19.6562285  88.4564590 115.2461147  19.6235442   4.8457325
 115.6151199  20.4822135   4.6389613 115.5586529  19.4353378   5.7306796
  53.1971632  30.3736730  74.6953469  52.5671469  30.0543828  75.3413850
  53.2210337  29.6899743  74.0258556  54.3704653  63.9847422  22.7440190
  53.6258221  64.0218925  23.3443189  55.1389456  64.0417290  23.3118439
   7.8498612  63.1838131  17.4010575   7.6224480  63.8125515  18.0860436
   8.3305512  62.4942255  17.8589141  22.8606198 105.4086155  92.5657928
  23.2238839 104.6018833  92.2004941  23.5858891 105.7983298  93.0539861
  84.4744015  43.0942011   6.1399251  85.1168823  43.7317133   5.8284372
  84.8227406  42.2473288   5.8611846 102.2263050  50.4104424  35.1676440
 102.7758598  50.1567554  35.9091711 101.6593266  49.6535444  35.0197172
 108.5669899  83.0743313  27.2444415 108.9202213  83.9178562  27.5271344
 108.9390087  82.4410439  27.8582764   6.0436879  46.4422178  22.9802799
   6.6210709  46.0622549  22.3180890   5.5274544  47.0921230  22.5034642
  34.6028969  97.9573817  74.2534953  33.6576531  97.8341097  74.3403870
  34.9654839  97.0730013  74.3047410  39.3582592  61.9075108   3.3888009
  38.7943802  62.3742914   2.7720401  38.8040886  61.2102509   3.7394583
 108.7624264  62.1728420  13.3167386 108.6326981  61.3534546  13.7942398
 108.1498241  62.7861786  13.7226522 115.9379292  54.0315580  23.0883694
 115.6953526  53.6797714  23.9448929 116.2331295  54.9236584  23.2707071
  70.6554781  15.7946963  86.6546976  70.7912527  16.6677518  86.2865072
  71.5049921  15.3626008  86.5660411 101.8460083  34.6909451   6.5111113
 101.4630699  35.5616736   6.6179675 102.2847462  34.5183706   7.3441541
   6.2465058  76.4659786  44.5142269   5.8298073  75.8232880  43.9401674
   5.5596505  76.7159939  45.1322556  52.2690556  67.9747290  93.9162741
  51.6501401  68.0334968  94.6440926  52.0984147  67.1178181  93.5253571
 106.4612293  22.2030067  33.6255336 106.8662357  22.0036697  34.4696093
 107.1512222  22.0361543  32.9834342 101.9330978  40.1638222  49.9673367
 102.4807549  40.8736229  50.3027296 102.4139595  39.3659163  50.1872396
   9.8613522  96.9893355  83.8870722   9.1010831  96.4743466  84.1572875
   9.6012471  97.8979773  84.0385598  85.8412933  53.8330936  11.1455905
  85.1337051  53.4958601  11.6949749  85.4031181  54.4036293  10.5141437
  72.6833712  11.4386220  71.1595899  72.1591650  10.6392045  71.2082630
  72.1609293  12.0959706  71.6191369 102.2347069  21.6144228  12.6707506
 102.9647541  22.1768880  12.4121082 101.4912033  22.2111773  12.7562809
   0.3622971  52.4589205   4.8725495  -0.0203457  53.1337452   4.3118140
  -0.2661934  51.7375946   4.8422062 107.9268347  29.3994660  86.4456361
 107.3283850  28.6543031  86.3924360 108.7632452  29.0579839  86.1293423
  59.1751467   0.7491488  82.1002596  58.7183939   0.2022977  81.4610690
  59.7836672   1.2712426  81.5774280  31.7186806  98.2632584  83.1210762
  31.0441373  97.5985331  82.9819196  31.9474766  98.1821389  84.0469831
   9.8090146  90.8967990  84.8491925  10.5005238  90.2377409  84.7883886
  10.2201054  91.7044229  84.5410007  64.2788588   9.6559138  67.9376203
  65.0485884   9.3636079  67.4494511  64.5566832  10.4697413  68.3580094
  84.0207754   3.7800117  91.8816224  84.9440848   3.6571307  92.1021238
  83.5764395   3.8261743  92.7281871   8.2395802  41.4940453   4.0973708
   7.3267422  41.4863729   4.3852895   8.3870087  42.3892927   3.7923601
  44.0504729  33.6781068  94.3902205  43.9112078  34.4303365  94.9655451
  44.8013960  33.9251657  93.8504865  80.3123569  44.9100971  36.0683250
  79.4130945  45.0842905  35.7904553  80.3426838  43.9626646  36.2013030
  92.0167542  39.4007587  11.2520123  92.5864124  38.9959693  10.5978894
  92.2151089  40.3355503  11.1967659  88.3430468  25.8270879  93.3177966
  87.9907976  26.5418000  92.7873866  87.8024565  25.8261056  94.1077269
  34.8622868 105.7210297  78.4031707  35.7229493 106.0283608  78.1184906
  34.4520829 105.3854698  77.6060766 107.1796417  36.3093758  20.1753259
 106.5580750  35.5859733  20.2564120 106.6392136  37.0646548  19.9435258
  36.5290127  85.7295704   8.3307225  36.5284214  85.7154560   7.3736268
  36.9810448  84.9240685   8.5818595 104.6622753  51.6105413  13.0082238
 104.0892410  52.2463703  12.5797570 105.4436970  51.5821838  12.4561334
  65.9077809 109.1683811  82.6265484  65.6153748 109.2236609  83.5363143
  65.5417416 109.9483342  82.2095078   1.9842205  54.2942810  33.3089447
   2.4225006  55.1447630  33.3376122   1.0560475  54.5063543  33.2102108
  67.2223997  49.8227024  45.0246811  66.5012884  49.1988850  44.9405289
  67.6444530  49.8182297  44.1655636  48.1499468  10.0228162  82.8863972
  49.0263068  10.0717301  82.5045162  47.7154051  10.8233018  82.5920731
 109.0583038  92.0858097  13.5119724 109.5471668  92.8789425  13.2924545
 108.5593128  91.8851566  12.7201486 100.8455372  66.6476774  37.9669142
 101.3041878  66.6710186  37.1270776 101.5283298  66.8118715  38.6173487
   5.2515957 105.5406470  90.1890349   4.5371983 105.8037848  90.7692277
   6.0470841 105.7469839  90.6798032  95.8071327  42.3047686  36.1186028
  95.8520699  42.9293108  35.3946137  94.9239540  41.9395351  36.0653830
  91.0235596  78.4640026  29.4885421  91.8895531  78.7551069  29.2029810
  90.6596184  78.0122566  28.7271619  13.2373295  70.6714582  12.2674656
  13.0721436  71.5947056  12.4586582  13.2386551  70.2458286  13.1248283
  98.6306286  48.9260483  35.5349088  98.6189079  48.0572033  35.1334023
  98.3339500  48.7789011  36.4329958  67.8089606  12.4380536  45.6589490
  67.6784884  12.3598905  46.6039878  67.4122702  11.6460986  45.2960807
 101.2122440  59.7009897   5.2994144 101.0019016  58.8254356   5.6240660
 102.1574593  59.7828102   5.4263276  64.2396212  87.9019260  17.8828835
  64.8121357  88.5672951  18.2646382  64.7115469  87.5955963  17.1084940
 100.8940125  65.8216238  29.5226979 100.5656052  65.2984095  28.7915206
 100.6250286  65.3375673  30.3034449  98.5761547  88.9948845  32.5255513
  98.1988144  88.5424900  33.2799864  98.3176517  89.9092960  32.6407075
  93.5794353  25.3173137   1.6791204  94.0039062  25.7820582   2.4002810
  93.8796616  25.7714796   0.8918262   2.6131211  62.9322958  23.6226416
   3.1339321  63.5355043  24.1528535   2.5587616  63.3532763  22.7647066
  15.0150452  83.1325340  28.5168099  15.6568585  82.4225521  28.5323691
  14.4632302  82.9399967  27.7587414  29.8202954  52.8113890  37.3434663
  30.2847157  52.0057249  37.1166611  29.7897873  53.3084822  36.5260315
  42.4085509  25.7942529  73.9456802  42.4002253  26.1457009  74.8359853
  42.5759970  24.8586602  74.0590626 116.3601589  85.3628254  11.6144109
 116.4035416  86.2334633  12.0098054 115.5384541  84.9935246  11.9379020
  65.6323038  32.8718419  87.2920429  64.8337542  33.1159158  87.7599823
  65.3233992  32.3776765  86.5326971   7.0985756  75.2542734  21.3910437
   7.2695790  74.8975182  22.2626591   6.1444435  75.2526140  21.3145280
  33.3415842  61.6198111  75.0178337  33.8842845  60.8870840  74.7265959
  32.6217651  61.6500521  74.3876171  14.7523510  53.2413197  92.9709911
  14.5561671  52.3239088  93.1609917  15.5974901  53.2175446  92.5222111
 110.2108260  47.7111959  63.3994484 110.6705864  47.9401922  62.5917292
 110.7985409  47.9969788  64.0988398  13.3348417  33.9417028  59.7017479
  12.5726223  33.9408565  60.2807570  14.0057218  33.4626794  60.1882505
 103.5445560   7.1096850  41.6089106 103.9714826   7.1454669  40.7529449
 103.9488567   6.3608409  42.0470953  50.3950097   8.0244308  18.9673251
  51.2292244   7.6911169  18.6368388  49.7463491   7.3889595  18.6646003
  95.6449237  88.8761711  92.0664597  94.8765983  89.4255161  92.2217751
  95.7084646  88.3268166  92.8477478  10.3853882   3.1174994  57.8136778
   9.7577060   3.8355208  57.8955269  10.4194368   2.9350043  56.8746519
  77.6738492  63.8289362  23.8017005  77.9472254  64.1315847  24.6676654
  77.6502277  62.8750616  23.8777751  98.6934950  47.6878648  15.4313010
  98.2309773  46.9071870  15.1265830  99.2614367  47.9304987  14.6999949
  13.9323640 106.4854908  90.3805065  14.4581890 107.1518326  89.9380875
  14.5749736 105.8827400  90.7546425  95.9807649  33.9638239  10.4568309
  95.7703175  33.0304247  10.4835147  95.1711407  34.3836694  10.1662082
 106.9993367  68.7861681  54.5006275 106.4337291  68.1462574  54.0683794
 106.7588683  68.7322092  55.4255581 106.3800254  71.4881754  58.1044054
 105.6999375  71.2772417  58.7441063 106.1462834  72.3596668  57.7848768
  39.4531912  17.9589987  82.5920677  40.2234493  17.4341346  82.8098869
  38.8350528  17.7830458  83.3014202 111.3743897  81.7640686  79.1710663
 111.9232806  81.0508156  79.4969749 111.1775388  81.5206814  78.2664967
  20.8967686  79.3609905  63.7135839  21.1257386  79.5230579  62.7984142
  21.3636088  78.5561514  63.9383650  57.7021398  21.8736797  20.8970565
  57.1891286  22.1451908  20.1359195  58.6129048  21.9769960  20.6212634
  50.6784965   4.0760375  65.6171036  51.5168394   3.6760951  65.8483076
  50.7851292   5.0010443  65.8389807 105.6636061  58.5619116  86.6397667
 106.1694564  58.9723110  85.9383965 105.5790093  57.6472855  86.3704491
  83.9654674  81.3810444  70.7408047  84.5278134  82.0151901  71.1856127
  83.2620396  81.2050152  71.3656521  97.9783180   3.2872921  19.4036693
  97.6795699   3.7676054  20.1758689  98.5547330   3.9008575  18.9481372
  54.6295001   6.8525320   5.3918761  55.5769303   6.7677551   5.2849978
  54.2627671   6.1760097   4.8226184  79.6579144   8.4482628  28.8343066
  79.5348678   7.9249006  28.0423564  79.8120328   9.3365818  28.5128039
   5.6094116  69.3432760  82.8557682   5.4472494  69.9425459  83.5843372
   6.2437671  68.7143183  83.1996250  11.7544329  89.8295784  51.4201164
  11.8950951  90.0187492  52.3478317  10.8093536  89.6987915  51.3429546
  10.9248734  82.9749203  77.3089552  10.1147139  83.3708668  77.6300478
  11.4359641  83.7122631  76.9752741 112.8744104  65.1664352  77.8446245
 112.2162773  65.4791212  78.4653664 113.6476581  64.9941826  78.3818817
  62.4640216  75.8473253  72.0978928  63.0392923  76.5795326  71.8761539
  62.7127542  75.1537609  71.4868832 110.7994928  88.8491535  83.3958912
 110.9656670  89.6145821  82.8456783 111.5185498  88.8476944  84.0277004
  37.9266943 105.7204442   3.8338012  37.9455025 106.6272407   4.1397399
  37.0240087 105.4372363   3.9793509   3.2415825  87.3298454  64.5739031
   2.4562857  87.0860004  65.0638819   3.3714053  86.6103840  63.9560318
 109.1850569  71.0695601  58.0803204 108.6774304  70.8467865  57.2999859
 108.5449835  71.0642576  58.7920141  25.2425122  54.4574738  88.0298710
  25.5986118  55.3323889  88.1846333  25.9880662  53.8700771  88.1537533
 103.0522527  87.5672817  55.3668165 103.4504892  86.7694569  55.7148266
 102.2302904  87.2731304  54.9742794  50.8332146  13.9978171  86.8748188
  51.7721869  13.8833094  86.7283535  50.6985367  14.9447203  86.8364048
 100.9723510  74.8769903  89.4198132 101.0625186  74.4201422  88.5835171
 100.4909255  74.2648983  89.9764156 111.8927243  54.4277387  40.7221145
 112.4185851  55.2162939  40.8558291 111.3356879  54.3767553  41.4988631
  18.2489443  95.8716011  86.6991425  18.6702514  95.0724602  87.0155430
  17.4157071  95.9052467  87.1690559   7.7314365 102.7393818  83.4463406
   6.9332272 103.2669449  83.4742260   7.9190880 102.6380634  82.5131989
  69.0311828  53.5321623   5.9224242  69.9357190  53.4422880   6.2223739
  68.5021891  53.3548647   6.7002124  41.5324364  26.9658423  59.2975283
  42.1770240  27.1388674  59.9836779  42.0335270  27.0045996  58.4828854
  16.1073054  35.4547740  49.0736818  15.2507676  35.0303126  49.0246296
  16.5040268  35.2932692  48.2176685   4.2176428  83.3975887  66.8893003
   4.1429490  82.8921795  66.0798454   4.0502053  84.3017483  66.6234350
  24.9690056  69.0655613  83.5089111  24.2404914  69.4725180  83.9778328
  24.7941351  68.1260633  83.5636806  40.4562439   4.0716124  77.9159784
  40.3755645   4.9321604  77.5046730  39.9159909   4.1311408  78.7038994
  70.4645504   2.0916987  79.5437431  69.5606722   2.2516013  79.2723227
  70.4045809   1.3585330  80.1562023   8.9312184  63.6038542  77.3414230
   9.8144561  63.9693117  77.2907829   8.7096423  63.6409664  78.2718849
  16.2757707  54.7811890  47.4377108  16.7937851  55.0498819  48.1964588
  15.6801105  55.5142450  47.2826290   5.2818978 105.7603168  69.5208502
   5.6966013 106.3981915  70.1016808   5.1731384 106.2264156  68.6919022
 112.5647404  47.0860010   6.8452281 112.3719075  46.6318613   7.6654738
 113.5158303  47.0254808   6.7558116  43.0950118  17.3266841  57.6751757
  43.9211888  16.8434478  57.6631784  43.3357493  18.2054091  57.9686546
  22.3917783   9.8867655  82.9926205  22.7479960  10.5597926  83.5725975
  22.2722210  10.3322077  82.1538639  36.8752980  99.3428326  77.0383120
  36.1208558  98.7622929  77.1384048  36.8076468  99.6710682  76.1416960
   8.0696696  62.7164745  50.0789022   7.3664123  62.5548840  50.7078314
   8.8741338  62.5646734  50.5749130   7.2710800  94.3357086  72.7741957
   7.3741943  94.9361134  73.5125113   6.4042091  93.9494228  72.8988791
 103.1670513  92.3382378  75.2209520 103.4167375  91.7926216  74.4751740
 102.4189295  92.8458595  74.9065113  24.0276551  80.6891918  74.9603844
  24.6486759  81.3644028  74.6871662  23.4973693  81.1109543  75.6365013
 101.1392595  77.0546436  81.0676384 102.0040323  76.7288256  80.8181572
 100.7300498  77.3061657  80.2396774   8.0777889  99.6937561  89.7978687
   8.5907310  98.8893509  89.7200203   7.4609631  99.6561718  89.0668774
   1.3755584  85.3113461  85.6458950   2.2080858  84.8942089  85.4242516
   1.3204367  86.0638809  85.0569344  23.4566189   6.8938399  76.9202280
  23.8949121   6.1240340  76.5575743  23.6660458   6.8710185  77.8539562
  48.3956721  29.4384485  15.8589095  48.4752061  29.2988783  14.9152869
  49.1928818  29.0560728  16.2256164  76.3170732 101.0913854  15.9895629
  76.6936387 101.3094287  16.8421382  76.5700735 100.1801019  15.8419627
  10.4754329  95.4383278  81.4626312  11.3893938  95.3667259  81.7379093
  10.0602746  95.9654713  82.1452618   3.4487475   7.0812274  70.5764866
   3.8739003   7.6974631  71.1729097   2.6024641   7.4830771  70.3801441
  97.3766842  55.1804447  72.8889418  97.2449054  54.9015713  71.9827986
  96.8675139  55.9871483  72.9677248  82.4459269  31.8270879   7.3008746
  82.1111058  32.0986467   6.4462489  81.9628628  32.3640543   7.9290122
   1.3017969  81.2092304  90.6971359   1.5981776  81.4069557  89.8087120
   0.3467856  81.2477684  90.6451702  66.8324556  31.6773325   0.6209678
  65.8822181  31.7693620   0.5515975  67.1627047  32.5753313   0.5934161
 106.7508491  74.4932318  61.6583490 107.1688749  74.8266983  60.8644438
 106.4514901  75.2771997  62.1187925  30.2043225  33.0529643  85.8305645
  29.7506000  32.6510192  86.5713787  29.7252132  32.7457286  85.0609589
 108.4240343  67.7243906   9.4614810 108.0423167  66.8477827   9.5071811
 109.3335822  67.5763612   9.2025584  88.6916020   8.8565498   3.1087417
  88.3177342   9.4633918   2.4698371  88.6050215   7.9952627   2.7001780
  10.5672204  70.6460667  87.7436638  11.3336873  70.5997276  88.3151627
   9.8903954  70.1559544  88.2104874 100.1949932  33.8982015   4.1933459
  99.7125175  34.6647173   3.8836783 100.3516939  34.0726572   5.1213759
  46.9393587 105.5997562  82.9214859  46.6026688 104.8776054  82.3910427
  46.5473080 105.4661655  83.7844276  75.1849165  78.2743979  69.4062996
  75.5784549  78.2907343  70.2787066  75.5306759  77.4784184  69.0024471
 102.5630381  41.0192114  15.8090610 103.2089736  41.5942102  15.3987330
 102.2091415  41.5350538  16.5335578   9.9569511  75.1849508  89.9812603
  10.2475810  76.0762405  90.1745701   9.6206254  75.2315044  89.0863037
  96.9378271  26.9009119  48.6782855  97.7865889  26.7817789  48.2520884
  96.4327850  26.1277395  48.4265632   8.3486712  94.0600204  90.5801773
   7.8139782  93.3757019  90.9827328   7.9702008  94.1782570  89.7089672
  40.9735419   0.6748248  70.4796362  41.2715174   0.8176184  71.3779974
  40.0184729   0.7035113  70.5366611  31.3952875  75.4573584  70.9292603
  31.8410587  74.9493408  70.2514458  30.4652429  75.3726959  70.7193041
  94.2598571  64.1693783  82.1872139  93.6995282  63.6002064  82.7147484
  93.7673869  64.3070078  81.3780403  95.4268088  37.4837785   0.0861949
  94.5326557  37.7770906  -0.0890046  95.6030872  37.7740865   0.9811133
 102.5156715  44.8552900  19.9835128 103.0768874  44.7055631  19.2226905
 102.0270255  44.0385061  20.0851363 102.8144374  67.0314741  69.4877529
 102.2621979  67.2595787  68.7399387 103.6709478  66.8428612  69.1042900
  16.4883327  72.1432209  80.4985142  15.7359457  71.7740774  80.0360394
  17.1291065  71.4324331  80.5191231  98.0849268  65.9637976  56.0763311
  98.1189682  66.4919424  56.8739128  97.2067942  65.5828667  56.0786104
  89.5683088  19.7682195  24.2055911  89.4408884  19.2264467  24.9843520
  90.0525501  19.2069822  23.5999793  90.6807437  36.8789869  36.6852206
  90.5690350  37.4319177  35.9119052  91.4628031  36.3599401  36.4975947
 106.8305566  88.5618019  43.4579277 106.0778739  89.0186596  43.0824423
 106.7313316  87.6558876  43.1651783   5.6592906  98.5986996  84.0845203
   5.0661290  99.3205070  84.2927933   6.0437697  98.8401794  83.2418442
  93.2517328  76.8846130  79.2770100  93.1104340  76.3207722  80.0375080
  92.4849977  77.4573040  79.2576885  43.9599562  69.5249081  70.5674744
  44.4799376  68.7985706  70.2235317  44.5953655  70.2253056  70.7155704
  28.6932683  81.6120720  74.1535378  28.3570623  81.1709118  74.9336529
  28.5648584  80.9795856  73.4466410  23.5108757  67.8735733  93.2546520
  23.9667368  68.4285021  92.6218224  22.7901769  68.4165955  93.5739422
   8.0602288  51.8279934  83.4909916   8.2530475  50.9905291  83.9125443
   7.8685772  51.5997410  82.5813675  41.6696072  87.8748131  90.9772587
  42.5994539  88.0523968  91.1189747  41.2207413  88.4154606  91.6272259
   5.0473046 107.5725651  79.9766541   4.7060403 107.9724312  80.7765770
   4.6275556 108.0595779  79.2675257  94.5705082  54.6445375  13.1433505
  94.2816784  54.0708738  12.4336261  93.7646308  54.8831945  13.6014289
   3.5301271  93.9245415  62.0084763   2.8191251  93.3726597  62.3342562
   3.5272023  94.6860600  62.5884056 115.6263444 102.3120975  88.7868786
 115.0596433 102.0442486  88.0634594 115.8667672 103.2154465  88.5809994
  83.3077677  66.7447286   6.8317336  83.4322443  67.6183611   7.2025603
  84.0134867  66.2208372   7.2108382  10.9501159  85.3547859  70.7231188
  10.4410410  86.1641216  70.6778860  11.8611121  85.6407738  70.6558418
  94.9706568 101.2712097  87.5465870  95.8621754 101.1534023  87.8745270
  94.7867694 102.2008610  87.6813602  22.8410805   4.8585845  86.0213089
  22.6777412   5.6466532  86.5394878  22.6158978   5.1099730  85.1255798
  10.6481600 100.5129814  81.3654709   9.9748236 101.1583900  81.1503029
  10.6766021  99.9335957  80.6040668  95.5956509  54.1537195   8.2743854
  96.0715392  53.4253126   8.6733645  95.2324190  54.6374708   9.0161914
  68.3883418   6.8645240  85.8049679  68.5463084   7.6606513  86.3123703
  67.4357070   6.7716456  85.7954407  39.6427155  96.6468334  94.0304756
  39.2636061  96.6863632  93.1524467  40.5299234  96.9899750  93.9239693
 109.1177227  22.3126274   4.0230960 109.0317204  21.4557319   3.6052817
 108.4752586  22.8630119   3.5752601  94.5061829  78.0126005  10.4566020
  95.4288795  77.7762895  10.3616160  94.0290251  77.2268110  10.1899737
  58.8864101  33.1063033  83.7243843  59.6827878  33.3414412  83.2482338
  58.5125459  33.9449645  83.9947414  37.1934414  74.5455647  90.8975506
  36.5394258  73.8553143  91.0073090  37.4192739  74.8057413  91.7905998
  25.5949807 103.3667850  93.9070606  25.4859567 102.5583553  93.4062767
  25.0143027 103.2618046  94.6607399  10.3710855   7.8541709  74.7997427
   9.7078956   8.3097602  74.2812347  10.7581867   8.5373927  75.3470993
  77.9273118  57.8919225  17.2738189  78.4660722  57.6173502  16.5318126
  77.6325999  58.7728410  17.0428294  20.5784464  88.9193439  59.1349316
  21.1376238  88.2617855  58.7212133  20.4002643  88.5676861  60.0071812
  37.8581929  84.7174454  74.0440464  38.4182143  84.9587440  74.7818708
  37.9965878  83.7764835  73.9360094 100.3672721  76.1495977  48.1610316
 100.5011752  75.4286962  47.5457305  99.4187643  76.2772184  48.1776923
  98.2823875 109.2470360  68.8629198  98.2702686 108.3650398  68.4912348
  97.5788202 109.2431355  69.5119286  75.0957134  61.0613352   1.7018813
  75.5323961  61.7357927   2.2221107  74.5099329  60.6240373   2.3198337
  73.2707166  20.5770593  14.5619124  72.5328627  20.8672434  14.0256328
  73.9587995  21.2200456  14.3906230 113.1871422 103.8284111  68.4891558
 113.4776773 104.7295380  68.3484507 113.4038447 103.3767700  67.6735020
  83.6860373  60.6807142  36.7190188  83.3137526  59.8610883  36.3936633
  84.4215413  60.8589941  36.1329383  47.4308307   2.2204161  87.9064655
  47.2329504   1.3020945  88.0902195  47.0916427   2.3664523  87.0233727
 105.6985416  86.0768509  80.0677872 105.6098415  85.2214050  80.4879951
 105.0281145  86.6187477  80.4838562 103.5943224  46.5503126  16.3553828
 103.6059573  47.2261148  17.0331592 104.3303826  46.7708688  15.7845897
  21.7033839  79.7096586  88.8694954  21.2770963  80.0878143  88.1004047
  22.1465921  80.4490852  89.2854977  56.5965797  31.2909556  65.4839659
  56.1567546  31.9253493  66.0499382  55.8932723  30.7234908  65.1684093
  15.1850033  84.2409992  71.1144066  14.8063600  85.1059151  70.9569693
  16.0912287  84.3183517  70.8160734  18.7564778  69.3915606  87.2881413
  19.3068314  69.9129152  86.7037296  18.7834299  69.8591280  88.1229401
  47.1864080  75.6868839  66.7248106  47.3292494  76.6320038  66.6739798
  46.2626171  75.5965042  66.9586325  23.8932467  98.5800362  73.5423279
  23.3506536  97.8731441  73.8917971  24.1679955  98.2673454  72.6803732
  38.3150201  10.5629397  62.8456783  38.3085863   9.6343375  62.6135540
  39.2162589  10.8433867  62.6864576   2.4558207  74.2257023  82.8623772
   2.4002914  75.0502729  82.3794365   2.0069928  73.5905933  82.3043251
  87.6511803  75.2442938  28.5361499  86.8077936  75.6587415  28.3540458
  88.2959833  75.9338670  28.3782023  91.2011566  40.9327894  15.5755443
  91.2009957  41.8636327  15.7985991  92.0112731  40.5950933  15.9575290
  17.7276707  97.3859215  66.6182518  17.5508869  96.8146515  67.3656654
  17.8751266  96.7855263  65.8874893   8.1660730  93.0863285  47.9146814
   7.8378409  93.5522556  47.1456480   8.4187204  92.2247314  47.5829506
  18.6005235 109.4252586  80.4056168  18.3813953 108.6318779  79.9169922
  17.8046989 109.6322918  80.8955479  91.3483491  88.1874847  56.5417433
  91.1954727  87.2484779  56.4362669  91.1909403  88.5549545  55.6720161
  33.4654899   3.5268832  85.2851486  33.5842837   4.4093276  85.6364536
  34.3237073   3.1137515  85.3801060  92.0121445  94.3963432  93.6486530
  92.3379006  94.6512032  94.5118809  92.1225133  95.1799202  93.1100750
  93.0555847  46.5375333  10.5622214  92.3379197  46.1910158  11.0924167
  93.2385638  47.3978811  10.9397811  62.9775180  12.6968528  44.1787386
  63.6007298  13.3407927  44.5151472  62.7110304  13.0435610  43.3272648
  62.8878918  55.9141832   0.2607745  62.8829708  54.9688345   0.1107139
  62.2674146  56.0461336   0.9775943  93.5456886  42.4338632  23.4046287
  93.0919161  42.7033239  24.2032069  93.9589300  43.2347685  23.0821246
 109.2774417  69.4195848   5.4998225 109.3313267  68.8533312   4.7299689
 108.4051540  69.2547231   5.8578223 111.2091156  95.0745296  73.0559397
 112.0791318  94.9602222  72.6735306 111.3751896  95.4467297  73.9220333
  81.3875958  20.9757429  19.0965861  81.8004381  21.7933708  18.8185901
  80.8561992  21.2211710  19.8539561  18.6835326   6.2769747  67.4701405
  19.3860747   5.8205844  67.9331493  19.0221490   7.1617652  67.3333216
  20.7554317  54.9913454  86.5641403  20.3756022  55.0409746  85.6869221
  20.4149032  55.7630587  87.0166016  43.4007978  93.2000256  65.1669407
  42.6498079  92.7626419  65.5681133  43.1397200  94.1190910  65.1087713
  39.0718246 108.0768585  69.9134922  39.6530056 108.2604218  69.1754103
  39.3327069 108.7060547  70.5860138  53.9356877  18.2448817  94.3277836
  54.1997410  17.4456549  93.8719940  52.9914464  18.3029414  94.1819477
  18.6852206  23.4656096  82.1548271  18.4187425  24.3709994  82.3144913
  17.8693522  23.0080844  81.9517040 104.5653393  84.7531319  68.0633259
 103.8366868  84.1488552  67.9213619 104.7803440  85.0786304  67.1892262
  26.9375014  63.0273390  84.6229267  26.7025709  62.1051598  84.5198345
  26.9886374  63.1570530  85.5699158  26.2416208  61.9462209   0.4498977
  25.7051218  62.6405149   0.0673408  26.1237943  62.0455175   1.3946170
  31.2158132  98.2781696  65.4306602  31.4650321  98.9840508  66.0271931
  30.9342670  98.7266541  64.6332741  32.8680885  21.8526750   8.0664653
  32.0718658  21.9307714   7.5409526  33.5399854  21.5756183   7.4435538
  31.2444353  84.1623402  80.7842350  31.3903189  83.3654308  81.2940216
  31.9813204  84.1946602  80.1741695  11.0467219  71.8172550  57.4456167
  10.4796731  71.9780779  56.6914129  11.1509526  70.8660221  57.4683905
  94.0522625  31.0787874   5.7372588  94.0632155  31.9933229   6.0196418
  94.8195424  30.6894117   6.1566657 109.6026023 101.1952591  63.3397913
 109.9588229 100.3165054  63.2089567 109.0963521 101.3690853  62.5462389
  36.7021585  62.4865198  77.7580118  36.5120173  62.2719002  78.6712551
  37.3749018  63.1656981  77.8066540 115.9325126  88.6391258  55.6911707
 116.6286427  88.1649399  56.1459017 116.0894935  89.5586967  55.9055996
 108.4625747  39.0371900  12.8497714 108.6750939  38.2549291  13.3588237
 109.2629363  39.5617681  12.8713817  18.4094179  87.8015900  91.0081291
  19.0286231  88.3428383  91.4978886  18.8859951  87.5480556  90.2176762
  82.2204863  69.7397047  44.4536895  82.5113826  70.6145769  44.7110003
  82.1743902  69.2512518  45.2755851  23.0520582  90.0795174  60.1456308
  23.8460493  89.6606541  59.8134184  22.4326134  90.0300980  59.4175673
  79.5286866  38.0690962   4.6803493  79.6796618  37.1687895   4.3924350
  80.2575737  38.2568556   5.2717036  36.9833758  24.6215869  57.9304457
  36.4537041  25.1471854  57.3309326  37.7080778  25.1964427  58.1765699
 115.5099885  60.4750013  94.3541241 115.1769208  61.2951565  93.9899158
 114.8536893  59.8215437  94.1122627  41.9257116  82.2355461  88.5097027
  41.3665962  81.9373894  89.2271519  42.1958256  81.4313221  88.0664349
  45.7271099  93.4008598  77.1344900  46.0716581  93.8965988  76.3916826
  46.2021542  93.7429810  77.8918028  28.9236641 107.7962017  76.3169956
  27.9872942 107.9569817  76.4335680  29.3420315 108.6158848  76.5802574
  29.6273756  53.3516741  62.1028900  28.6866522  53.1752777  62.1154213
  29.6939874  54.2803526  61.8807411  93.9836790  10.5561882   3.2810039
  94.1583648  10.2358442   4.1659278  93.9254703  11.5067297   3.3775157
 108.0780365   4.4085801  59.9420738 107.9740407   4.9877644  60.6970358
 107.6554557   3.5915810  60.2069712  18.1093132  37.8084564  75.9278202
  18.1443572  36.9338369  75.5404663  17.2160494  38.1089330  75.7604122
  32.2859926 103.9891725   1.4952582  33.1482006 104.2437797   1.1666221
  31.7218871 104.0009694   0.7220382  14.9015629  81.9656563  74.8468351
  15.4191315  81.5945244  74.1322613  14.3133128  82.5875854  74.4185781
  16.3204193  87.3788929  54.1783953  16.4107573  86.6210079  53.6007547
  17.1586871  87.8355026  54.1073036  13.0082774  78.5310507  60.0823116
  12.2975802  79.1354370  59.8681593  13.7460375  78.8311291  59.5513725
  10.7394636  77.0053148  40.9246445  10.4045963  76.2370157  40.4622459
  11.2095094  76.6459846  41.6770887 104.7213986  30.3449636   6.2280005
 104.6857002  29.9590212   5.3527755 103.8636114  30.1558214   6.6083354
  21.0236168  48.7134218  92.7373886  21.1318183  48.2798624  93.5838795
  21.9157672  48.9179707  92.4572849 102.0942440  74.2433214  59.7507572
 101.4434590  73.8360977  60.3224897 102.7851023  73.5859871  59.6679449
  54.1987468   5.5213690  40.7432604  54.7101129   6.1663867  40.2546930
  53.6868073   5.0656749  40.0750637   3.1906220  65.7920313  56.8165636
   3.9302000  65.1859093  56.7732620   3.1275898  66.1564350  55.9336901
  91.8318309  74.8533249  69.3902588  90.9603562  74.9006796  69.7833490
  92.4280848  74.7908068  70.1364517  88.1197466  19.7307897  40.0706863
  88.5651531  19.6014214  39.2333651  88.0662956  18.8542259  40.4514885
  66.5303196  89.5889573  12.4627322  66.7121876  89.8514895  11.5603847
  66.5769447  90.4035621  12.9632110 105.1919033  67.7757454  81.3206482
 104.8457493  67.6366091  80.4391479 104.4326522  67.6749992  81.8947792
 103.8654425  71.3149405  75.5783272 103.1380107  71.8868685  75.3334379
 103.5627319  70.8673906  76.3684511  34.0623450  89.9605465  54.4860888
  33.9133310  89.0373993  54.6905851  34.9505448  90.1345348  54.7976351
  97.7779271  32.3104578   5.6043548  97.8432586  32.3950678   6.5555686
  97.7307966  33.2120615   5.2863711  44.0732670  75.5705261  61.5068388
  44.5738506  74.7631931  61.3891125  44.7132826  76.2040186  61.8313456
   0.5255523  60.2873755  78.6446238   0.9494926  60.7456398  77.9190207
  -0.3539580  60.0903845  78.3223104  92.6138701  63.1221294  91.0135651
  91.8381538  63.4018707  90.5275249  92.3333683  63.1147814  91.9287109
  18.5000730  57.4475431  39.3774343  18.7938094  57.6209402  38.4830713
  18.6534202  58.2694387  39.8434830  26.9717073  38.4320307  85.2127457
  26.0337615  38.2601690  85.2961445  27.3332787  38.2089520  86.0704994
   6.3134295  58.6150503  60.7491589   7.1724015  58.1951094  60.7039022
   6.4033985  59.4027996  60.2128887  31.8488407  38.5139632  49.1425419
  32.7540350  38.6905742  48.8862944  31.5919685  39.2790842  49.6571636
  25.1709771  73.2585382  69.1534853  25.8147359  72.5608587  69.0308237
  24.3279147  72.8397322  68.9800549  15.2179301  80.7390213  46.6998243
  14.6717751  81.2448215  46.0980701  14.8362315  79.8612785  46.6894579
  10.9100473  88.9592934  68.7595844  10.7750738  89.5522308  68.0203676
  11.3294172  88.1893158  68.3755350  75.9239902  67.4526978  36.0632324
  75.0169792  67.2149801  35.8707547  76.0978069  67.0609331  36.9191170
  29.4322324  66.1739206  72.1485758  29.8582244  65.7255888  72.8791618
  29.4992661  65.5588341  71.4182281  16.3016582  81.2690639  59.9639416
  16.6275418  81.2196445  59.0652847  17.0787108  81.1405373  60.5079126
   1.5198119  91.8982887  68.2263994   1.7540322  91.1580753  67.6665306
   0.8518378  91.5499878  68.8169384  27.5244641  87.8647041  87.0592117
  27.4571300  87.2522163  86.3267040  28.0245733  88.6021805  86.7095852
   7.3399305  65.8806276  58.4013319   7.4935466  66.8005276  58.6167717
   6.6690791  65.5978775  59.0228128  75.8832111  64.1222239  62.5018930
  75.8633318  64.2194557  61.5498543  76.7921533  63.8974905  62.7007675
   1.7699890  78.6334562  50.3704500   0.8701549  78.4278917  50.1169252
   2.0521325  79.2939997  49.7377539  38.2272911  50.1509285  59.4756556
  37.3649359  50.5530453  59.3713760  38.6944962  50.3739357  58.6705351
  87.7183904  79.6929407  43.1527948  87.0367899  79.6680641  42.4812031
  88.5297026  79.5140886  42.6773834  15.6227958   7.0648962  15.5985087
  15.2055729   6.8692308  16.4374846  14.9144542   7.4061304  15.0525683
   4.3205103  61.7759228  54.5940971   3.6276639  61.3991642  55.1365471
   5.0165695  61.1189365  54.6041918 111.7240210  71.7234373  71.8790674
 111.0799917  71.0966778  71.5494728 111.2055465  72.3704576  72.3573780
  11.1567402  73.7492085  80.7028580  10.4111004  73.4394789  81.2169838
  10.8934653  74.6176243  80.3982735  15.3919852  84.5795250  42.5331879
  16.1974633  84.9204731  42.1443558  14.9661934  85.3474998  42.9141617
 115.6294407  54.6262503  89.4963551 116.5282490  54.3020773  89.5536995
 115.0883742  53.8369083  89.5167923 109.2843052  66.7135096  12.1141016
 109.2679723  65.7933426  11.8509436 108.6317559  67.1343279  11.5543485
  17.3666048  82.9146957  52.3160267  18.2827282  82.6445580  52.2530079
  17.0611727  82.9391193  51.4091969  21.3588905  75.5438852  69.2686081
  21.1866832  76.2293720  69.9141216  21.2883377  75.9876204  68.4234142
 101.1402526  52.2552776  60.2429438 101.1888351  52.4985504  61.1674404
 101.9268837  52.6368046  59.8532248  98.9247074  41.3396025  80.5921364
  99.2973199  41.4475536  81.4671993  98.0133869  41.0921955  80.7487202
  51.0664749  33.8521695  93.3275032  51.3542461  34.7011709  92.9919147
  51.7550278  33.5903430  93.9387131  99.8193695  90.1365280  82.0421791
 100.1474120  89.3698025  81.5723324  98.9051463  90.2119255  81.7687893
  11.2605667  55.7120609  56.7968988  10.5187356  56.1761713  57.1848631
  10.9481430  55.4400444  55.9339762   3.6148784  85.5699921  62.7079105
   2.9235962  85.6525326  62.0509863   4.4258639  85.7214546  62.2225285
  89.9090376  38.0869412  46.7217350  90.6682124  38.2167149  47.2901011
  89.5469942  38.9648366  46.6015005  94.8493638  33.9247203  69.2466068
  94.6875133  33.3943701  68.4663725  95.7418003  33.6988473  69.5088482
  20.4133940  95.0461960  62.7948713  20.4033971  94.2362022  62.2849226
  19.8594916  94.8589420  63.5527325  94.6762647  71.5335321  81.9137478
  94.3886604  71.6352177  82.8210354  95.3558125  72.1983242  81.8019581
   7.0124686  35.3698254  79.4725132   6.8609691  35.5307198  80.4038525
   6.5658438  36.0910368  79.0291023  17.7481031  73.4649372  74.4391632
  18.2831228  73.7566853  75.1773167  16.8502700  73.6744356  74.6965313
  26.0864401  72.9638386  74.6298361  26.9757509  73.2930517  74.7601318
  26.0521889  72.1567488  75.1433182  92.8155317  64.2957687  67.5833178
  92.0319023  63.8137293  67.8474951  92.4808683  65.0470066  67.0935488
 103.6763837  98.4832096  71.7780781 104.4642200  98.7604332  71.3104343
 103.5445299  99.1566467  72.4454117  24.3096447 107.3382282  94.0265846
  25.2170849 107.0414257  93.9580441  24.3240333 107.9936218  94.7240639
  95.8521618  88.4974766  76.0060883  95.3940644  88.0165672  75.3168106
  95.2433552  88.4954548  76.7447233  86.3103761  88.1220150  72.0708227
  86.6421213  88.8152409  72.6414537  85.3631343  88.2586765  72.0537329
  24.7783136  64.1206598  71.8937254  24.0038538  63.5967398  72.0985317
  24.4382691  64.8693943  71.4038277  18.1401885 100.3493500  67.2769594
  18.2034135  99.4435024  66.9741821  18.1385589 100.8706570  66.4741755
   9.8433763  74.6853971  39.6190357   9.3146449  74.7510052  38.8238192
   9.2245007  74.4123650  40.2962923   4.0583217  82.9341793  69.6975851
   3.3056828  83.4785652  69.9287033   4.1605762  83.0551910  68.7535858
  59.3825772  16.7810255  16.8008918  58.7169602  16.1760908  16.4734191
  58.9597442  17.6393753  16.7748183   1.1170448  80.3971481  73.1792784
   1.2635174  80.7696438  74.0487719   1.8815133  80.6678963  72.6708364
  59.2905760  88.0179501  78.0930567  59.0957546  88.4388065  77.2557068
  58.5917854  88.3121777  78.6773157 109.8251536  75.7823420  73.5517645
 109.6416952  76.5431404  74.1029119 110.0924691  75.0996494  74.1671515
  25.8641815  82.5119686  66.8707037  25.8252740  82.3641968  65.9257793
  25.4173565  83.3484077  67.0009136  14.5134401  32.2596478  90.2899647
  14.8169518  33.1515622  90.4590797  15.2009106  31.7001462  90.6513119
 114.7508176  70.8115816  46.0992527 114.0958100  70.1491928  45.8791685
 115.5736170  70.3256226  46.1547470 105.8249309  66.2924147  60.8077002
 105.2674856  66.9083023  61.2832689 105.2430834  65.8927345  60.1612139
  39.8132849  73.1872320  90.9859276  39.3873787  73.9755869  90.6492805
  39.1462874  72.7683735  91.5298939  84.3089404  61.2318087  49.1116571
  83.5650792  61.8263912  49.0148449  84.7241773  61.4992142  49.9315977
  85.6987371  70.6671619  56.2156010  84.9222126  71.1315060  56.5280533
  86.2470545  71.3501787  55.8295107  96.0706749  35.6258988  35.9321737
  95.5920901  35.0888586  36.5636635  95.8789410  35.2261353  35.0838447
  75.0540405   5.0251918  13.7161845  75.1243561   5.8135563  14.2544860
  75.5939845   5.2108102  12.9479140  23.6283207  97.1379852  93.5345554
  22.6921916  96.9451332  93.5864925  24.0555859  96.3271046  93.8104916
  87.0205917  67.6483011  74.0099430  87.7888384  67.5272799  74.5679617
  86.3023224  67.8070879  74.6224022  75.7000577  29.1600424   7.6474875
  75.8989722  29.8611360   7.0269031  74.7698929  28.9782530   7.5134009
  28.9277887  42.8626442  73.1916523  28.1801200  42.3059511  73.4091806
  29.6422362  42.2486305  73.0219889   7.7695167  64.3867874  68.6229086
   7.1596467  63.8942385  69.1721678   7.2229570  64.7546482  67.9285145
  50.3987839  19.5359235  18.1672400  49.7383883  19.0899807  17.6369113
  49.9651577  20.3345113  18.4680003  24.9673915  35.3145218  64.4421959
  24.6564126  35.9603214  65.0765991  25.6306696  34.8130894  64.9163914
  12.6469791  39.4493628  72.7928305  12.6274681  38.6386395  73.3013391
  12.0082927  40.0176001  73.2234287  94.7236623  49.1415453  62.3195887
  94.1822090  48.5966873  62.8907156  94.8650660  48.6045456  61.5399265
  17.0497727  50.8658695  89.3161392  17.1031940  51.8161201  89.4181252
  17.4666834  50.6917381  88.4722805  23.3099771  78.5610342  79.7068882
  22.6978421  77.8299570  79.7908449  24.1699004  78.1465292  79.6365261
  16.5389574  80.4223251  36.7025757  16.8855739  79.6912146  37.2140121
  17.2365201  81.0776043  36.7182827 107.1703186  62.0046616  49.1706705
 107.8771575  61.3598680  49.1415358 106.3887121  61.4938831  49.3814468
  80.4642167  74.1004372  46.0520172  80.1613178  74.0155029  45.1479864
  80.5727257  73.1986189  46.3539839  87.7479805 104.9193053  15.4980678
  88.6151708 105.2150588  15.2210444  87.8688205 104.6398168  16.4055461
 101.8876447  69.7586679  72.7535486 101.0382237  69.7361851  72.3128557
 102.5240626  69.6069908  72.0548344  17.3315060 102.5609016  77.4777412
  16.6515779 101.8993092  77.3503876  17.7317929 102.6622772  76.6141844
  91.2300911  78.6058426  79.0805340  90.4891386  78.1769323  79.5086193
  90.9134926  78.8087463  78.2002926  14.8364460  51.8526173  55.1654434
  15.5098283  51.6844034  54.5062828  15.1200879  51.3524008  55.9306622
 108.2868596  60.4569101  68.6193895 108.5196426  59.5635509  68.8722801
 108.1216528  60.9052801  69.4487858   3.9256963  93.3340549  74.9962568
   3.3499926  93.7067699  74.3285131   3.3316672  92.9060936  75.6128645
 105.1236632  73.6461830  80.2702045 104.5546784  74.4087982  80.3746605
 104.6002640  72.9112673  80.5898762 114.6051670  95.5570984  86.0498333
 113.7128504  95.2130222  86.0096455 114.4951736  96.4837742  86.2629223
   3.6919257  43.2010651  78.4923315   3.5418394  42.6836205  77.7011538
   3.3233917  42.6707458  79.1988516  21.1419964  97.7361584  63.1830835
  20.8721852  96.8361187  63.0004263  21.6602302  97.9904842  62.4195480
  24.4352007  89.8682976  45.2884817  23.9910674  89.3993759  44.5820189
  25.3591442  89.6417332  45.1825237  32.5849390  40.0710106  54.6009541
  33.2402754  40.7169104  54.8647356  32.9994702  39.2254400  54.7724342
  99.8821475  70.6103235   4.4100875  99.5180919  71.2382608   3.7860698
 100.5987885  70.1890855   3.9355105  25.9007716  77.0625591  65.0291109
  26.6733360  76.6468239  65.4119205  25.4702210  77.4936867  65.7673454
  39.6957803  79.5716667  79.7692299  40.4496670  80.0881386  79.4843721
  38.9377689  80.1140404  79.5513248  12.9544961  76.0519600  71.0877228
  12.4453831  75.7573080  71.8428469  12.6875579  75.4692602  70.3767776
  33.8483381  98.0491066  93.9787006  34.2764044  98.7394428  94.4850922
  33.0979347  97.7900314  94.5135021   0.6574183 103.7016010  49.3738842
   1.0481501 103.4339333  50.2056980  -0.1045261 104.2240620  49.6243000
  19.8584867  68.1478739  75.1794577  20.1850629  68.3017731  74.2929506
  20.3172278  67.3596859  75.4702282  18.4823287  57.4427843  60.7594633
  18.3339262  57.2135162  59.8420477  18.9619803  58.2704163  60.7249403
   2.8318626  99.8347855  53.5814285   3.0639565  99.4281578  52.7465487
   1.8937981  99.6693802  53.6758137 112.8155314  89.4749641  42.0455837
 112.2431772  89.1237259  42.7276945 112.8968143  90.4050636  42.2566128
 114.8512240  67.9799604  63.1421757 115.4103682  67.4802732  62.5472784
 113.9591258  67.7599192  62.8738976  95.2146163  40.9212828  60.6485939
  94.3875947  40.6161451  60.2755499  95.1865425  40.6332588  61.5609980
  21.9454455  66.0923481  49.5743752  21.3843656  66.7624235  49.9647903
  21.8539810  65.3359938  50.1538515  99.1701987  36.0992914   2.9128283
  99.4343021  36.9489866   2.5599689  98.3929160  35.8612066   2.4074763
  41.6132418   0.0742675  73.0914974  42.0074601   0.9455729  73.1321383
  41.6518925  -0.2483320  73.9918661  79.8313350  16.9755607   0.7829493
  79.6462406  16.2623125   1.3938922  79.7921614  17.7670437   1.3198394
 116.8104442  54.4952106  62.5140190 115.9464635  54.1242456  62.6933336
 116.6367532  55.4094839  62.2900438  43.9531898  78.2719851  58.2749987
  43.2103634  77.7489138  58.5763979  44.1069746  78.8990688  58.9816427
 110.8028062  56.4425421  31.0259676 110.4358735  56.1088657  30.2072763
 111.2871810  55.7019091  31.3907647  40.6947803  73.7485218  54.6884775
  40.1287937  74.5158958  54.7723007  40.8257675  73.4481335  55.5878305
 112.9686960  77.3521328  92.7636337 112.0988976  77.6253223  93.0552673
 112.9731148  77.5308466  91.8232727 115.8054812  53.9406872  86.0796642
 116.5621911  53.4240532  85.8026981 116.1668025  54.5904589  86.6825581
 103.1156506  46.8243885  60.1724768 103.6040809  46.0240030  60.3649616
 102.2453417  46.5183544  59.9172688  90.9907498  66.4146185  88.9577484
  91.4168825  66.6604662  89.7788429  90.9706416  65.4577971  88.9754486
  13.9755321  73.7090921  88.4883595  13.3626032  73.2361126  89.0512371
  13.4557879  73.9576197  87.7239418  18.9148390  84.6513557  88.7124062
  18.8938856  83.7769604  89.1012764  19.7895980  84.9828148  88.9152908
  99.1255333  26.0785585   7.5838965  99.6065357  26.7782407   7.1419639
  99.3087771  25.2962881   7.0636004  15.7212639  70.0837564  89.5902061
  16.0745239  70.8644724  89.1636753  15.6292772  70.3339767  90.5095291
   6.3350129  83.8317871  52.8911686   5.9839392  84.4990253  53.4808874
   6.5885776  83.1114960  53.4683323  12.4563551  41.8873167  84.4668007
  13.1616044  42.4001074  84.8616409  11.8698978  42.5405645  84.0852737
  89.0603556  90.7424450  93.0811787  88.5935607  89.9440289  92.8344727
  89.9005403  90.4336166  93.4202194 104.3299367  85.1759911  56.2308121
 104.9519243  85.6870365  56.7486811 104.8708679  84.5315742  55.7743597
  28.9684319  74.0403605  68.2685423  28.1555986  74.4438791  67.9640627
  28.9425492  74.1382742  69.2203712 108.1766208  89.5842552  66.7922306
 108.7597473  90.2804184  67.0947886 108.0932059  89.7340775  65.8505154
 115.1728190  83.9917660  83.8705921 115.6131091  84.6336937  84.4276428
 115.8436242  83.7169552  83.2454967  95.5556896  54.7896009  39.1007823
  94.7163882  54.5819574  39.5115012  95.6564476  54.1296297  38.4148330
  24.0666080  94.4994926  57.8260374  24.4409347  95.1545143  58.4151506
  24.0085840  93.7051487  58.3569622   1.2204921 107.3695183  90.0324249
   0.3052566 107.1299744  90.1780128   1.5936029 106.6195297  89.5692444
 106.8394925 100.0740528  37.3486900 106.2211909 100.3188419  38.0371737
 107.4643906  99.4936371  37.7832603  96.9090070 103.1767941  72.7553082
  96.2013783 103.2244778  72.1124887  96.6080346 103.7201881  73.4835768
  12.8211570  56.6865635  70.4144859  12.8923023  56.1242056  71.1857986
  13.6064351  57.2331333  70.4433203 109.6605792  70.6584311  90.2372456
 110.0111802  71.0061789  91.0572338 109.5824846  69.7167921  90.3903866
  19.9050748  24.6013832  75.4535532  19.9472690  24.8791313  76.3685989
  19.0949225  24.9891853  75.1226568   9.7159642  98.1353569  58.2832050
  10.2887273  97.5092697  58.7261343  10.3114510  98.6889172  57.7780247
  34.7166395  82.1044159  86.6666412  34.1780424  82.5164795  85.9911060
  34.8054886  82.7747822  87.3440933  10.7975364  86.1491108  83.9778805
   9.9112844  86.5105915  83.9890862  10.9934175  86.0238934  83.0493450
 111.2302186  69.7903538  59.6258068 112.0473405  70.2452660  59.4218540
 110.5504980  70.4535532  59.5059013   1.6779511  74.4268131  54.2740726
   1.8567944  75.2929640  53.9079714   1.5659897  73.8620329  53.5094023
   2.6845706  88.1148338  75.3858995   2.6703638  88.4587765  74.4927406
   3.3684394  87.4451923  75.3738403   7.5275779  76.2681627  72.8187275
   8.0723834  75.6576347  73.3153868   7.1806866  76.8699169  73.4773588
  16.3774097  90.4801559  81.4023781  16.7856169  90.7109737  80.5679226
  16.1835372  91.3217735  81.8150806  66.1236490   3.6267043  63.2970142
  66.7881049   4.1747809  62.8794718  66.6242136   2.9938651  63.8119793
 112.2907202  78.3970785  54.2738914 112.9538419  78.4439564  53.5851955
 112.5141420  79.1114569  54.8705339  19.1360247  87.2458363  88.3009529
  20.0321984  87.2175884  87.9658413  18.9664555  86.3547802  88.6067295
 101.4298381  83.4105873  80.4233742 100.8250799  83.7056255  79.7426081
 100.8633520  83.0710316  81.1162186  28.0125213  90.4215622  61.5292501
  28.3462524  90.5877590  60.6476402  27.8709817  89.4753075  61.5573311
  20.9361148  65.0165606  52.1174002  20.7131147  64.0974188  51.9701481
  20.0915289  65.4531145  52.2284269  19.1877782  62.3530006  73.2330084
  19.4764721  61.5892315  72.7334642  19.1213858  63.0529213  72.5834417
  22.7301431  65.5110836  61.8719053  23.0902648  65.3745127  60.9956074
  23.0590320  66.3707352  62.1347094  42.1723528   2.1341563  68.6255217
  42.3700957   1.9028140  67.7179956  41.8090354   1.3331462  69.0031672
 115.5287392  84.2425346  64.0220928 116.3537399  83.7610054  64.0831327
 114.9115839  83.6138439  63.6477995  11.7287123  87.9276085  49.2510891
  11.5976751  88.5213947  49.9903297  12.0451283  87.1163940  49.6486473
  46.7072321 104.4467835   0.5953425  47.2441245 105.0806050   0.1196879
  46.2628044 104.9650292   1.2662620 108.1722029  78.7681532  46.9448471
 107.8216626  78.8829994  46.0615778 108.2142892  79.6548223  47.3029947
  14.5495629  69.0131140  56.0920715  14.0537906  68.7786388  56.8765879
  14.9135876  68.1838942  55.7820511 115.5347995  89.5207119  75.9222603
 114.8432278  89.2515659  75.3176785 115.1233797  89.4895077  76.7859697
 109.6083452  86.8338203  48.5558748 108.8529982  86.4452076  48.1146669
 109.9602588  86.1263561  49.0961409  13.5964704  53.8637352  53.8944674
  13.9850175  53.1128311  54.3432474  13.8068914  53.7259579  52.9709053
  34.3355608  72.8654480  79.0209818  33.7122560  72.9895306  79.7367525
  34.4331312  73.7358236  78.6347675 102.5180318  75.9268379  43.5562325
 102.7690615  75.8277893  44.4746017 103.3289852  75.7807112  43.0691671
  21.3851476  89.2928886  69.9115038  21.1399555  88.6466408  70.5736780
  22.2088242  89.6618366  70.2303505 112.8195708  72.9890394  41.8258667
 112.6645972  73.8355827  42.2448874 113.2403990  72.4598694  42.5034475
  94.7645535  66.7421150  53.1719828  94.4669261  65.8967400  52.8358412
  95.2971973  67.1068144  52.4652195   8.3053136  93.2312584  85.9171104
   7.4680722  92.9529095  86.2882900   8.4577256  92.6272869  85.1903248
   7.6612121  45.5821419  88.9152050   6.9300205  46.0185432  88.4780025
   8.2210851  46.2973976  89.2171764  18.0189228  69.7389698  80.7919407
  18.4665978  68.8994122  80.8966446  17.1095300  69.5566368  81.0285664
   7.0152223  13.5388141   5.5877131   7.6809347  13.2568222   4.9603766
   7.0716465  14.4943386   5.5835265  57.5579405  92.6152515  62.3926020
  57.2872543  92.5674343  61.4757204  57.6175213  93.5527992  62.5761557
  31.1905837  70.3916311  77.4387074  31.6042924  70.2574968  76.5860128
  31.2312937  71.3376904  77.5785017  98.9028873  73.3771133  81.6929531
  99.6624138  73.1832743  81.1436081  99.1480722  74.1702747  82.1694088
 115.8498708  67.4626493  83.4312248 114.9142825  67.3685551  83.6102581
 116.0175795  66.8573332  82.7089405  22.9231834  89.5783997  57.0491838
  23.8633060  89.4728470  57.1949863  22.5594449  88.7041473  57.1892023
  76.7963543  71.5934038  61.1947203  76.7184152  72.5457048  61.2520218
  77.3237528  71.3500452  61.9555473  98.7002577  67.9599237  86.9833946
  99.2076649  68.2219553  87.7515793  98.5271110  67.0280695  87.1171761
  84.8507401  13.7231546  17.6036757  84.6569499  14.4024664  18.2495994
  85.7830861  13.5405975  17.7204532  35.0708747  46.8810177  82.1526241
  35.5197477  46.0370350  82.1032238  35.6764746  47.4467087  82.6316643
  93.2830848  69.6948862  69.6025276  92.6962962  69.7240925  70.3582096
  93.3007445  68.7721729  69.3485165  54.3409061 104.9903011  87.6095486
  55.1615238 105.1003551  87.1292210  53.7763119 104.5019817  87.0103741
  33.7596692 106.9055848  22.5953597  33.8214965 106.1915593  21.9608706
  34.3284844 107.5896888  22.2422618   0.8364110  99.3427467  87.9088116
   0.0226945  98.8837051  87.7005196   0.7036255  99.6746731  88.7967396
   1.8443537  55.7789946  60.1739502   0.9056093  55.7928801  60.3604889
   2.0201795  56.6271687  59.7666216   5.8460581  58.8731623  47.0028305
   5.7749325  58.1108713  46.4283037   6.7361391  58.8277006  47.3519993
  16.8031728  85.6650543  51.9795847  16.9751024  84.8231888  52.4013996
  17.6264966  85.8878517  51.5451527 112.2260188  93.7895107  82.9720688
 112.2481801  94.2866135  83.7897682 112.7289184  94.3210030  82.3549557
  29.8293281  38.4279013  78.1649590  30.7505035  38.6878395  78.1749725
  29.4421697  38.9451456  77.4587011 116.0568792 105.3422737  36.9991755
 116.9385982 105.5467033  36.6877103 115.6348739 106.1954212  37.1005774
 111.8004530  82.9942608  43.4056139 112.3949709  83.5770893  43.8779402
 111.0157617  83.5218716  43.2568789 113.2844009  98.3194256  56.3690710
 114.0406581  98.7755203  56.7382336 112.9836135  98.8887596  55.6608200
  45.2066625  10.2097178  72.1553707  46.1515493  10.3582240  72.1184206
  44.8275746  10.9668017  71.7088890 110.8776661  85.9271812  74.5480824
 111.4968588  85.3575134  75.0044966 111.3695582  86.7313957  74.3822193
  17.5598383  94.6300030  58.0528069  17.1198356  94.4694710  57.2180223
  17.4602604  95.5707073  58.1990290  98.7966516  27.9063326  23.8074893
  98.9770319  28.6140352  23.1887359  97.8416064  27.8467947  23.8314837
  27.8540421  70.1653671  71.3830709  28.0601287  70.3283310  70.4626369
  27.2646642  70.8792067  71.6265726  43.0215931  87.6658249  62.0003843
  43.7904119  88.2039356  62.1890211  43.0691719  86.9497490  62.6337957
  24.2764020 104.4196987  53.5523939  24.6649694 105.1645470  54.0111399
  24.8456526 103.6813641  53.7692881  12.4797356  52.8688097  84.7779846
  12.5344288  52.1384573  84.1616917  13.2493699  52.7677393  85.3380585
 115.7280601  71.5425730  54.1734314 116.2690602  72.1453381  53.6633110
 115.6247006  70.7768488  53.6084414  34.5585493  14.7340823  76.3133144
  34.7440259  13.9435244  76.8201160  33.8120557  14.4963694  75.7633400
  11.3013101  76.3410139  50.4580736  11.0016859  75.8640862  49.6841288
  12.2384310  76.1524105  50.5077267  23.4176064  62.3603725  68.7752914
  23.0518246  63.2448196  68.7888670  22.6925945  61.8057346  68.4872532
  16.7134988  72.2861481  67.1996069  16.2891769  73.1372452  67.0909166
  16.0848987  71.7675066  67.7017069 113.8257875  90.5152130  48.4406996
 113.4018960  90.6076622  49.2939329 113.1436779  90.7418537  47.8085661
   1.2570877  81.7838860  87.8034115   0.3766762  81.5055180  88.0556488
   1.2941165  81.6343403  86.8586922  97.3842862  21.4939981   5.7783240
  97.4765458  20.5685526   5.5519027  96.7239752  21.5063863   6.4711875
 114.6210115  78.6864567  36.1131954 114.3994435  78.0491829  36.7921758
 115.0062798  78.1633186  35.4102540  65.6316152  36.2452608  12.3337287
  65.1019945  35.4496866  12.3866958  66.2336113  36.0842996  11.6071433
 113.5996043  99.3904591  93.3717632 113.2141616  98.5164356  93.3105946
 114.5290925  99.2558002  93.1869698  89.4880571  60.3002214  79.1969585
  89.2428889  61.0495710  79.7397232  90.4066052  60.1387358  79.4124174
  99.7468569  95.0690842  49.2143440  99.3672933  95.1549625  50.0888634
 100.6924834  95.0992012  49.3596554   9.1837412 107.3128700  66.6465521
   9.4434279 107.9039764  67.3532295   8.8056457 106.5559673  67.0941830
   0.3451091  65.6144857  62.4318409  -0.5760583  65.3868866  62.5578642
   0.7641027  64.7897673  62.1858454  30.2346063  99.6457577  81.2008667
  30.8766890 100.1861858  80.7405376  30.7453012  99.1770363  81.8609619
 112.5995862  89.7575474  67.2794056 112.9826628  88.8855743  67.3749971
 113.3287786  90.3578472  67.4347973   2.3403725  95.7075405  91.4792633
   2.2704364  95.0302792  90.8064651   1.8698934  95.3476715  92.2311783
 101.1988535  94.4944572  77.9090929 101.4798095  95.2867413  78.3669043
 100.8059659  94.8138142  77.0967579  12.3517311  45.9439993  61.1122417
  11.4074469  46.0430765  61.2336636  12.6825607  45.7177734  61.9814968
  63.6481037  47.9412561   2.5352401  64.3334522  47.7741056   1.8882483
  62.8600719  47.5529676   2.1551436  16.7122388  91.7357349  62.7044296
  17.4958932  91.2317181  62.9237223  16.5010977  92.2117519  63.5075808
 107.0721801  68.4772301  86.7244720 106.3819577  68.2071257  87.3301697
 106.6270890  68.5760593  85.8828354  31.1740541  73.2008410  77.5972795
  31.5751529  73.3277273  76.7374802  30.3758812  73.7284517  77.5694370
 100.8415856  70.8430672  83.3685780 100.5825629  71.6217995  83.8612366
 100.0283100  70.5273199  82.9747295 105.3863349  67.5952196  89.0978909
 104.6334650  68.0780935  89.4388485 105.3538992  66.7514896  89.5487785
 113.0614828  94.3160534  33.5564971 113.3662357  95.2089691  33.7179065
 113.2780012  94.1512871  32.6387787  15.5877602  87.9170132  83.3853436
  15.6997991  88.8666058  83.3411789  15.9358490  87.6744175  84.2433739
 102.4998643 101.5527725  78.4259367 102.2554114 102.4506187  78.2015467
 103.4449699 101.5178585  78.2783270  35.7654796   1.2702990  66.6236973
  35.2450211   1.3754225  65.8272648  35.1286567   1.0268641  67.2955799
  33.2104659  85.4356098  58.0835962  33.3738637  85.9189701  57.2737217
  32.5032210  84.8297215  57.8623724  21.0406089  61.7458487  84.6192360
  21.1277366  60.8223486  84.8554230  20.8189511  61.7350435  83.6881161
  28.3162832  56.5251398  67.9740810  27.9018402  55.9565067  67.3251438
  28.7680507  55.9236050  68.5659409  38.8282061  68.1397581  66.2120485
  38.4458518  68.9840078  66.4513779  39.2936993  67.8559828  66.9988251
  63.7994480  87.7625561  86.4260101  63.7471676  87.2531796  87.2347355
  63.2012129  88.4965229  86.5661526  42.5813150  79.8829985  72.7033567
  43.3808947  80.3675365  72.9085922  42.8894472  79.0761662  72.2906733
 105.3587081  71.4306068  69.3299389 105.6372025  71.0147381  68.5140181
 106.0065534  72.1188164  69.4812727  14.2598021  60.8750534  72.6591730
  14.9776196  60.6742287  72.0586395  14.0109396  61.7736864  72.4429560
 106.0287263  35.5528169   4.5674056 105.4736640  34.7893339   4.7262687
 105.4557516  36.3028246   4.7268218  95.8613267  56.2398291  63.8845110
  94.9575891  56.1843300  63.5740042  96.1517539  55.3294563  63.9402771
  11.7490613  50.8647823  65.9380388  10.9671485  51.2254620  66.3560724
  12.1124434  51.5959406  65.4384518 103.9158167 108.1643200  61.5640020
 103.5737743 109.0523148  61.4605713 104.7775557 108.1896210  61.1480713
   5.4080451  71.8768406  71.8891335   5.6326091  72.0579052  72.8018332
   5.6115693  72.6897764  71.4265919  74.9383272 104.5796924   2.5234145
  74.6435870 104.4724231   1.6190642  75.1917924 105.5006604   2.5850791
  32.9428649  51.6521072  85.2779961  33.4156036  51.4350653  84.4744778
  32.4052191  50.8803082  85.4554749  29.9966812  14.3416739  64.4523573
  29.5723367  14.6112406  63.6378002  29.7842979  15.0372803  65.0746536
  63.5134019  38.3623458  87.8915501  64.2177428  37.8967238  88.3424854
  63.8114966  39.2712451  87.8560257  37.3793936  89.6146107  63.4332561
  37.4589896  90.5675411  63.3906126  36.6295838  89.4623852  64.0084457
   7.5052851  97.6734161  80.0110912   8.0025768  97.8169727  79.2059040
   7.0976186  96.8157196  79.8911190  24.7983241  91.8671036  73.4387207
  25.3689051  91.9453430  74.2032766  24.2337060  91.1199474  73.6366940
   7.0998150  59.3733978  78.1545305   7.9669315  59.0760851  78.4301138
   6.5218610  58.6341858  78.3436394  58.5043478  81.8536282  83.8246441
  57.7850866  81.2220573  83.8282490  58.8560724  81.8211365  84.7142887
 101.4520135  67.6254177  63.3278370 100.8508839  67.4115562  62.6142979
 101.2719502  68.5445452  63.5253572  12.0937157  41.3775635  81.6802502
  12.9747379  41.2558317  81.3263893  12.1914935  41.2328482  82.6213741
 111.0793569  63.6017942  81.4141369 111.2030496  64.1290903  82.2033691
 111.9648190  63.4610748  81.0788918  88.3307328  27.4310976   9.2045897
  89.2277362  27.3966795   8.8722819  88.0933382  28.3572107   9.1577739
   9.2739213  99.2391109  32.2038794   9.7295809  99.0215302  33.0170608
   8.3547711  99.0419674  32.3842382  28.2744193  78.8096523  80.7733822
  28.2143283  78.4117937  81.6419029  28.4553361  79.7337532  80.9452534
  26.3781667  64.1497755  88.2884979  27.1076512  63.6169910  88.6050797
  26.7949033  64.8656797  87.8088665  34.4992542 107.8855991  63.3843708
  34.6021819 108.0755711  64.3168640  35.1725245 107.2313786  63.1974792
   6.9470066  67.6840544  18.3559358   6.5425462  67.7855062  17.4943376
   7.6010531  66.9958830  18.2339621  19.4258773  62.2589111  87.5107098
  19.5251787  62.2307968  86.5590858  20.1758122  61.7665100  87.8444290
 115.1559061 102.6797295  60.7687807 115.5917690 102.5770283  61.6147757
 115.8418921 103.0004501  60.1832962  21.2733650  91.5185165  82.5382805
  20.3641415  91.7607689  82.7139378  21.2569380  90.5643463  82.4639893
  19.2775309  87.2664833  77.7791548  19.7839117  86.5435982  78.1496191
  18.3856106  86.9252872  77.7136660 108.3704569  81.2493706  80.5077934
 108.9975276  81.8456745  80.0986004 107.5279286  81.4839268  80.1187420
  19.5794821  85.4248428  81.2846470  18.9395273  84.7249889  81.1546803
  19.2262077  85.9408951  82.0092964   1.2996185  66.3160330  13.6850184
   0.5085171  66.7188078  14.0430182   1.4875734  66.8198496  12.8931445
  15.0946569  54.8035383  64.8995638  15.9471250  54.4845057  64.6033430
  14.7459984  55.2863264  64.1501760  88.6566391  69.9404192  85.8348751
  88.5428180  70.6230736  85.1736259  87.9752698  69.2982483  85.6359196
  29.1902804  39.9798107  35.3394914  29.5699549  39.1027570  35.2860737
  29.4792175  40.3145885  36.1884141  20.7954860  77.3508263  80.4984856
  20.4882169  78.0851364  81.0300922  19.9947011  76.9307423  80.1846313
  89.6665778   4.3253523   5.3947181  89.7048225   4.4077497   4.4418353
  90.5803587   4.2316347   5.6638831 107.6224919  63.5418320  46.9268513
 107.4702724  63.1965685  47.8065395 106.7995807  63.9707613  46.6921902
 104.8316731  89.6906471  64.8990154 104.9446180  90.6122494  65.1316547
 105.6323065  89.4630814  64.4263315  53.0482913   9.4929171  75.2383327
  53.8888396   9.9084902  75.4307127  53.2118584   8.9753962  74.4498825
  92.7162101  34.4268900   0.3305263  93.1937399  33.5991579   0.3858108
  92.9432347  34.7773176  -0.5308038  36.9971919  41.4317513  93.7348747
  36.8546820  40.4978800  93.8891888  37.9263783  41.5662527  93.9212894
  42.7031658   7.2532893  81.3409138  42.4227769   6.8657828  80.5117893
  42.6293070   8.1973506  81.2011719  93.5823288  61.0070997  12.2849864
  94.0807881  61.3151651  13.0418605  92.7493431  61.4754301  12.3400420
  90.4256704  10.5980354  34.5202846  91.0958769  10.5922561  35.2036780
  89.7874179  11.2470966  34.8162478  13.4469056  96.1607265  62.9453039
  12.8139317  95.4452991  62.8841972  14.2996418  95.7337570  62.8630638
  20.1847434  53.2991600  63.9437962  19.3773723  52.7865458  63.9839363
  20.8819222  52.6597786  64.0899754  95.0074257  82.5746918  71.1668730
  94.9031987  81.8561935  71.7906713  94.4439997  82.3363495  70.4306841
  91.7981376  64.8439264  61.5992117  91.2761607  65.3982115  61.0190868
  91.9596805  64.0496063  61.0901070  25.3274608  63.5858870  56.9585323
  24.5275617  63.2605934  56.5455198  26.0290384  63.3204317  56.3639307
  34.3846321  87.2804451  68.2050228  34.6561670  86.3626480  68.2176065
  35.2045965  87.7732658  68.2368660  81.6480898  27.0153433  12.6554030
  81.2613642  27.3275858  11.8373698  81.0652279  27.3477083  13.3380717
 106.7988362  48.6391973  81.6961288 107.2520628  48.5749865  80.8554840
 107.4981650  48.6025286  82.3486900   7.8611755  72.6238251  36.1489701
   7.2895622  72.4474525  35.4017210   8.6987787  72.2277975  35.9085226
 116.0446321  70.4068279  68.5017014 116.6546228  69.9085951  69.0456772
 116.4918802  70.4956675  67.6600885 114.4473534  55.4921246  70.9042406
 113.7172495  55.8097029  70.3728962 114.6956038  56.2430525  71.4434147
  19.0822577 102.4917316  75.2248955  18.9054823 102.2783566  74.3086767
  19.8134029 101.9231415  75.4664707  10.6638682  30.1804447  74.1932726
  10.7612276  30.8380508  74.8819733  11.4446497  30.2855802  73.6496210
  54.8846462  68.0711942  17.5727767  55.5815556  67.4664503  17.8273887
  54.5723345  68.4385400  18.3996695 114.6990930  53.4286833  48.3835649
 115.0585901  53.3512115  49.2673016 114.5380503  54.3655968  48.2717896
  37.6754308  62.1988440  83.3247185  38.5313511  62.0823812  82.9123211
  37.1793056  61.4206600  83.0706978   3.6539111  66.9671631  62.5447321
   3.2330704  66.2028503  62.1510887   2.9288417  67.4903584  62.8864527
  30.8332801  97.6124382  91.1775398  30.4355645  97.3321724  92.0018578
  30.1246214  98.0508709  90.7065678  69.9787351  46.4968305   0.3572768
  70.6475034  47.1456819   0.1382464  70.1643809  45.7569605  -0.2209550
 114.6555803 101.7251587  56.9227076 113.7495818 101.6522884  57.2228575
 115.0279113 100.8560276  57.0717573  16.6389620  93.6260891  78.7597847
  16.1348987  93.2485676  78.0389309  16.7376745  94.5489120  78.5255146
  13.1945300  55.1697779  50.6225634  13.3591962  54.2394114  50.7759476
  14.0631711  55.5469608  50.4831743   8.9451402  70.1671791  62.9552937
   8.2355273  70.7837152  63.1357431   9.4329542  70.5674410  62.2355318
 109.0012338  73.6175823  71.6992235 108.7424847  73.0356312  72.4137926
 109.1446855  74.4650364  72.1205044  11.5894675  91.4770412  78.1766844
  11.8717480  90.7296085  78.7038422  12.0836985  92.2178841  78.5275555
  46.8980932  94.5301247  79.3938494  46.1690426  94.2755032  79.9594355
  47.5782347  93.8808346  79.5729256   1.2726457  84.0944386  67.7779722
   1.4373791  83.2444382  67.3698235   0.3262221  84.2166233  67.7032375
  15.1297724  93.3721924  86.6852570  14.6741581  93.9782047  86.1009693
  14.4768202  93.1393814  87.3453140 110.1808334  61.4090390  83.0417210
 110.2801968  62.0900197  82.3764187 109.5940305  61.7939611  83.6926669
  52.1764088  76.4505386  86.3887310  51.5198374  75.7735968  86.2247467
  52.4627352  76.7227030  85.5168533  13.5772002  66.2431479  77.8209400
  13.8265896  66.6189098  78.6652374  12.6899064  65.9116745  77.9590178
   3.1069565  89.4578266  53.3550739   3.5796353  89.8874664  54.0679693
   2.7001682  90.1760292  52.8703690  37.9899001  51.2465572  73.4178305
  37.0642233  51.3683176  73.2068014  38.4553671  51.7654896  72.7618694
  42.7165301   8.8638449  60.8415556  41.8507726   8.8619090  60.4332781
  42.8731419   7.9489375  61.0753393  93.4768214  99.2658520  69.5179892
  93.5508098  98.4513092  70.0152731  94.1362133  99.8426533  69.9036407
  26.3537860 106.1127472  68.2795954  25.7996893 106.5600681  67.6399755
  26.0552740 105.2034855  68.2607269  56.8491067   9.7101069  72.9418612
  57.7081276   9.6365596  73.3576775  57.0263482  10.1252604  72.0977831
 102.2953059  99.7679710  62.1368790 102.9768171  99.9093533  61.4797735
 102.6028647  99.0159607  62.6429558  93.4256127  62.0627790   7.2246379
  93.6568155  62.8149133   6.6796035  92.9109230  61.4982420   6.6478938
   5.7598764  63.2619238  77.4458122   6.5320110  63.8161135  77.3321867
   5.4498583  63.0975819  76.5552425  95.6800188   0.9951163  80.6658745
  94.8099292   1.0733462  81.0571003  95.6013073   1.4314604  79.8175621
  28.3517313  95.5756760  68.4741116  28.3459520  94.7812653  69.0080690
  29.2665887  95.8572197  68.4735250  82.3307302  87.1422392  13.5770911
  81.4551082  87.4308687  13.8344115  82.4530094  87.5021177  12.6985854
  43.4830252   2.8162432  88.3463860  43.9421554   2.0003844  88.1468391
  44.1375322   3.3576441  88.7876701 102.8987529  23.3305793   4.6152610
 103.3840134  23.6850887   5.3603000 102.8424647  22.3913580   4.7911090
  71.4337041  16.9249063   3.5110492  70.6610420  16.7261415   4.0399379
  71.1123928  16.9282108   2.6093978   6.0561568  98.8445377  77.7118111
   6.9600356  98.6854362  77.4399233   5.6267154  97.9934502  77.6253843
   6.0737890  88.6781597  60.0944567   5.9421581  89.2044163  60.8830976
   6.0494918  89.3114376  59.3771076 113.0506976 106.9781494  66.3305330
 113.9658265 107.1792984  66.5262556 113.0385031 106.0315323  66.1890793
  16.7262018 109.7824287  92.0853043  15.8383667 109.7638702  92.4425697
  17.2501099 109.2938709  92.7201748  10.7909405  89.2062855  73.8144541
  11.7296219  89.3137932  73.6609840  10.6203043  89.7045994  74.6136999
  94.9071517  57.8976350   7.6161212  95.1261797  58.8010507   7.3878974
  95.7409897  57.4299055   7.5694388  34.5507240  96.3511848  66.6954899
  33.9979863  96.1650658  67.4544811  34.5092201  97.3023510  66.5964508
  39.9322248  90.6424427  66.8464375  39.4053149  91.0969448  67.5037241
  40.3251934  91.3441658  66.3274193  37.1360111  80.3470993  79.2716789
  37.4719739  81.1714268  78.9197683  36.1845040  80.4502106  79.2562866
  26.5255380  80.5659389  85.9112167  25.9130645  80.9314537  86.5495777
  27.1828818  80.1148987  86.4410210 105.4168834 106.3040924  54.8803473
 105.0227716 105.4570103  54.6720982 105.4915454 106.3053894  55.8346319
  18.6959195  82.5321293  78.4709549  17.8999007  82.3899269  77.9587412
  18.3868802  82.9123020  79.2932653  51.2041976   1.0248190   1.4109630
  51.2754681   0.1020723   1.1666507  51.7655327   1.1126714   2.1813029
   7.2466880  93.8706112  68.7700987   7.8325939  94.2374134  68.1079769
   7.8298545  93.4308529  69.3887711  74.2599960  48.2410246  18.2624454
  74.2588549  48.0381876  19.1979045  75.1705598  48.1215482  17.9925651
  80.1561226  91.6107874   2.9146403  80.4119743  92.3300199   3.4921092
  80.1979269  90.8318024   3.4693164  79.0448264  73.9791494  12.0778483
  79.2248001  73.0706697  11.8359775  79.3181180  74.0419870  12.9930514
  71.0136279  66.7516523   1.7131251  71.1374875  67.6211649   1.3325328
  71.8535724  66.5485292   2.1247786  20.4463328   4.0519763  67.4117041
  20.8395089   3.1978465  67.5908852  20.2738000   4.0434695  66.4702177
 110.8416893  29.7259527   3.8164062 110.5584481  29.3413931   4.6459311
 110.0280239  29.9037653   3.3446330   4.5304814 101.3967609  91.3297081
   3.9319915 100.6573868  91.4363194   4.0559757 102.1435738  91.6948605
  55.0330257  91.5188408  88.9912796  55.6388664  91.8488884  88.3277607
  54.2707205  91.2230682  88.4936523   5.6192936   7.4657775  20.9191847
   5.4303516   6.9721652  20.1211357   5.3953637   8.3702422  20.7000422
  13.4388876  95.8164120  52.9973269  14.3825400  95.6714153  53.0660820
  13.1377852  95.1467514  52.3832273  33.1765413 107.9327393  79.0820551
  33.4887099 107.7905083  79.9756718  33.6954021 107.3308372  78.5484505
  17.5254321 101.2117386  44.3958426  17.1179390 101.6398907  43.6429405
  16.9141519 100.5150414  44.6349955  10.9432769  99.9610424  64.7339296
  11.2562978 100.3703117  65.5406189  10.0941718  99.5868969  64.9690294
  15.1834226  64.6063948  91.7749596  15.5000842  65.0928593  92.5360870
  15.8654857  63.9565992  91.6052914  96.2587192  16.2763410  35.2454776
  95.5613687  15.6414657  35.4093951  97.0182660  15.9226661  35.7083339
  97.8748550  34.6941972  64.2984533  97.2608175  33.9711189  64.1705942
  98.6073353  34.3047905  64.7760201   6.8488133  82.5996780  60.2345562
   7.7969146  82.5665665  60.1071215   6.7085290  82.2011280  61.0934544
  61.4159918  95.9435272  76.1769009  62.1045923  95.7381535  75.5445385
  61.8644714  96.4267349  76.8708754  18.9498770  95.2842617  79.6698141
  18.7893128  95.6711578  78.8091421  18.3285820  94.5582485  79.7257328
  15.6540084 102.8858566  51.9478416  14.9545610 102.5747013  51.3732243
  16.0063326 102.0910645  52.3483467  19.3531477  50.5749130  78.7375259
  18.4994841  51.0078907  78.7419748  19.9601507  51.2454081  78.4241343
  15.4329479  65.1449590  20.8346576  15.7983578  64.3455702  21.2137050
  15.0188625  65.5923944  21.5726012  83.1429001  30.5109697  13.1966132
  82.1882512  30.5479818  13.1373900  83.3166077  29.8200136  13.8358516
  10.5369139  59.7572994  54.9935102  10.8069646  59.0498066  54.4080496
   9.6713537  60.0140810  54.6755505   9.4742930  80.7530022  17.8376150
   8.8146877  80.3222752  17.2938967   9.6661025  81.5708256  17.3787057
  74.6625363  41.4107805   2.1806544  75.5217066  41.1193185   1.8755168
  74.0435489  41.0151678   1.5669936  81.4826395  24.9452930  20.0007266
  82.2869518  25.4632669  20.0325603  80.8022311  25.5740171  19.7599334
  21.3844657  85.4029083  89.9526882  22.2740507  85.2492809  89.6344566
  21.4955091  85.6216240  90.8779240  41.7926264  84.6545696  87.0683575
  41.5986252  85.3627682  87.6823902  41.8008089  83.8645458  87.6087475
  11.0208750  94.9124432  77.6126719  11.7974341  94.4285679  77.8938437
  11.3232875  95.8154678  77.5161028  45.0078583  80.1144314  87.2787476
  45.4355049  79.2953587  87.0288181  44.0891981  79.9869251  87.0420265
  26.5561080  88.6590862  74.3243790  27.2210956  88.1258392  73.8888693
  26.8793702  88.7610435  75.2195549  18.0743241  97.4019527  42.4273014
  17.8640687  97.0006371  43.2704926  17.2307301  97.4786282  41.9815397
 114.3697304  76.3254690  81.7308617 114.8145055  75.8894968  81.0039997
 113.4383657  76.1840296  81.5612030  66.7431201  15.0903750  67.5518942
  66.8163861  15.9399081  67.1169662  65.8365334  15.0548793  67.8569746
  17.4750626  98.7746811  60.9756279  17.7408123  97.8551579  60.9655619
  16.5326858  98.7498283  61.1415863  72.4418677   8.4023715  60.2522659
  72.3175777   8.8857413  61.0690546  72.7617921   9.0578223  59.6323776
 111.3969614  88.8834572  62.4502802 111.1252852  89.2454243  61.6068316
 112.3341026  89.0716743  62.5010109  71.0078669  88.3778572  67.9423475
  71.1624479  87.8633595  68.7345791  71.7144775  88.1225300  67.3492670
  31.0669614   1.1899234  58.4778643  31.5026332   2.0119048  58.7031841
  31.3100303   1.0322524  57.5655651  48.2398272 104.2903137  72.0208168
  47.3565817 104.5009995  71.7179537  48.2318783 104.5085526  72.9527760
  82.1388305  14.4757891  85.0213718  81.9457115  14.8458529  84.1599846
  81.9572700  13.5407592  84.9265194  16.5132356  99.8398209  77.0923805
  17.3452115  99.3680096  77.1304369  15.9531331  99.3890285  77.7242899
 114.7059221  91.2623596  67.8991890 115.3968370  90.8626938  68.4275150
 114.2343629  91.8285084  68.5102081 100.7937982  89.2038059  93.0618954
  99.8733654  89.4614983  93.1131554 101.2641694  89.9042892  93.5138893
 111.1913278  85.6826210  61.2672806 110.3708597  86.1146736  61.0297966
 111.6579612  86.3292027  61.7968225  30.7839274  76.8697500  87.3886395
  30.1654243  76.2455368  87.7681732  31.4704156  76.9587755  88.0497265
  63.9790906  27.0600653  88.3364487  63.6093534  26.2610484  88.7120819
  63.2241882  27.5293875  87.9813480   7.2830999  18.4930902  30.3460711
   7.7526653  18.9604335  29.6551818   6.5333355  18.0980306  29.9010867
  62.5713195  13.8685656  66.3322401  62.5520362  13.9052344  65.3759336
  62.4174989  12.9468680  66.5397358  51.1618961   5.3283835  60.7758856
  50.3049995   5.4353476  61.1888266  51.7848600   5.3761149  61.5010548
  45.6430609   4.0792704  89.5566177  45.7040991   3.4377242  90.2643681
  46.5373869   4.1546012  89.2238426 114.0740252  92.4037647  38.0544877
 113.6013760  91.6250706  37.7604294 114.7714904  92.5185680  37.4090481
 101.9176855 104.0874100  77.4634790 101.6304495 104.9097633  77.8603077
 101.6254511 104.1455078  76.5538359  88.5713365  74.8048597   8.1421393
  87.9916074  74.9618440   7.3968142  89.1281750  75.5824857   8.1804008
   8.7524498  83.7942600  51.1039782   7.8342831  84.0366650  51.2241554
   9.0585756  84.3595886  50.3948116 106.3471868  49.8731237   8.4060019
 106.7717650  50.6995493   8.1758231 106.9352462  49.4717985   9.0458125
  55.8222628  84.4259262  71.4492512  54.9229622  84.2301464  71.7122459
  55.7329130  85.0927448  70.7683754   5.8533949  63.3635950  86.6632843
   6.4087772  64.1430521  86.6784859   4.9901304  63.6793518  86.9303036
   7.6480740 103.9078999  70.8972263   7.4076951 104.3168736  70.0658464
   8.1196904 104.5916271  71.3729668 114.2252757  70.7131200   0.4402083
 114.5154788  71.5170389   0.0092620 113.9463022  70.1440912  -0.2771646
 103.9956727  85.6479263  74.4895363 103.1456294  86.0198593  74.2543221
 104.2014935  86.0389042  75.3386545  52.6027727  77.2057438  56.2741184
  53.0662012  76.8053436  57.0097446  51.9672346  77.7934265  56.6827106
  38.7624121  99.0952587  59.9595404  38.2845736  99.9209595  60.0377655
  39.6843123  99.3524361  59.9456167  22.3953487   3.1275988  78.4370565
  23.2778014   2.7670241  78.3504820  22.5216235   3.9656306  78.8820219
  18.7920547  81.9320011  62.2462797  18.4019029  81.7245007  63.0953741
  19.3152535  81.1606789  62.0281935 102.3523082  59.8567009  37.0246553
 102.3201635  59.5436859  37.9286599 101.4347615  59.9776697  36.7803097
  30.7234384   7.0985938  59.8223257  31.1385323   7.9206897  59.5613956
  31.4542521   6.5013648  59.9819183  11.3357258  94.4888020  55.4389524
  11.5482569  95.1704407  54.8014307  12.1838975  94.2131424  55.7865858
  43.4412087   1.0530806  55.1207209  44.2947687   0.7126380  55.3886175
  43.1786458   1.6315985  55.8366871  95.0683310  28.6505418  38.1672114
  94.6604886  28.4629350  37.3218173  94.8899152  27.8734880  38.6969203
  12.8458667  80.0193214  83.6845207  12.4717271  79.1676617  83.4588528
  12.1563375  80.6479836  83.4710693  25.9272861 108.7783909  90.4045391
  26.7912936 108.3843136  90.2844238  26.0927558 109.7211647  90.4104424
   3.4415597  76.3598967  87.4056053   2.7679738  76.0129356  86.8206787
   3.0163792  77.0913410  87.8533077   8.1032652 106.8783951  85.9790421
   8.9300507 106.7581749  85.5119133   8.3542269 106.9271851  86.9014645
   8.3997279  82.3774910  71.0210657   9.0871984  82.7707767  70.4835367
   8.6273330  81.4485168  71.0589743  26.1793470  96.9944286  50.3682232
  25.3194237  96.5826607  50.4531574  26.0560918  97.6713371  49.7027636
  16.2700462  82.5767612  77.2557592  15.8171570  82.2727871  76.4691687
  15.5721474  82.7121353  77.8967285   8.9726675  75.4570585   1.5388698
   8.2430589  76.0443788   1.3415164   9.5117986  75.9454923   2.1609706
  86.2914289   0.1108504  57.5812101  85.4868377   0.6273413  57.5352812
  86.9876589   0.7327700  57.3697472 114.2941031  79.9474716  75.7030535
 114.6201575  79.9570036  76.6029596 114.4125723  79.0423775  75.4149532
 101.8206313  30.5729204  12.8078193 102.0162871  29.7213941  13.1987876
 102.6756480  30.9250265  12.5604362 109.1878011  19.8805051   8.2704753
 109.8960211  20.1989370   8.8301677 108.9207747  19.0525680   8.6697883
  55.7159353   9.9386836  75.8115816  56.6254414  10.1770640  75.6321192
  55.7738138   9.0982009  76.2659788  29.3399000  90.6577492  65.6099653
  29.2767859  91.2677002  64.8749781  28.4309626  90.4680824  65.8425426
  25.3992128  99.5368576  80.0611687  25.6806588 100.3303719  79.6058083
  26.1938190  99.0082264  80.1345730  96.8361320  67.2834635  61.2859535
  96.7622401  68.2335424  61.3760757  95.9354891  66.9838428  61.1622524
  34.1098912  15.5751181  68.6189175  34.7595356  15.4847575  67.9217625
  33.8958685  14.6751834  68.8649750  51.3453866   2.2991229  75.8936119
  50.7166446   2.8294516  75.4040527  52.1588005   2.3700190  75.3940487
  48.2857656  95.5077934  62.9695892  47.6366043  95.9399700  62.4145746
  48.8205910  96.2230110  63.3140469  17.8589725  89.6434689  93.9752960
  17.7203476  90.5316734  94.3040943  17.2840142  89.5778751  93.2128334
  13.7365997  97.4194431  59.8567772  14.3116343  96.6649532  59.7290468
  14.0717304  97.8451347  60.6458950 106.2585128  11.5701819  90.4049206
 105.7141603  11.6215945  91.1905861 105.7999958  12.1089793  89.7601700
  86.1405719  15.6070185  42.5602484  86.3798488  15.0402785  43.2935858
  85.5564655  16.2612010  42.9437780  86.5489181  30.2916532   0.8489913
  86.8807896  29.4538408   1.1717338  86.7332032  30.9105020   1.5556067
  43.3946228  96.5089226  41.8287516  43.7398386  95.6792831  41.4989662
  43.6793995  97.1590519  41.1865187  21.4480066  92.8889751  61.6362143
  21.1093450  92.9608631  60.7438183  21.3357329  91.9654179  61.8613291
  88.3224680   8.0206161  31.5382213  88.7803199   8.8592344  31.4806003
  89.0205040   7.3656851  31.5316123  21.4606738  90.4818821  62.3768616
  21.9222116  90.1195621  61.6205931  22.1551752  90.7077980  62.9956150
  66.4983203  66.3284403   2.0673865  66.3652935  65.3805547   2.0600909
  67.2819927  66.4644247   1.5348548  44.7105540   6.3526202  68.5619307
  44.7723443   7.0185900  69.2466831  44.6233995   6.8515731  67.7497196
   6.2220621  96.2745380  25.6966567   7.0947897  95.9112358  25.5463576
   6.2869406  97.1831131  25.4025245   5.2906817  91.5344524  46.1349392
   4.3734109  91.5938377  46.4019966   5.7849002  91.6789341  46.9418526
 116.1758067  36.0066705   0.8245200 116.6912868  35.2198606   1.0017985
 115.3400257  35.8494764   1.2638301   8.5989368  79.2060614  80.1237106
   8.4925097  80.0648880  80.5327797   8.9456391  79.3971825  79.2522144
  42.8412008 108.1564140  82.4421692  43.3889627 108.8059902  82.8828716
  42.9452753 108.3480453  81.5101337  67.4887122  90.6585340  10.0679511
  67.3910416  91.4617114   9.5564860  67.8359498  90.0192075   9.4459266
  54.0597893  29.0442706  93.3071613  53.8252677  28.5161353  94.0702438
  54.3942536  28.4115077  92.6715660 113.2531502  20.4196125  15.7333106
 112.3179700  20.5353313  15.9014815 113.2916477  19.7709804  15.0304431
  31.4734554  87.8780460  38.9742541  30.8411407  88.5556602  38.7349963
  31.9607854  88.2534122  39.7076321   9.6845269  89.6796894  57.2477293
   9.1901851  89.8463535  56.4451790  10.5438650  90.0685787  57.0848274
 107.9930069  26.0061842   7.8272552 107.8157236  25.9402376   6.8889255
 108.9209130  25.7868677   7.9116839  30.8599305 106.6819859  81.9061470
  31.4880133 106.0242558  81.6075993  30.8596396 106.5974903  82.8596115
  53.5904766  42.5796557  86.2146378  53.7935723  42.8292514  87.1161270
  53.0565299  41.7897464  86.2993145  62.0258904  96.3955498  68.3503008
  62.8305483  96.5757179  67.8641987  62.0671034  96.9804096  69.1069221
  26.2736559  91.2125874  63.4165812  26.9177842  90.9214783  62.7711439
  25.9391737  92.0379639  63.0657101  15.6213129  98.6521626  33.9735126
  15.8983064  98.0850029  34.6931171  16.2099445  99.4054222  34.0220261
 107.1556028  93.4504795  69.0359068 106.5959003  94.0304279  69.5522547
 107.0352789  92.5870705  69.4312382  26.9883633 105.0236893  88.7655735
  27.5282860 105.3268814  89.4955063  27.3443198 104.1627502  88.5457993
  42.2189070  22.0410968  77.2404861  41.6807754  21.8148757  77.9990864
  42.2353424  21.2431861  76.7119932 112.1974910  30.4482318  95.1503277
 112.1255220  31.4006091  95.2138042 111.8741239  30.2415133  94.2734432
  85.8783722 109.0535259  65.7642508  85.2180958 109.7453308  65.8052015
  85.5265236 108.4235668  65.1352978  84.1845568  27.7029710   6.0223311
  83.4418162  27.9099374   6.5895480  84.8993006  27.5033384   6.6269130
  31.6798210  90.0547314  88.7016010  31.9179010  90.0165653  87.7752686
  30.9332204  90.6529427  88.7325573  12.9163790  52.6449633  63.9912462
  13.8670671  52.5338268  63.9827442  12.7826834  53.5772419  63.8203049
 115.7837393  33.6471277  17.7337665 115.6157281  33.8987070  16.8256301
 115.5554941  34.4243246  18.2437533  32.5547910 107.5743198  52.3926687
  32.3629570 107.1853352  53.2459736  32.6313066 108.5120773  52.5686789
  81.5446295  90.3360271  57.1787405  80.6480946  90.1988792  57.4847555
  82.0592274  89.6740627  57.6405096  97.9767587  22.0578628  10.8715075
  97.0690479  21.8948131  10.6151694  98.0051591  22.9938274  11.0699862
   3.6619371 108.4501362  75.3168869   4.5548066 108.1111813  75.3811121
   3.4877336 108.8307381  76.1777163  76.7503084  14.0599204  30.9917641
  76.5208973  14.6221781  30.2518559  76.8406309  14.6615267  31.7307758
  45.6290848   8.6959792  83.1942654  46.5493430   8.7191535  82.9319286
  45.4914142   7.8015948  83.5062599   8.6220914  55.2844477  82.3265171
   9.3986678  54.9354744  82.7639866   7.9964364  54.5600796  82.3352528
  95.3362706   9.8256641  29.6727008  96.0038152   9.1646343  29.8561400
  94.5904591   9.3268114  29.3393249  24.3798828  63.8534880  79.7857666
  23.8712788  63.0502939  79.6742535  24.2154193  64.3540239  78.9866114
  70.5516481  70.9529114  76.5059376  71.3730574  71.2088156  76.9255018
  70.7531309  70.1248360  76.0701323  43.5228491  86.9141197  71.2599468
  42.8448629  87.4528313  71.6678190  43.4237432  87.0743656  70.3214741
  56.0191727 104.2730999  76.9405031  56.3915110 104.9167252  77.5432873
  55.3998375 103.7753201  77.4742365  14.6204770 101.3391685  80.7427597
  14.3139923 101.7492390  79.9339676  14.0644562 101.7129135  81.4264202
 113.5096480  87.3601532  81.9966984 112.9053014  87.7843475  81.3875580
 114.0845866  86.8368816  81.4382458  96.8048551  68.6754423  15.6473273
  96.4113810  67.8099447  15.7583064  97.6643112  68.5004621  15.2639979
  40.9089946 104.0145116  17.0913333  41.6835101 104.5033841  16.8131942
  40.5542756 103.6469703  16.2818164  16.7436361  76.8424892  81.3331413
  16.7478967  77.5588846  81.9679546  17.3941183  77.0981455  80.6791210
  24.5402908 108.4710693  54.6726274  25.0834441 109.0800190  55.1730108
  24.0448284 109.0290928  54.0731621   9.2317688  67.4079943  61.3217354
   8.7489623  66.5814972  61.3159418   8.9657933  67.8350449  62.1360540
  40.5917740  75.4104185  77.7736855  39.7947860  75.8833408  78.0132389
  41.2722445  76.0832691  77.7522182  20.3054714  69.1235161  68.9225054
  19.7472239  69.6425533  68.3435488  20.3337574  69.6227026  69.7387457
  32.1793652  79.3792200  82.8343296  31.9139314  79.0062284  83.6749554
  33.1321359  79.4495344  82.8936481  97.7040532  37.3267084  13.6722774
  97.3014858  36.4935976  13.9174098  97.1131470  37.6939970  13.0148810
  11.0390032  29.6396166  21.0298842  10.7415998  28.9899641  21.6668624
  10.5896223  29.4027620  20.2185935   3.1674984 104.0190697  69.7735834
   2.5714535 104.2067051  70.4986715   3.7544283 104.7746372  69.7443438
  82.2477826  42.0751386  33.3437842  81.9002634  42.1908861  34.2281264
  82.5930112  41.1823850  33.3370513  17.5557792 107.5184631  79.3069649
  16.6035640 107.6158524  79.3009949  17.7085769 106.6856861  79.7534657
  12.0236111 103.8195229  48.4846735  11.2109613 103.3382416  48.6402225
  11.7781937 104.5119190  47.8710032  11.3852417  93.5868263  63.7903738
  11.0392332  93.5106277  64.6795893  10.7017767  93.2124805  63.2345247
  61.0240234   2.4138022  25.7258582  61.5748037   1.9747019  25.0777292
  61.6435469   2.8535128  26.3081574  22.1163082 102.6423550  58.2869864
  22.1219373 102.0439243  57.5399399  22.2311807 103.5101032  57.8996229
  53.2780838  91.5800095  58.9466190  52.4912930  91.0454082  58.8398933
  54.0009212  90.9845352  58.7487745  74.0624809  78.7732077  60.2260399
  74.0770292  79.4264460  59.5265436  73.4921837  79.1515493  60.8952570
  83.2444824   3.7438250  78.6266994  83.8345684   4.4383002  78.9194870
  83.5955347   3.4730769  77.7783537  51.3427305  86.0548782  71.1394310
  51.9108152  86.3416481  70.4243994  51.2813950  86.8160343  71.7165995
  15.6506097  89.4076443  50.4516363  15.7433176  89.6549129  51.3716888
  15.3696537  88.4929466  50.4765940 103.9400294  27.1254640  16.1814517
 104.6448519  27.5325971  15.6777686 104.2248442  27.1964365  17.0925349
  27.4815893  95.3683949  41.7631769  27.6907516  95.7159901  42.6301575
  26.9589162  94.5859051  41.9385624   4.2633253  82.8157234  79.9661350
   4.5060462  83.5442638  79.3946886   4.1889805  83.2081318  80.8360386
  17.4646342  65.1654530  80.0491142  18.2175314  65.7056046  79.8090887
  17.8029954  64.5642567  80.7126713   3.5797298  10.2299553  23.9217872
   3.6081016  11.1827427  23.8344783   4.4749964   9.9840217  24.1546935
  53.4408045  94.7501183  85.7332897  54.0499401  94.0121460  85.7092953
  52.7821636  94.4961071  86.3797474  97.7365984  16.6405535  90.0665092
  97.0359768  17.0509101  90.5734253  97.2996391  15.9478617  89.5710468
  46.2885536   0.8215094  42.6240683  46.2879891  -0.0109720  42.1516132
  47.2108437   0.9838153  42.8222370  23.7571955  75.4265022  67.0881271
  23.5078645  76.0567760  67.7640152  23.3905435  74.5950699  67.3889875
 103.3237041  38.4766627  60.0861263 102.6736988  37.8204871  60.3374195
 103.0986513  39.2481375  60.6061411  41.4058304 103.4578228  73.6033630
  41.2887049 103.5586452  74.5480061  42.3355246 103.6326218  73.4572792
  34.3796039  90.9919834  88.9912510  34.6043444  90.6848526  88.1129551
  33.4746575  90.7078934  89.1200638  89.2517675  13.2529879  84.1442108
  89.4396747  12.4349356  83.6840725  88.4186376  13.5484172  83.7769985
  97.1786846   2.8564788  42.9607630  96.9546570   3.6903907  43.3738279
  96.4095367   2.3046447  43.1026506  48.2173729  82.1532631  83.4572697
  47.7051020  81.7404556  82.7619934  47.8053284  81.8545628  84.2679596
  15.3729666  53.9847189   3.9218158  15.6802547  54.1138750   3.0245227
  15.4828871  54.8396593   4.3380183  70.0401592 101.2274075  69.6404886
  69.1348553 101.4580345  69.4319963  70.4187584 100.9618473  68.8024139
  23.0163193  76.8784952  89.2701244  23.7128067  77.4055862  88.8785744
  22.3864770  77.5199699  89.5988178  96.2603047  27.6254945   8.4490222
  96.5269055  28.5179239   8.6697501  97.0800319  27.1727567   8.2507628
  63.0416382   1.9547892  58.0396414  63.7504710   1.6846991  58.6234570
  62.7018942   2.7592517  58.4316111  56.2596941 107.5500202  55.0889158
  56.9722319 107.4001598  54.4675827  56.2502623 108.4983826  55.2183485
  45.4017258  98.4983253  64.3749237  44.7797728  97.8925133  63.9719439
  46.2249851  98.0109692  64.4058943  57.1954441 106.4956188  58.8103962
  57.0196247 105.9233475  58.0635166  57.8690624 106.0355949  59.3112469
 102.8478254   7.1840811  92.5655556 102.4607576   6.3244677  92.3997879
 102.1415819   7.6917124  92.9652691   7.3305547 101.5488529  54.7463942
   8.0522251 101.1190414  54.2873859   6.5861094 100.9589672  54.6277761
  31.0625601  88.5584927  71.1010933  30.9272218  87.7126789  71.5283155
  31.8462181  88.9153194  71.5191650  89.1788067  14.0711070  71.7087746
  88.8534702  14.4811774  72.5101662  89.4593204  14.8044730  71.1613131
  78.9052356   0.2323104  94.8638344  79.5253671  -0.0056123  95.5530834
  79.4560207   0.4842330  94.1226196  39.6080399 105.8419037  90.9941578
  40.1724052 106.1616039  90.2902317  38.7197113 105.9355259  90.6501579
  61.6205597 102.6472569  80.8795643  61.3045168 102.5003242  81.7710590
  62.1701813 103.4281158  80.9459400  52.4322844 104.2813873  54.3800116
  52.8227663 105.0688553  54.7590351  51.7477798 104.0310192  55.0004959
  31.6884446 107.5978279  49.7070599  31.9686913 107.5171757  50.6187582
  32.1260881 108.3882618  49.3909883 111.0785797  42.1043497  10.6006831
 110.7686856  42.9199606  10.2070064 110.5167606  41.4275556  10.2231425
  64.6173538   5.4504443  71.3115835  64.4788231   6.3476134  71.0080576
  64.5266999   5.5028010  72.2630405  63.1936921  12.9363299  55.8324957
  62.3094906  12.6172305  55.6519556  63.2082690  13.0789424  56.7789030
  73.0226911  13.9894820  84.8357773  72.4523534  13.2870055  85.1479912
  73.8377155  13.8709021  85.3235340  31.1204083  -0.0597810  72.4232101
  31.9879712  -0.1592588  72.0312023  31.2920566   0.2781726  73.3021641
  21.8026638  91.0581398  45.1309824  22.5186539  90.7062435  44.6020555
  22.0727324  91.9536781  45.3342009  72.2478117  29.4546748  87.4852276
  71.6605056  29.7645045  86.7957973  71.7366518  29.5372153  88.2903004
  30.7445550  67.4510908  86.3147831  30.6764722  68.3970976  86.4439011
  31.5894747  67.3286295  85.8819485  32.4075055  87.0818520  76.9128847
  32.2611070  87.5051785  77.7588081  32.5961637  87.8037167  76.3132668
 114.3917510  72.7368975  79.8878384 114.5423358  72.9176044  80.8156872
 114.8368910  71.9042015  79.7306776 110.7867696  48.6149221   2.5314826
 110.0344469  48.3547216   1.9999427 111.3095381  49.1688543   1.9517440
  22.7588463  98.7748337  41.3720751  22.4100232  99.5090389  40.8666134
  22.2238851  98.0263996  41.1076927  62.3542595  94.4913960  84.1491127
  61.4348698  94.7336960  84.0384674  62.7186394  95.1811314  84.7038460
  41.9012499 109.0425682  70.0883007  42.1350574 109.3593216  70.9607887
  41.7544699 108.1039906  70.2056122  16.3984823 102.6103115  67.2236586
  17.2046018 102.7217674  66.7196989  16.1598670 103.4972763  67.4930716
  57.8850174  88.1746101  74.6437407  57.5761032  88.8202763  75.2792883
  58.8230896  88.0971527  74.8176718  23.7601447  87.0824337  65.1172829
  22.8938794  87.4814129  65.0358438  23.8496566  86.5419483  64.3323612
  61.1738920  86.7082310  57.6769114  60.7804918  86.1867046  58.3765364
  61.2686586  87.5827312  58.0543995   0.4432278  92.9082680  53.1635809
   1.2460265  92.8927231  52.6425219   0.5771025  93.6207962  53.7885666
  43.1243801  76.4886284  74.4503641  42.1865463  76.5961981  74.2918491
  43.5433006  76.8802881  73.6839867 108.0796159   5.4340602  77.8196716
 108.9882864   5.6806517  77.9921389 108.0783094   5.1480246  76.9062090
  55.1260806  21.9626666  71.5530682  54.4900120  21.2847758  71.7813444
  55.1954318  22.5012351  72.3413420  66.9713963   8.6334849  88.1900406
  66.7113174   8.2322169  89.0192413  66.2743915   9.2610026  87.9986095
  42.4083090  91.6668987  84.9718857  41.7468643  91.5787697  85.6581497
  42.1499777  92.4523926  84.4896984  65.2608932   3.8517237  69.0680742
  64.5831741   4.0436507  68.4199286  65.0494446   4.4177104  69.8104906
  14.3939150  50.2792936   2.0487040  14.6269739  51.1534506   1.7360419
  13.6674726  50.0096899   1.4867228   8.1092244  96.9551468  92.9521847
   7.2385579  97.0167255  92.5592709   8.0774778  96.1579704  93.4810829
  35.1290536  99.8011875  79.9458790  34.7991705  99.0066147  80.3654766
  35.9335709 100.0070858  80.4218960 116.2275007  59.9068933  24.4389361
 115.6461193  60.6509309  24.5959109 117.0233824  60.2969270  24.0774363
  62.9822029   5.7610942  90.2466393  63.8189496   6.0546065  89.8861694
  62.9376568   6.1690379  91.1114120  26.2177205  93.9766312  52.0437193
  27.0671010  93.5511208  52.1608877  26.2595701  94.7527885  52.6023436
  72.0378650   7.0849467  53.6387730  71.3327635   7.6900626  53.8687611
  72.8335870   7.5133944  53.9541960  31.2809658 100.8601761  39.5017862
  31.4578843  99.9196625  39.5209813  31.0391569 101.0768223  40.4022455
  55.4878330 105.4861927  84.5020008  55.2728271 106.3794518  84.2334938
  54.7531509 105.2186775  85.0541878  46.4636053   1.5497065  70.4984951
  46.1881108   2.3744727  70.0983810  47.2976084   1.7552329  70.9209013
  34.3564987  99.0411854  66.8428707  33.5291100  99.5194721  66.8967438
  34.8284459  99.2887115  67.6379967  17.1534610  94.8374748  91.0747719
  18.0932820  94.6649265  91.1312962  16.9435382  94.7192764  90.1483822
  22.3747480  70.1556116   7.9979438  22.9798687  70.7738977   8.4075660
  21.6562689  70.7006078   7.6770133 112.7262857  63.5391622   0.2448768
 112.1680286  63.9705854   0.8917636 113.2180812  64.2529588  -0.1611596
  23.2529211  61.3967466  79.1069031  23.9567280  60.7524252  79.1826344
  22.4511218  60.8743191  79.0863037  22.6899934 105.7281303  68.2783556
  23.2087135 105.0556374  68.7198591  21.7877150 105.4150009  68.3422184
  10.6263517  24.2304564  93.6795712  11.4604448  24.5982981  93.9714718
  10.6509852  24.3081713  92.7258492  10.9721554  51.4588934  14.4698352
  11.5316522  52.2106653  14.2747897  11.5678394  50.7096391  14.4661349
  68.8403071   1.5525962  84.6737766  69.3243135   1.2336589  85.4355145
  68.9398135   0.8606864  84.0198803   9.0184909 100.1031017  53.1110764
   9.3374610  99.2195225  53.2948971   9.8114687 100.6351757  53.0454493
  31.6388202  95.0842094  89.5255661  31.7060113  95.8343601  90.1163197
  31.4941192  95.4714298  88.6622334  34.7249174  92.2263908  57.1493530
  34.5979452  92.7929783  56.3883734  33.9685965  92.4034977  57.7086782
  86.3339806 101.4567089  85.5495167  85.7257557 101.4240170  84.8111153
  87.0487499 100.8722210  85.2971077  24.1266441  91.2799740  82.6225758
  24.3657112  91.3796329  81.7010880  23.1976843  91.5084648  82.6550770
 115.8894223 104.5706367  66.0786581 116.0433040 104.8651409  66.9763327
 116.6008881 103.9547443  65.9033680  68.1985235  85.0501251  83.7315369
  68.4829807  85.8826923  83.3545113  68.9896870  84.6830463  84.1259289
  86.3507522  20.1442099  73.3234644  86.4416708  19.3177081  73.7976599
  85.6267370  19.9933100  72.7157879  54.8507024  17.8014327  73.3776569
  53.9057900  17.8769828  73.2447529  55.0469340  18.4350825  74.0677357
  59.1661037  11.9529582  83.2682991  58.9072598  11.1587668  83.7357140
  58.3565427  12.2696639  82.8676224   6.1641037 103.9334202  52.5885773
   5.3390038 103.8238049  53.0612564   6.7331100 104.3957043  53.2040024
  50.8065367  96.7655849  90.5805874  50.4731607  96.7416096  89.6836376
  51.6827488  97.1424961  90.5004501  38.3986354  96.7609119  77.2096348
  38.6302900  97.6752281  77.0465517  37.4570322  96.7189693  77.0427322
  75.7567323  22.4065829  90.6046104  76.5194453  21.8323184  90.6732559
  75.0404371  21.8242217  90.3516102  52.2499180  92.2563457  53.2051659
  53.1855011  92.3146915  53.0114889  52.1803617  91.5410519  53.8374186
  15.9661174  86.7743397  90.5386734  16.8792605  86.9632435  90.7548141
  15.4974508  86.8787003  91.3667393  32.7844024 102.2871590  87.7454662
  32.7672172 101.9050217  86.8680286  32.4307823 101.6016197  88.3122349
  46.9587612  84.3523502  59.1831255  47.7636862  84.0126610  58.7920427
  47.0734882  85.3026390  59.1800642  62.5770439  14.1013957  89.2246056
  62.4724473  14.9331713  89.6866035  63.2108868  14.2898703  88.5325432
  73.4827579   0.8741999  55.0098133  73.7550510   0.1199103  55.5324364
  74.1529859   0.9494734  54.3305779  30.9834528  71.2291288  68.9362526
  31.5239620  71.4914227  69.6814251  31.4202929  71.6137600  68.1763411
  39.1258240  64.4339037  60.1452589  38.9700651  65.0887012  60.8258533
  39.0919638  64.9274540  59.3258095  29.1763258  81.6534233  80.0087261
  28.7156081  82.4794483  80.1559067  29.7828960  81.5828609  80.7458305
 111.5876558  63.3069139  13.3082122 111.0323884  62.8086858  12.7084846
 111.0962155  64.1106229  13.4778041  12.6437688  72.7782249  63.6004448
  13.2842410  73.2286549  63.0498648  12.1670473  73.4830236  64.0388823
  91.4086736  38.2664729  38.7525320  90.9941734  37.9923678  37.9344296
  91.3097061  37.5134993  39.3351817  56.7132474  13.0746794  83.0280113
  56.4793755  13.0496646  82.1001625  55.8973135  12.8732920  83.4861946
 107.4373957 101.4125633  87.3852634 106.6221406 100.9765530  87.1372986
 107.3577126 101.5505981  88.3290958  79.5783247   6.4926673  31.1090875
  79.9749721   7.0241214  30.4188275  79.3346084   5.6763602  30.6726694
   8.8569725  22.6071983   1.2195128   8.7166155  21.9012170   1.8504828
   9.4453848  23.2151037   1.6672343  42.3140097 108.5166645  88.0237293
  42.6863194 109.3880177  88.1592178  42.3179245 108.1166744  88.8933468
  92.1797098  15.0331164  79.2399740  91.6915621  14.9951792  80.0624752
  93.0511774  15.3380824  79.4925165  86.9437790 107.1688843  88.8529968
  86.8948269 108.0909634  89.1052151  87.8812218 106.9771099  88.8270760
  37.3934484 103.8180733  73.4354496  37.3083687 103.4695244  72.5480366
  36.6393256 103.4625912  73.9057255  36.5452147  44.4698191  16.7007637
  35.8090758  44.8013878  16.1865711  37.1655512  45.1982784  16.7282653
  85.0635280  42.5471973  40.8373022  85.2426042  42.3935843  41.7649698
  85.2482118  43.4775496  40.7085705  28.9781840  82.8723292  10.8112830
  29.1174794  83.1021647  11.7299861  28.6841274  81.9617038  10.8341331
   7.4720478  31.0046959  57.2914743   8.2207227  31.4602661  57.6764107
   7.7456623  30.0884604  57.2480917  13.3228743  59.8771906  74.9579287
  13.8233459  60.1274395  74.1813135  13.1551266  60.7033777  75.4112577
   6.5935999  57.6989746  57.7356291   6.3506764  58.5400915  58.1226015
   5.8297491  57.1400833  57.8784657  97.3876907  50.9793711   8.1314296
  97.8715434  50.5499458   7.4259436  96.4803793  50.9915924   7.8266853
   2.3414107  58.2895899  26.3426733   3.2938167  58.3363295  26.4261580
   2.1055949  59.0741062  25.8475375 101.8740465  31.8548679  67.2832584
 102.4688818  32.4393535  66.8133879 102.3723580  31.5718365  68.0499506
  98.5340502  37.2385001  37.8931141  98.0210831  38.0197740  37.6864552
  97.8930511  36.6140532  38.2328486  94.1683235  60.6801701  87.9392052
  94.5376434  60.1408148  87.2399712  94.7040143  61.4734316  87.9381371
 103.6957659   7.6564527  46.3683558 102.9707398   8.2669550  46.5019846
 103.3595886   6.8144733  46.6754198  59.8826325 101.1536116  94.9750454
  59.6947944 102.0746083  94.7941905  60.3668558 100.8524699  94.2062322
  11.8863977  90.5828075  10.2582568  11.9434894  91.0199933   9.4086474
  12.6047744  89.9502616  10.2508849  11.8382561  11.6760170  60.3497028
  12.5360835  11.1360383  59.9786377  11.5537250  11.1977148  61.1284876
  54.6999025  37.5652313  71.9317770  54.1232395  38.2818842  71.6670132
  54.1197920  36.8080497  72.0116663   5.3100860  38.8244724  66.5223932
   5.2158499  37.9437685  66.8853188   4.5410025  38.9368629  65.9637260
  51.2392759  58.9486265  22.2178602  50.9010983  59.2290545  21.3674307
  51.0575676  58.0093813  22.2499871 106.9858464  42.2553968  75.3444529
 106.5290399  42.6427031  74.5977545 107.7841969  42.7759838  75.4331017
  91.1025252  62.1673059  56.8480587  90.6693282  61.3373470  56.6487169
  90.5180587  62.8348637  56.4888906   3.0650550  28.1561041  25.9353805
   3.2701382  28.4553337  26.8211746   3.3803767  27.2527242  25.9087253
  10.6000519  54.1237307  53.7123489  11.4167392  54.0179729  54.2002726
  10.5986273  53.3984756  53.0876589  30.4391618  94.9832778   9.7036571
  30.8596618  94.1295319   9.8062819  29.6227182  94.9090772  10.1977653
  93.9349212  25.7080340  65.4271555  93.1682839  25.1365352  65.3837013
  93.7538137  26.2964058  66.1601305 106.9693496  55.3978395  63.9276505
 106.2017049  55.8370543  63.5615301 106.7996862  54.4657087  63.7913561
 108.9601930  45.0959539  67.9476929 109.8500051  44.7464371  67.8996801
 108.4714296  44.5975447  67.2927666 111.9264009  41.2578583  80.2563286
 112.6378049  40.6198025  80.2013206 112.1338936  41.7818117  81.0300541
  79.5610996 103.1736624  87.9115009  80.3538085 103.1829845  88.4479237
  78.9377404 102.6494943  88.4143925 112.8056245  41.2910223  58.9900589
 112.2831776  41.3968849  58.1950283 113.4751775  40.6493616  58.7529993
  42.8852415  49.4237280  35.8698010  42.9212904  50.2911186  35.4665995
  41.9520140  49.2631721  36.0095668 111.9032743  68.6697626  47.8598213
 112.6134803  68.0288553  47.8269911 112.1832614  69.3680525  47.2680140
  14.6111500  29.0801120  86.5179729  14.2462492  28.2034254  86.6383839
  14.2112243  29.6034718  87.2125149  10.5346787  60.7243776  69.2096567
  10.7460403  61.3283682  69.9215221   9.6225339  60.9183836  68.9938211
   9.0053952  49.7395468  21.7109776   8.9990002  49.3144941  20.8533525
   8.8834614  49.0233183  22.3341799 106.0188558  56.4616394  78.0643463
 106.0554256  56.5996885  79.0108347 105.0892963  56.5334463  77.8475666
   4.8419499  48.7522602  52.0807362   4.6201748  47.9508018  51.6066980
   5.6107736  48.5180664  52.6006365 112.9494559  26.2014437  31.4859152
 113.4635671  26.9399834  31.1596012 113.5709175  25.4743099  31.5219069
   3.7066758  51.9582033  45.0396156   4.3489304  51.3258886  45.3619766
   2.8615549  51.5270090  45.1664066 111.6961186  73.8928699  46.2285137
 111.2462517  74.5556736  45.7045460 110.9966370  73.4571505  46.7154455
   8.6992890  41.4105892  51.5583897   9.2282254  40.8902597  52.1631384
   7.9540855  41.7033577  52.0829773 111.1574074  56.9173288  72.2694683
 110.8695831  56.1634159  71.7546892 111.4693006  57.5464964  71.6190052
  12.5993800  21.1126971  42.3042250  13.2645154  20.5366898  41.9273376
  11.9538605  20.5167174  42.6841545 110.7509001  38.3667850  86.8488693
 111.2726690  38.8261771  86.1908817 110.3446283  37.6440382  86.3705254
  21.3663602  68.4105301  79.4204473  22.1491528  68.0560780  79.8421431
  21.5508699  69.3443012  79.3191528   6.5600127  53.3124065  33.8813496
   5.9767163  54.0565634  33.7322426   7.1037203  53.5790396  34.6226478
  25.6899786  45.3892183  41.3579035  25.2277517  46.0918617  41.8149233
  25.0520253  44.6775532  41.3051844  96.7640223  46.4722395  89.5348549
  97.6450946  46.2604046  89.8431873  96.8765106  47.2699690  89.0179348
   1.9893634  47.7516747  70.1862860   2.0546269  46.9465446  69.6727324
   1.2741119  47.5865984  70.8006096  11.6245544  44.2467022  48.0799294
  11.1622858  43.5882235  47.5613308  12.5513005  44.0788412  47.9090643
  18.3360231  65.9784460  72.9797840  17.8194833  66.7840052  73.0020332
  17.6861537  65.2763128  73.0098581  68.2680978  93.8959889  11.3610476
  68.8239850  93.1340318  11.5242785  68.7002958  94.6119456  11.8267077
 105.8719911  40.2258444  36.9096494 105.1886024  39.5702147  37.0487857
 106.5367784  40.0222111  37.5675416 112.9112657  36.1891222  83.9353371
 113.2284917  36.9900179  84.3526649 113.2403289  35.4828286  84.4913006
  21.9336700  20.2789831  63.4178782  21.9960618  20.9412098  64.1062069
  22.3109150  20.7000828  62.6454878 101.3786628  39.3032551  93.7308121
 100.6853511  39.3270969  93.0712795 101.9712903  38.6141562  93.4305286
 115.8659756  11.4995193  27.5830984 116.7504714  11.1632633  27.4387693
 115.8644012  11.7850316  28.4967232  94.0519681  45.5070162  51.4067554
  93.4832968  46.1690187  51.0135746  94.3610372  44.9860239  50.6656218
  19.6691072  24.7371054  37.1450162  20.5841160  24.6987987  36.8665886
  19.4577765  25.6706834  37.1454835 103.2624449  41.2488985  42.8945541
 103.5098579  41.1928272  41.9715834 102.4714913  40.7142210  42.9634047
   4.9475420  32.3707962  37.4355006   5.1790953  31.7685604  36.7284465
   5.6001621  32.2039723  38.1155658  11.7451274  13.1317067  50.7118654
  12.6422560  12.8237689  50.8405685  11.1977136  12.3951960  50.9841204
  17.4800920  24.7648096  61.4201880  18.3083737  24.2910671  61.3443613
  17.6913714  25.5332923  61.9503117  22.2873521  85.2214432  71.0704708
  22.0693064  84.5103073  70.4679966  23.2426882  85.2028561  71.1271906
  82.0357479 106.6191678   7.9331416  81.8904508 106.0251431   7.1967620
  81.6365589 107.4443583   7.6575774   7.3862416  76.8877697  53.5632753
   6.6518044  77.4613523  53.3445549   7.0304596  76.2795591  54.2111397
  97.6895787  35.3158832  22.7185464  97.7432801  35.3773999  21.7648363
  98.4602990  35.7885909  23.0328226   0.2261712  31.7756367  77.5380182
   0.3637385  32.0253420  76.6242599  -0.4960833  32.3308086  77.8318977
 107.6349868  39.0311694  60.8489370 108.5628738  39.2662048  60.8451128
 107.2201302  39.7023416  61.3908339  29.3772149  28.8528776  44.8879910
  28.5425568  28.6604238  45.3152323  29.7690487  29.5403719  45.4265547
  13.9941287   4.7076112  43.7472200  14.0186119   4.6782029  44.7036552
  14.7893167   5.1805055  43.5017014   7.8346795  65.2737999  65.1001501
   8.4131098  65.9646988  65.4231167   8.4078938  64.5159197  64.9849510
  19.5368028  42.8860807  32.7895546  18.9413095  43.1268454  32.0798707
  20.2850413  42.4839640  32.3483396 112.4612596  55.1841116  66.4499426
 112.6384615  54.5562267  67.1503639 113.2095405  55.7807493  66.4681625
  11.5212190  41.3326740  62.1129560  11.9015813  40.6002474  62.5978374
  12.1802986  41.5519476  61.4543438 110.6630542  41.6319752  39.7043371
 110.5100050  40.6930065  39.5987916 111.2441423  41.8628883  38.9795971
   8.4876329  55.9207821  57.1249294   8.0827647  55.8536291  56.2601709
   7.8149986  56.3241577  57.6736403   3.4862578  11.9691169  11.8456399
   2.6558921  11.7743659  11.4111328   4.0810883  11.2823701  11.5443301
  11.0403156  71.0231924  67.0675421  10.5039620  71.7833281  66.8422699
  11.8414235  71.1351824  66.5557623  92.6498999  55.1129675  61.3340092
  92.7840128  54.6502209  60.5068970  91.6995325  55.1316738  61.4466286
  53.7126256  75.4726987  10.4360408  53.1982375  74.6861665  10.2543658
  54.1030539  75.3104906  11.2948054   5.2506435  32.8408647  29.0758467
   5.8183563  33.2015038  29.7569275   4.7258580  33.5856247  28.7823081
  14.0569830  52.5203276  51.3792086  14.4301629  52.2732449  50.5330896
  14.1668177  51.7422628  51.9258165  90.7495227  70.0639057  36.6963768
  91.3172640  69.6713591  36.0331964  90.9457650  70.9999037  36.6560483
 108.7406941  17.9199076  47.4391556 109.0628471  18.7781143  47.7147150
 109.4708087  17.5341320  46.9550657 107.1882465   0.1417118   7.3070640
 106.3252380  -0.1368326   7.0006961 107.0150425   0.9217983   7.8340358
  13.6154056  36.7629814  61.5826893  14.0746951  35.9288335  61.6800690
  12.7634406  36.6167188  61.9937801  37.8054261  54.9370575  40.9377146
  38.2417774  54.3890381  40.2854061  38.3918834  54.9220657  41.6940689
  29.3806624  59.0211868  72.7822256  28.4635115  58.7475157  72.7692223
  29.8650384  58.2252026  73.0013752  20.1564407  37.6125264  81.5792084
  21.0522532  37.2759318  81.6006088  19.6612382  36.9454789  81.1037540
 102.5892081  55.6826019  83.1190777 103.2123174  56.3800335  82.9152107
 102.9621830  54.9013090  82.7107811  10.1322889  38.3859539  70.7725668
  10.5991936  38.4696102  69.9411631   9.4295561  39.0336514  70.7188463
   4.1624087  58.5250521  40.9191036   3.5373032  59.1711235  40.5903721
   4.3954057  58.0044842  40.1503706 113.3772861  49.6241331  16.3098693
 112.9622491  49.3560314  17.1296835 113.8984262  50.3918028  16.5451002
  99.0786113  36.2428212  69.7882795  98.7809279  35.5724406  70.4032612
  99.9154200  36.5405679  70.1451111 111.5793150  32.2920299  62.9068422
 110.7272162  32.0544004  63.2724810 111.4201625  32.3817444  61.9672394
 108.5763647  32.1676826  76.0610867 108.5481991  32.6744127  75.2495098
 108.0947926  31.3654160  75.8593750  16.4235854  56.0200644  52.3907185
  16.8050158  55.3906584  53.0027580  16.5206671  56.8668127  52.8264141
   6.2387872  73.8448858  59.4899893   6.3336873  72.9142046  59.6926212
   7.1335453  74.1495848  59.3389940  19.8075891  60.3404331  71.5050364
  19.6486795  59.4798040  71.1173534  20.1732159  60.8613777  70.7900763
 100.8828833  21.5979028  84.6257401 100.4456725  22.2317100  84.0570927
 100.7788183  20.7599401  84.1749382 106.7202034  69.1203308  63.5450983
 106.2279679  68.3688354  63.2146549 106.8550559  68.9289618  64.4732285
 100.7747497  66.3557577  58.1787634 101.3691260  65.9528446  58.8117027
 100.7927539  65.7665777  57.4245882 114.4941930  26.9406629  34.0065074
 114.1757763  26.0794902  34.2771125 113.9063387  27.5601053  34.4388843
 100.4774966  53.2211399  52.2399807 101.1526563  52.6112223  51.9426680
  99.8405637  53.2401419  51.5257072 102.2116878  59.7732162  26.1709785
 101.8751278  59.1360378  26.8010283 103.1267800  59.8982573  26.4223790
  22.5458884  49.8547983  67.9859734  21.8481421  50.5051947  67.9061890
  22.5337625  49.6025515  68.9092541  17.9760695  98.4720707  87.5335693
  18.8993609  98.6321735  87.3382950  17.7990961  97.6077652  87.1622276
  15.9313273  79.2929268  79.1646910  16.5640342  79.4320107  78.4600115
  16.4117420  79.5087433  79.9639750   5.6866413  34.9512029  56.2599421
   6.1839026  35.6316495  55.8061218   6.1034656  34.8825312  57.1188784
  43.4588289 109.1895390  42.2673702  42.9237080 109.0747929  41.4820576
  43.1318092 109.9969101  42.6641655  17.0997238  74.0662527  39.8134089
  16.3660932  74.5087862  40.2402353  17.2616327  74.5798588  39.0220642
 107.9812719  46.8314934  76.9399881 108.3862015  47.3286057  76.2292528
 107.0809325  47.1545362  76.9755459  21.1965370  59.4477510  87.7631569
  21.9485736  59.4282436  87.1712971  20.5134773  58.9642429  87.2985268
   2.4213715  43.3015490  67.5629997   3.1582314  42.7843952  67.2376966
   1.7322698  42.6583576  67.7293634  40.5784082  29.2990923  69.1084671
  40.2004385  29.8594451  68.4307003  40.3867245  28.4078074  68.8167477
  22.8163910  32.8744316  63.5951471  23.1855774  32.5136185  62.7890778
  23.5712051  33.2237744  64.0689039  18.6458623  66.1574650  26.1450720
  17.8958821  65.7226419  25.7392502  18.2889247  66.9737911  26.4949846
 113.4139561  71.6851664  69.2015791 114.1671338  71.3165855  69.6632099
 112.7980514  71.9185257  69.8961592  10.1528573  34.0115857  50.4299593
  10.3827929  34.2604542  51.3251829   9.7778857  34.8058081  50.0493860
 111.0126593  51.7101288  80.6404686 110.9033426  51.5026855  79.7124386
 111.2679013  52.6326084  80.6512451 110.4896792  99.9574471  51.1671829
 110.5770882  99.1175652  50.7164192 111.2736048 100.4463482  50.9168530
 112.5842159  87.8414536  48.0292463 112.4396696  88.7254524  48.3667040
 113.4303932  87.5814533  48.3934069 103.7502672  37.7857804  71.5616894
 103.7138321  38.3380890  72.3426247 104.5206120  38.0952334  71.0852003
  17.5300336  38.7191105  66.3575792  17.5557959  39.6204877  66.6786575
  18.2666850  38.6604214  65.7491970   2.7133799  76.3525152  61.9615650
   1.7674169  76.2149668  61.9118929   3.0227801  76.2147331  61.0662889
  20.8154941  55.7007790  61.2602139  20.1194263  56.3273382  61.0623550
  20.3774691  54.8496914  61.2647629  22.8765845  33.8308740  67.1347332
  23.0855131  32.9515433  67.4499416  22.0977545  33.7117028  66.5911770
  99.5403208  54.9047375  37.6135468 100.4069819  54.6793890  37.2753906
  99.0773084  54.0683842  37.6622105   2.7296129   5.8476979  41.0027313
   2.2472566   6.4378268  41.5817928   2.7152696   5.0040251  41.4546633
  14.2671251  93.8367748  56.1059093  14.9858224  94.4533634  55.9661674
  14.3403220  93.2154465  55.3814602  98.8641467 107.1163273  51.4934778
  98.3657481 107.6901627  52.0753193  98.4801581 107.2602749  50.6285715
  10.1221347  57.2664070  69.9967337  10.9907746  56.8788052  70.1038074
  10.0882459  57.9630470  70.6523037 105.5391671  59.3084431  60.5997658
 104.6841528  59.3984604  60.1789570 106.1565401  59.2272043  59.8727989
  95.5069937  82.7742386  29.9120498  95.7428112  81.8505478  29.9981213
  94.7854557  82.8957367  30.5291843  27.7007651  81.7218590  70.4090357
  27.4171042  81.3165092  69.5896053  28.0583239  80.9979248  70.9231472
  33.0879545  10.0517297  69.3090773  32.1542811  10.1613796  69.1289043
  33.2310677   9.1063362  69.2645597  92.5464620  66.7884731  78.6329222
  91.6717710  66.5446901  78.9357710  92.6230993  67.7185249  78.8459158
 109.8799326  53.4721851  42.7276564 110.2573462  52.5948143  42.7909803
 110.4205056  54.0079212  43.3081722  10.3918469  66.3801527  46.9463968
   9.7509867  67.0430660  47.2034550  10.6819487  66.6523647  46.0757828
  97.8670575  68.1011772  47.3561287  98.0459644  68.6413240  46.5864086
  98.3000269  68.5595798  48.0762959  14.2943621  40.3976202  37.0545816
  14.5083499  40.0398588  36.1929297  14.4414413  41.3393116  36.9661832
  15.4468858  52.7313137  70.6719828  15.6237495  53.6718893  70.6884003
  16.1954129  52.3389721  71.1214399  25.1717305  88.4972191  76.9982052
  25.3105617  88.1699371  76.1094713  24.2226243  88.4675789  77.1188211
 107.4100622  61.1789513  61.7042637 106.8494185  60.6359386  61.1501455
 108.0632009  61.5390491  61.1042881   3.4995714  49.1402721  67.5581646
   2.6953912  48.7553167  67.2098351   4.0331167  48.3883810  67.8155041
 115.9560735  92.8118515  59.0908051 116.6330298  93.3862591  59.4485998
 115.5068972  92.4626255  59.8605537  14.1553724  56.4213085  67.8134871
  13.5231316  56.3750839  67.0962906  13.7156916  55.9935999  68.5483170
 115.6324320  64.6113777  42.3483610 116.4952803  64.9639845  42.5660610
 115.4541407  63.9717960  43.0378342 112.8592311  46.2924957  69.9005461
 112.9685559  47.2434282  69.8978233 113.0754157  46.0239935  69.0075731
  67.3953439  15.3501124  94.9123597  67.0083977  15.6954904  94.1078612
  67.7124972  16.1244245  95.3772098  13.0508077  57.5068617  84.7245216
  13.0105293  56.7453671  84.1459560  12.1369433  57.7650928  84.8445225
   4.0019199  89.6793652  43.9905357   4.6782199  89.9906731  44.5921516
   3.2376730  89.5283413  44.5467281  33.2270647 105.7662921   6.1340541
  32.4899156 106.3689284   6.2324256  32.8896571 105.0638776   5.5781764
  15.3390872  64.2913818  33.8566327  16.2441504  63.9826918  33.8141942
  15.1379848  64.3158340  34.7921515 101.4447548 101.8497944  58.3487701
 102.3796417 101.6443253  58.3474445 101.0335734 101.0974312  57.9231882
  18.3322406  77.2449780  79.1505098  18.4776068  76.8399620  78.2954884
  18.5579705  78.1660795  79.0207052   7.2849286  67.0142412  71.9260359
   6.4143318  67.0103312  72.3238754   7.1178323  66.9890451  70.9838676
 100.4460790  68.9616823  53.5335350  99.4891741  68.9710712  53.5553789
 100.7013335  68.5919285  54.3787289  21.4715242  57.5062656  57.3508215
  21.2366033  58.4067678  57.1268988  20.7573414  56.9770527  56.9957066
   1.3183153  33.7553024  67.9748297   1.1736783  34.4798088  68.5834360
   1.1116122  32.9708290  68.4828758  15.4715753  28.7683678  51.7149401
  15.0570142  29.2191720  52.4505663  14.7633493  28.2661271  51.3119459
  35.6472254  41.6650581  79.1368532  35.9162641  40.9018660  79.6481133
  36.0551810  41.5357018  78.2806540  17.4294424  44.1406965  80.7707787
  16.7257464  44.6633768  80.3862667  17.5560141  43.4192038  80.1546097
  19.2434406  69.2252398  61.3994884  20.1153779  69.4652176  61.7131233
  19.4070923  68.6913061  60.6220770  19.0355575  54.7318792  51.8884611
  18.8742113  53.8478804  51.5586948  18.4080362  54.8391056  52.6032686
  27.9165554  66.4173222  75.6794596  28.2777858  67.2180462  76.0597038
  27.2346568  66.7227459  75.0811625 112.0423563  62.4112940  55.1634359
 111.1608996  62.7796602  55.1036692 111.9781308  61.7464924  55.8491087
  40.7754946  30.9220409  57.6608515  41.6060019  30.9504867  57.1857929
  40.5753183  31.8390918  57.8484058   4.1635838  42.7566433  48.9568090
   3.2166639  42.8267574  48.8357353   4.4937748  42.4736881  48.1040812
  14.6642268  44.3496561  69.6483040  14.2440546  45.0456142  69.1430044
  13.9376259  43.8727474  70.0493574  10.2990294  50.6412268  71.2451696
   9.7015440  50.6970310  71.9909096  11.0534716  51.1711359  71.5025473
 109.9061187  96.5936279  26.7876291 109.5063933  95.7816601  27.0993328
 109.7205480  97.2317886  27.4765062  35.4303288  99.2416382  61.2322187
  34.5025420  99.1297054  61.0250616  35.8021474  98.3636284  61.1481047
   2.1527614  31.9231057  33.9789176   1.7182492  32.5148773  33.3647203
   1.4646764  31.6685534  34.5937133  18.7710404  63.8822222  44.4962311
  18.4674370  64.7896194  44.5225000  18.0310345  63.3923531  44.1375542
  21.5516281  53.7922287  28.0975294  21.3459039  53.3957195  27.2509527
  20.7013440  53.9036655  28.5227704 112.2224145  39.7711205  83.3215332
 111.8534060  40.6508350  83.4000587 111.6950675  39.2363429  83.9149570
   1.3960841  63.3493948  58.1205082   1.7846029  64.0565777  57.6055527
   1.5828022  62.5565386  57.6177645  24.9796343  51.7196369  37.8242731
  24.4009399  51.1133051  38.2865572  24.4296765  52.4806070  37.6379895
  27.9843974  50.9094906  76.5254927  27.0272493  50.9186316  76.5216780
  28.2323194  51.8290329  76.6214514  45.4638767  66.8025303  74.3892193
  45.8389711  66.8043470  75.2698612  45.9069204  67.5215435  73.9386940
 102.6495602  60.8737326  54.6024990 103.2234754  60.1508427  54.8560333
 101.8272926  60.6985664  55.0601292  13.1875634  62.3072004  59.0968657
  12.9983294  61.6856337  59.7997713  12.8249454  61.8979645  58.3112049
  12.3870933  85.6190395  50.7086468  12.8307188  85.5006409  51.5485334
  11.5379083  85.1926804  50.8241129  20.0933075 101.6511345  31.7430568
  19.2870283 101.6776180  32.2582698  20.3274345 102.5706863  31.6171956
  29.8640513  49.8990440  74.4380045  29.2198157  50.1329470  75.1061964
  29.8130035  48.9449883  74.3796587  29.0605783  65.1535225  19.0046000
  29.8921561  64.9620247  18.5709643  29.1727495  66.0356522  19.3588495
  23.2184339  67.4325085  81.1580086  24.1377401  67.2131634  81.3096523
  22.7302313  66.7529011  81.6228008  22.6109409  47.5218153  54.2916489
  21.9557595  47.3153830  54.9582481  22.2437787  48.2681799  53.8179827
  15.4071772  29.0668893  61.7106199  15.3761423  29.1380191  60.7565737
  16.1375284  28.4726238  61.8828630  89.1520347  59.2763042  40.7929897
  88.6350383  59.0080500  40.0333977  90.0595727  59.2360115  40.4913521
  17.0029557  42.8961658  69.3011093  16.0652637  43.0236959  69.1572285
  17.2437441  42.1910238  68.7002516  12.1703899  74.6707249  48.2566500
  12.0915556  74.3608761  49.1588736  11.3329875  74.4447613  47.8517675
 105.2507605  55.5967045  51.9852924 105.9356000  55.0455332  52.3640203
 104.4480898  55.0852346  52.0870304  14.6779501  91.3584518  89.8157787
  14.1179633  92.0117569  89.3964481  14.6421993  90.6015205  89.2309570
  30.9414363  42.9179430  33.7115264  31.5091324  42.6020670  34.4145012
  30.4598451  43.6472130  34.1020036   8.1310248  50.1511908  59.9844694
   7.2699386  49.8254108  60.2464390   8.3422053  50.8203030  60.6355667
  99.6081664  51.3805056  23.4790516 100.5540528  51.2989521  23.6010385
  99.3424561  52.0510817  24.1083050  14.7492647  67.5387287  34.1405225
  14.8682559  67.5954151  35.0886035  14.5735371  66.6122675  33.9761543
  90.0176921  22.3208284  29.0255165  89.4310369  22.9442382  28.5972285
  90.1363268  21.6224504  28.3817577  -0.2585872  51.0138464  50.6199884
   0.5633569  50.5234528  50.6076050   0.0043837  51.9177341  50.7933807
  30.7998419  41.3900185  68.0182743  30.4105759  41.9253111  68.7097692
  30.6648421  40.4880667  68.3089447  34.6774387  48.2558060  85.7490158
  35.3302574  47.6047611  85.4917240  35.1916957  49.0139723  86.0264397
  21.0720587  80.2968121  35.8924532  20.9227300  80.0519466  34.9792337
  21.3113761  79.4767523  36.3242555  34.2304277  32.2158670  79.3936491
  35.0360370  32.3022294  78.8839722  33.5504365  32.5872469  78.8315773
   3.9442191  89.5003891  68.3382607   4.1327298  88.9410114  69.0917826
   4.4097733  90.3160763  68.5230637 107.1529593  62.3322439  55.6147814
 107.1042081  61.5864897  55.0166988 106.3141360  62.7806473  55.5073643
  18.6058807  91.7530346  54.4301796  18.1554711  92.5888729  54.3088055
  19.4695723  91.9929218  54.7659254 116.7165941  44.4119835  55.3017712
 116.3997652  44.3374586  56.2019348 116.1605802  43.8143158  54.8019028
  87.1774592  53.5380650  51.8404770  86.8695035  54.0433455  52.5928593
  86.8219461  53.9990568  51.0806561   4.1208479  50.6626844  87.4553394
   4.8063922  50.2620459  87.9898930   4.3075153  51.6008615  87.4902058
 112.7618374  53.9874983  58.9180565 112.4846067  53.1388998  58.5727215
 112.1891629  54.1387558  59.6699858   3.9725804  46.5591908  50.5730200
   3.5484135  47.3062897  50.1509237   3.3438283  45.8433485  50.4809856
  36.8616390  27.4909854  57.5010967  37.6846957  27.9796457  57.4964809
  36.3279200  27.9144192  56.8287277 109.9732872  52.4694204  23.3299565
 110.4869189  51.8182945  23.8079166 110.5764355  53.2010221  23.1987906
  92.7863588  86.3069153  70.0327873  93.4126606  86.3576126  69.3106985
  92.6421680  85.3691483  70.1593828  98.4960642  40.3226614  40.3607941
  98.0620255  40.2674913  39.5094442  99.3281617  39.8664522  40.2354288
   4.6789014  70.5112934  21.8449640   3.8067669  70.2687359  21.5338707
   5.2443713  70.4042625  21.0800982 107.3262878 104.9805641  84.1681767
 106.4964738 104.8061943  84.6122837 107.9957612 104.7124577  84.7975826
 104.4997909  61.4943504  38.5850358 104.0051355  62.2286224  38.2211828
 103.9120640  60.7437134  38.4993076  26.3319111  56.1034012  52.3889112
  26.1983371  55.6444836  53.2182407  26.9317698  56.8175602  52.6042700
  34.2047620  32.0589900  58.8851786  33.9191413  31.3223290  59.4255352
  34.6248102  31.6516709  58.1276321   9.0158027  62.8667927  65.9438467
   9.8833954  63.1739712  66.2068176   8.5598278  62.7017879  66.7691326
   1.6542315  68.2908249  63.6560822   1.4823480  69.2096138  63.4498930
   0.7973795  67.9332304  63.8888168  19.1068757  41.3666773  61.5042734
  19.9055362  41.6445160  61.9528055  18.7407053  40.6848335  62.0675135
  15.2067459  94.7414684  50.7009888  14.3825364  94.2602921  50.7743788
  15.3193486  94.8816490  49.7608328  13.7083757  59.7010326  60.3991365
  13.2914615  58.8613749  60.2057886  14.5461512  59.4662142  60.7981634
  13.5008383  52.3001766  61.1503601  13.3590055  52.3852253  60.2075577
  12.6869929  52.6143408  61.5443039  93.5158410  35.6879616  31.9727778
  93.4086671  36.4664340  31.4262176  94.4547739  35.6507540  32.1551323
   6.7927331  34.6221399  40.2257252   7.1123159  33.7230277  40.1502371
   7.1449965  34.9322939  41.0599613  14.8597324  69.1718578  49.0301800
  15.2588630  69.9921942  48.7403965  15.1998556  68.5130405  48.4247828
  98.3197417  57.3799562  31.1551476  98.3577277  56.6321659  30.5588269
  97.8915276  57.0387030  31.9402647   3.3120874  58.6374760  70.3312778
   2.8504127  58.2473612  69.5890474   3.5282454  57.8952980  70.8957911
  13.0076814  44.8891973  45.2809811  13.7393200  45.3471375  44.8671865
  12.6883328  44.2895174  44.6067238  11.0746300  92.1907234   3.4706217
  10.3527808  91.5630531   3.5053170  10.6644690  93.0128479   3.2020855
 108.0676760  55.7395983  49.9877453 107.5553896  56.2173891  49.3354368
 107.4700936  55.6285954  50.7272053   6.4506763  71.5659237  56.9534874
   6.3033068  71.4102888  57.8863811   6.9250625  70.7906199  56.6533327
  23.7044382  57.0322657  64.3645525  24.3149853  56.4328241  64.7936583
  22.8978300  56.5256071  64.2701626 104.3234589  39.1414356  40.6971312
 103.8711419  38.8898420  41.5023279 104.4799819  38.3141303  40.2418327
  13.9095247  75.5574703  30.5274320  13.1257951  75.8630657  30.0706911
  14.1967642  76.3121414  31.0414362  12.1682394  33.6973834  66.3691616
  12.4692905  33.0899119  65.6934547  11.7526436  34.4095564  65.8830357
  11.6669774  52.1677208  31.4868712  11.2410748  51.7043591  30.7656693
  11.0621154  52.8762674  31.7067242  10.0577617  46.4770699  32.8519630
  10.0440335  46.4577007  31.8950582  10.7197750  47.1335506  33.0687618
  49.6216811  74.5824163  16.6287917  48.6951239  74.7169666  16.8278426
  50.0842358  74.9489860  17.3823852 112.6346051  56.0937548  55.8205032
 112.5093128  55.5922318  55.0148916 111.7573996  56.1656141  56.1967707
  24.1521072  36.6057587  59.4873190  24.2257476  35.8600235  60.0828791
  24.9053955  36.5208268  58.9028740  20.9375906  48.7856102  60.8285189
  20.8701968  47.8977346  60.4772854  20.2893448  48.8146591  61.5322018
 110.8027734  83.4012699  47.0614815 111.2168243  83.1178951  47.8766489
 110.9803857  84.3407726  47.0166159 104.8043849  10.3518491   4.9596709
 103.9271190  10.3955131   4.5792312 104.9807622   9.4152027   5.0480765
  28.5589027  49.7189379  54.4828367  28.3590031  49.3062544  53.6426210
  27.7733278  49.5787287  55.0114632   7.9850769  27.9742408  47.1006489
   7.7827179  27.5698471  47.9443026   8.9056677  27.7613187  46.9476509
  13.6672628  48.9124441  54.9589348  13.9473546  49.8078251  55.1488733
  14.1010022  48.6957884  54.1336107  93.5761299  16.0299981  43.0309629
  93.3142390  16.9470847  43.1121874  94.4757261  16.0657001  42.7058744
  37.1057391  53.0186224  93.3660793  37.2518468  53.9538479  93.5083389
  36.2093997  52.9639196  93.0346966  17.4213684  50.8765411  45.7421207
  16.8305182  50.8023071  44.9927092  16.8952048  50.5954981  46.4907217
  36.5902138  50.0606346  76.9791365  36.2395835  50.9509659  76.9545984
  35.8165836  49.4976807  76.9507027  47.8920031  88.0556297  21.4775109
  48.1249571  88.5337257  20.6816530  47.2804022  87.3814106  21.1815333
  25.9591794  83.2116795  29.1007781  26.5882325  83.7213135  28.5900903
  26.1236453  82.3037243  28.8462186   3.5957786  34.5679832  47.2373676
   2.6836929  34.8576021  47.2161007   3.8893369  34.6341610  46.3287020
   1.7671962  70.1710939  51.6326380   1.4542872  70.1052809  52.5348473
   2.3205186  69.3990707  51.5141153  25.6214046  67.0355797  44.7825527
  25.3523684  67.9319429  44.5815945  26.3984442  67.1363020  45.3323698
  28.8977790  56.9039536  80.6503296  28.1312799  56.3880253  80.4002666
  29.0256476  57.5114679  79.9217606   2.2688580  59.5609808  81.0684109
   2.0247184  59.9034548  80.2085590   2.3072632  60.3337717  81.6319275
  19.0044844  81.5249062  37.1728849  19.7521508  81.0880852  36.7649436
  19.2675805  82.4432278  37.2337532  26.7970419  55.3099632  79.7409868
  25.9366107  54.9784565  79.4840956  27.0006442  54.8444605  80.5522060
 104.4054284  57.4910927  70.7830000 104.3789711  56.9907665  69.9674034
 104.8901548  58.2859993  70.5607414  16.8934143  76.2478495  52.6366186
  17.4592578  76.2254143  53.4083366  16.0127068  76.3759089  52.9890203
 112.5398262  74.9385023  51.1486769 112.9644858  74.9571037  50.2910328
 112.0123448  74.1398335  51.1374855  40.1464701  34.5678663  61.8913221
  39.5664430  35.0313473  61.2871790  39.5588064  34.1926003  62.5471115
  16.0258341  67.1145296  39.6612549  16.8596494  66.9427443  40.0988340
  16.2261212  67.0438290  38.7279177 116.0394123  40.9472322  52.6623964
 115.9441769  40.4138660  51.8732929 116.9840342  41.0708141  52.7553940
   5.4981214  30.9492731  61.4427328   5.3501898  31.8887067  61.5514231
   5.3997123  30.7985044  60.5026150 101.1962487  37.7663994  38.3072734
 100.2513744  37.7145743  38.1631923 101.3741424  38.7028217  38.3950233
  10.9790611  31.9468808  36.3437581  11.9126070  31.7788935  36.2152958
  10.6857586  31.2410498  36.9199586   8.6224198  45.4192543  48.4877396
   7.7625382  45.0088072  48.5792208   9.1867542  44.7213793  48.1549835
  19.3027508  48.7780619  75.6976175  18.4786224  48.5735846  76.1394739
  19.5013595  49.6755838  75.9645367  24.5991397  50.8371973  70.9132433
  23.8092303  50.3925037  70.6057978  25.2583361  50.1451826  70.9662342
  49.6116781  84.4539165  68.7440157  49.8650694  84.9426937  69.5270395
  50.2774620  83.7711048  68.6619949  75.7932390  87.1507101   7.2326011
  76.0321749  86.4547114   6.6204566  74.8956145  87.3819737   6.9938201
   8.6276364  70.0141191   7.8878194   8.3460534  69.3659496   8.5334325
   7.8193915  70.2856302   7.4527866  31.1466837  59.4124508  64.9805117
  30.9166622  59.1691923  65.8772516  32.0966911  59.3029881  64.9388456
  19.1068041  27.5878310  46.7466259  18.6629355  27.6130366  47.5943184
  19.5345879  28.4411025  46.6747999  18.3745849  95.1342487  65.2991581
  19.0582180  94.7939968  65.8763123  17.6937675  94.4615173  65.3117609
  34.3812728  48.6137295  77.1342182  33.5174680  48.3023167  76.8638563
  34.7004271  47.9417276  77.7365398 103.9576604  60.0221300  75.9641743
 103.6945047  59.8165989  75.0671053 104.1683259  60.9556437  75.9440613
   2.1644452  43.0799150  42.7836990   2.2380967  42.1810246  42.4630785
   1.6941908  43.5435820  42.0908022  98.2238843  42.7951145  67.2208786
  98.3972540  43.1021261  68.1107759  97.2948196  42.9782152  67.0810843
  12.5613010  64.2145586  44.9176788  11.7074549  64.1014433  45.3352690
  12.4742627  63.7752438  44.0717125  82.3012560  42.8504949   7.8568000
  83.0860563  42.8510004   7.3087806  81.7866474  43.5923391   7.5388736
 115.2181145  79.0781498  15.8842385 115.1579238  78.5016346  15.1225054
 115.6773498  78.5573435  16.5430963  22.2600555  61.6159487  29.2016268
  22.9396987  62.2632027  29.3897319  21.9310379  61.3570595  30.0624156
  12.5027966  22.1885991  68.3504581  11.9133341  22.8400421  68.7304449
  12.7770603  21.6513324  69.0936661   5.0343370  17.2669029  29.4223356
   5.0062919  16.3313484  29.6227908   4.3901539  17.6577544  30.0126696
  99.2539849  39.3125892  32.0141912  98.6154606  39.9154258  32.3951221
  99.7630384  39.8531723  31.4101481  36.6505671  56.9163513  75.1038074
  36.7778254  56.6481352  76.0138083  35.7167006  56.7815113  74.9427271
  14.0254879  64.6649694  75.6392622  13.2812250  64.7278452  75.0406361
  13.7406385  65.1309872  76.4253378  27.9293180  39.5594740  72.1749926
  28.0035543  38.8313317  71.5581226  28.6602616  39.4358516  72.7805281
  12.9294777  70.5242300  64.8823929  13.8735247  70.3919744  64.7956944
  12.7551663  71.3310909  64.3978071   0.2453725  29.1656566  76.6978979
   0.1369292  30.1071858  76.8320513   1.1173532  28.9734507  77.0427704
  53.0398512  30.9196210  54.3206549  52.7907610  31.7437124  54.7390556
  53.0675316  30.2858591  55.0374603 101.0360076  57.3961401  56.0160112
 101.2966468  57.4215984  55.0953293 100.7364740  56.4977598  56.1553907
  18.5605609  51.3777065  84.3887997  18.4876645  51.9654369  85.1407814
  18.2790303  51.9072390  83.6427593  23.4734941  62.7454996  74.6842241
  23.5825443  63.6917114  74.5892191  22.5978565  62.6415157  75.0566196
  14.1328037  35.8112144  64.4414377  13.6732006  34.9968624  64.6459579
  13.8854182  36.4094400  65.1465321  19.2961633  77.9458904  43.8669682
  18.5745227  78.5684633  43.9556789  19.8225451  78.0753756  44.6558809
   3.5425189  52.5428629  31.1035228   3.1116894  53.0901337  31.7601132
   4.2839682  53.0683231  30.8028936  13.4861696  85.7222080  32.3147869
  13.4658229  85.1419544  33.0757904  14.3458176  86.1411858  32.3559690
  14.6660459  64.8225212  47.2006226  14.8028278  65.7526875  47.0208597
  14.2946029  64.4740486  46.3901711  12.1727395  97.2436142  78.9532185
  12.0317543  97.2991467  79.8983479  12.2714937  98.1532097  78.6719322
  15.7422495  50.5893612  42.9667521  16.0070646  51.3707352  43.4520960
  15.0638640  50.1883698  43.5100985  21.0651684  96.4410591  40.4516602
  21.3196731  95.7823563  41.0978556  21.7859316  96.4497375  39.8218513
  40.3778219  92.8293800  65.2473164  40.0530529  93.6731148  65.5617428
  40.5170441  92.9607487  64.3094492 111.8879696  65.6992579  27.6800418
 112.6774516  65.4223061  27.2150183 111.3926103  64.8911285  27.8133607
   0.7322318  34.5692182  72.5839472   1.3651566  33.8830996  72.3721027
   1.0861191  34.9874687  73.3688402  20.2385306  62.2627640  51.9829559
  19.3491197  61.9959784  51.7505598  20.7490945  61.4540434  51.9438601
 106.3199808 106.7879486  68.9564514 106.3994195 107.6427460  69.3798256
 105.4197170 106.7640400  68.6321259   2.5346911  43.9189529  33.4721947
   1.8479380  44.5471525  33.2486606   3.2645643  44.4594622  33.7744594
  17.0326638  48.0074644  77.6754236  16.4013112  48.0859375  78.3905935
  17.0086479  47.0811844  77.4352932  45.1337154   2.2928382  34.2579007
  45.7188834   1.7256976  34.7600555  45.6526728   3.0779792  34.0833545
   8.3670586  74.2270041  61.6449976   9.0508497  73.7058020  61.2242746
   7.6782393  74.2967367  60.9840155  29.5639753  89.6722317  46.0853148
  30.3057671  89.2513466  45.6507683  29.8986602  89.9156857  46.9484186
  24.5448303  61.4389420  35.5597448  23.6656904  61.8158531  35.5239177
  24.4332790  60.6156731  36.0351586 115.6155348  41.2661123  82.6988506
 116.5159904  41.0361767  82.9280663 115.6948433  42.0834398  82.2070026
  14.2610431 108.5455704  63.0774117  13.8153040 108.5657024  63.9242554
  13.6716211 109.0127563  62.4853420 100.9281077  70.1766729  61.1309767
 100.7306983  70.9854889  61.6032887 100.0733902  69.7736073  60.9785748
   1.8607432  35.9746861  44.4045591   2.5754771  35.5557537  43.9250994
   1.3465713  36.4174247  43.7293959  32.1395397  53.8139963  69.0717793
  32.5085616  54.1038847  68.2375002  31.9799066  52.8779936  68.9507341
  34.8600078  54.0570259  59.0508223  34.5808029  54.3848705  58.1959534
  34.6503139  54.7656155  59.6592331  53.6530972  86.0858154  50.0886106
  52.9672861  86.3001251  50.7210398  54.4711637  86.2344456  50.5628586
  54.4302082  73.6515665  61.3661098  54.7160959  73.4356165  62.2537279
  53.8143349  74.3750668  61.4822054  55.9546661  73.3539486  63.7954378
  56.1958647  74.2802334  63.8029194  56.6485548  72.9298353  63.2905865
  19.3483281  91.7375088  36.0421348  19.1604626  92.0492935  36.9274211
  18.5409188  91.9003487  35.5544806  19.0512204  88.6483574  48.4175634
  18.7685418  87.8041840  48.7692738  18.3164084  89.2373657  48.5888720
  11.3769352  60.2929497  57.9465675  11.6019881  60.3843164  57.0206976
  10.7170498  59.5998192  57.9653883 101.8182840  99.7634029  46.7965174
 101.9496932  99.8051357  47.7437353 101.3551786 100.5734539  46.5830374
  31.0421252  89.1328144  62.1841669  30.7874966  88.2101440  62.1756744
  31.6648889  89.2160702  61.4620399   8.0551976  90.7636929  73.9700508
   8.0461359  89.8214245  73.8019180   8.7341750  90.8819485  74.6343088
   5.3745216  72.0327711  66.7203712   6.0752654  72.4212408  67.2440863
   5.5888253  71.1004496  66.6874218  31.5239239  43.4199953  80.2393341
  32.3574448  43.4595060  79.7703838  31.3703561  42.4852037  80.3765011
  48.2696819  67.2349644  57.5940800  48.1787539  66.3470364  57.9398441
  49.1244507  67.2378683  57.1632719  16.6423011  32.0205927  38.9002490
  16.0241127  31.7041421  39.5589876  16.0940278  32.2621512  38.1537390
  34.1963005  68.0666828  63.8670588  34.3197417  67.1222925  63.9625645
  33.3588648  68.2433319  64.2956924  77.3820723  96.5281682   6.4347667
  76.9165457  97.0831733   7.0604533  78.2030762  96.9913058   6.2683791
  20.8041096 105.5514717  90.5379486  21.7378974 105.5380630  90.7479286
  20.3762865 105.7797527  91.3632298   5.8359480  54.8149443  71.5297413
   6.0134095  53.8955975  71.3308907   6.6381061  55.2733088  71.2793922
   9.0958166  81.5334988  45.4754925   8.7149870  81.0440540  46.2046337
   8.4102917  82.1492290  45.2163363  18.9030063  99.7749996  50.0148058
  19.3357861 100.6286144  49.9986267  19.1832519  99.3799877  50.8404350
  52.3886156 103.1631565  28.5651588  51.4562559 103.3022785  28.7312222
  52.8233004 103.4864044  29.3543315  36.4737725  77.3985100  64.8432350
  35.5666256  77.1252346  64.7067070  36.7176294  77.0085621  65.6827021
 114.3644150  81.4780617  58.0549192 115.1651086  81.3335323  57.5507069
 114.5028277  82.3204136  58.4879494   7.6552099 102.1232510  35.1892161
   7.8077376 102.2568893  36.1246872   7.4348414 101.1949158  35.1126862
  23.8367605  60.0043964  49.2963552  24.7490954  60.2749109  49.1929150
  23.3325243  60.6899071  48.8581181   1.3975999  66.5950823  40.0408077
   1.5523393  67.1533632  40.8027840   1.5438354  65.7053566  40.3621101
   3.1222105  76.8795729  51.8859529   3.8395438  76.4592934  51.4115810
   2.6002455  77.3032570  51.2045765 111.4310171  86.0037708  46.5305519
 110.6525828  86.3889885  46.1282063 111.7064827  86.6472435  47.1834707
  94.4085624  31.8227678  11.2241000  94.4109144  31.4234644  12.0940322
  93.4867575  31.8298631  10.9663123   6.4982033  95.2511978  65.1998043
   5.5999357  95.5812454  65.1795149   6.8979383  95.6906223  65.9503651
  63.5071505   0.3373290  40.3987312  63.4006704   1.2707091  40.2151775
  64.4534744   0.2143527  40.4734325  17.6069736  65.2246571  86.8662262
  17.2947419  64.6693516  86.1518192  18.1670654  64.6505165  87.3886204
  22.9514980  53.5298777  70.7286215  22.6701260  54.3232727  71.1842346
  22.9588318  52.8541946  71.4065838   0.1498220  66.1954975  73.0745506
  -0.5880021  65.9834576  73.6462879   0.7498188  66.6912794  73.6317158
  25.0513411  74.7941017  81.7227459  24.9632120  74.2734432  80.9243870
  24.1546035  75.0432158  81.9464397  17.1853769  90.6675816  48.7841702
  16.6698480  91.0292053  48.0632782  16.5354705  90.4123974  49.4389486
  17.9106569  61.3458443  38.7551451  18.5054767  60.8276939  39.2973113
  17.1761847  61.5506315  39.3338037  49.1832638  92.7718449  37.4775100
  49.7996044  92.0685577  37.2731805  49.7338772  93.5456562  37.5970054
 110.8608069  73.6581564  58.3886147 110.5287166  72.7976418  58.1327724
 111.7633088  73.4948349  58.6625671 115.8459287  59.8786926  57.5279474
 115.3653120  60.3267050  58.2240295 115.4000882  60.1403475  56.7223454
  95.6064667  72.0884705  63.2571077  95.0306143  72.1244049  64.0208721
  95.0218477  72.2167492  62.5101137  85.7849039  16.3053466  21.5285897
  86.3348116  16.6663695  22.2239256  86.3783659  15.7591391  21.0131335
 109.3874528  67.7058649  68.9683199 109.2715522  67.2841597  69.8197651
 110.1514324  67.2721529  68.5882425 105.1896252  92.2748756  65.5890274
 105.0478246  92.3960781  64.6501827 105.9981467  92.7531338  65.7728481
  52.0396805  64.7505999  55.5858850  52.4496698  65.5514240  55.2590609
  52.5595808  64.0427828  55.2051878  49.0222120  80.8587170  74.8284340
  48.9328527  81.8086052  74.7512722  48.1276894  80.5437565  74.9582720
  34.2060614  96.1914539  47.7833176  34.6263528  95.8003521  47.0173979
  34.8952794  96.7131519  48.1944561  19.1478193  64.2617798  40.6855679
  18.4368861  64.7135639  41.1402035  19.2927408  63.4665155  41.1981964
  18.2402301  49.4658566  58.7712431  17.8906238  49.0372086  59.5524406
  17.9174185  48.9358330  58.0424786  44.3635321  45.8065653  57.9601574
  45.1925802  45.4424000  58.2704592  43.7176752  45.1253653  58.1474304
  17.3527324  87.9027462  65.9170675  17.4935102  87.9948997  66.8593645
  16.5561521  88.4043884  65.7437181  27.3897481  54.0883684  37.2647977
  27.1778011  54.0374136  38.1968451  28.1692410  53.5416555  37.1661901
  72.0860232   9.4820834  50.0393248  71.7721261   9.9421263  50.8178282
  72.7057422   8.8353682  50.3768730 110.4681625  30.2886248  57.6369095
 109.8712077  30.9369397  58.0104923 111.3419451  30.6316686  57.8241444
 109.1719975  59.7309828  40.5433035 109.0362509  59.0460014  39.8886299
 109.7543915  60.3588867  40.1157665  14.9705207  76.5922594  50.8157206
  15.3658080  76.8611813  49.9864721  15.7155478  76.3934374  51.3828516
  36.2151384  66.5817404  75.5963135  36.0259271  65.7943439  75.0859833
  35.8673978  67.2994995  75.0670385 100.7258358  53.5979366  80.3126144
 101.4948275  54.1647816  80.3723717 101.0851445  52.7179337  80.1998234
  22.0910525  58.2060528  38.1612825  21.2828040  58.3849573  37.6806974
  21.9409895  58.5795498  39.0297389 116.1306670  19.1716343   7.5221080
 116.8850949  18.6686617   7.8288478 115.3717878  18.6892563   7.8502006
 108.5181417  60.5727243  26.6687155 109.0908398  59.8171663  26.5369010
 108.5312303  61.0325241  25.8292842  61.8539381  96.8650341  64.7785282
  62.0122766  96.9962597  65.7133770  62.3952055  97.5271988  64.3486595
   8.6766708  51.7678261  61.9516897   8.3273494  52.0549583  62.7953529
   9.5889479  51.5427780  62.1342707  21.2466335  46.9587088  63.6327934
  20.8028913  46.1699820  63.9446115  21.2912917  46.8487501  62.6829767
   9.5189577 106.5213394  45.6330776   8.6589706 106.1606598  45.4172993
  10.1282966 105.8012009  45.4707861  39.7877264  55.9349108  88.7875462
  39.9837685  56.0535812  87.8581810  39.9244165  56.8000984  89.1735458
   3.5379484  41.7535877  76.2455082   3.3493149  41.0552025  75.6186867
   4.4143429  42.0573425  76.0090876  13.8766682  99.1840458  48.4252834
  14.1609788  98.6406422  49.1602087  14.6645379  99.6578979  48.1589031
   0.3586435 108.9507294  46.7812634   0.1121025 108.5055542  45.9705400
   0.9900971 108.3623219  47.1951199   8.6941105  79.8586416  47.6127005
   8.3900225  80.4407978  48.3090162   8.3885759  78.9905167  47.8758240
   2.1927387  41.5201569  34.0490317   2.3450099  41.0290718  33.2416391
   2.1729767  42.4362040  33.7720847 108.0518355  52.6048088  82.5286674
 108.8382097  52.9319143  82.0918083 107.5493928  52.1818352  81.8323421
   2.6389206  25.8828264   1.7599982   2.5782192  26.7295652   2.2022456
   2.0725143  25.9717947   0.9935111  40.4729605 106.6210842  44.9937725
  39.5191956 106.6846752  44.9436235  40.6420422 106.2266350  45.8493805
  35.7220721  61.1520052  63.1450367  35.3841829  61.4504910  62.3006582
  35.9293127  61.9577217  63.6184359 107.5021847  73.7889385  39.6724868
 107.3938932  72.9638386  39.1995001 106.9748207  73.6821938  40.4641438
  18.3373189  77.5350285  49.1097641  18.5224140  78.4607935  49.2676592
  18.1321526  77.4876642  48.1760120  25.6975484  92.3914433  46.9266844
  25.4427075  91.4742184  47.0266628  26.2722754  92.3982716  46.1612606
   5.0659996  63.4665251  74.7322178   4.9225667  63.9521980  73.9199495
   5.9219915  63.0540228  74.6166706   0.1745951  30.7868868   4.0949172
   1.1014831  30.6018644   4.2461699  -0.1016462  31.2758070   4.8700732
  46.8147469  65.2233982  68.1532907  46.4125776  64.5914412  67.5573730
  47.4914789  64.7242737  68.6106110  91.6488208  58.1633329  52.0006180
  91.9687500  59.0492439  51.8302107  90.7282533  58.2819843  52.2345209
  12.0676196  89.0340042  45.4265118  11.4445913  89.7227001  45.1946306
  12.8291488  89.5042801  45.7658386  24.9039960  87.0459080  54.1296482
  24.8829842  86.6615772  53.2532454  25.0074339  87.9851627  53.9768696
   4.5793378  27.7453089  39.2902923   4.9235287  28.0524945  38.4516025
   5.2961344  27.2388601  39.6723199  19.3846822  67.5304651  64.5060492
  19.1587687  67.9361296  63.6690140  19.0065873  66.6524982  64.4564915
  36.3030336   8.6915923  64.4541073  36.5614687   7.7700473  64.4397306
  37.1071027   9.1624499  64.6731997   2.4153760  44.3095446  75.1016712
   3.3379114  44.3678045  75.3501987   2.3146959  43.4205818  74.7613144
  63.7108411 103.1789260   0.3520793  64.5927943 103.5277896   0.4812545
  63.2983984 103.2455735   1.2132853   0.4876534  45.6173086  64.5685911
   0.1358430  45.9352255  63.7370920  -0.1867864  45.0265455  64.9037981
 112.2716557  87.7264881  71.0172939 112.9918595  87.3497963  70.5116796
 111.7550304  86.9710255  71.2976646  47.2234488  69.9899578  81.0870552
  47.7144241  69.4930792  81.7414951  47.8297186  70.6730080  80.8005047
  15.8013546  55.3692150  60.4238892  16.6393888  55.8299780  60.3835058
  15.8930290  54.6501207  59.7988081   8.9559788  74.1993427  93.9011860
   8.2268679  74.5715380  93.4051037   8.5409373  73.7583685  94.6424770
  26.3949728  54.5114756  40.1617765  25.6289268  54.7254944  39.6292353
  26.3272572  55.0892878  40.9218979  27.0275164  97.7504921  58.8348150
  27.7317071  97.6039410  59.4663763  26.8551302  98.6908531  58.8822222
 107.2354045  80.5169582  83.2476330 107.5368406  80.8105278  84.1073990
 107.5678643  81.1768150  82.6391125 110.9442236  71.5827274   4.3869317
 110.3202273  70.8812809   4.5735651 111.7731409  71.2681770   4.7477445
  22.2058821  88.2536221  53.1045866  22.0172954  88.3482265  52.1709299
  22.8847146  87.5799751  53.1447649  22.3069000  60.3109980  72.9016256
  22.4701214  60.8977747  73.6400557  21.3653874  60.3808117  72.7437925
  33.9330387  69.6807146  67.0603132  33.2553101  69.0443277  67.2881889
  33.4522963  70.4187727  66.6856194  47.5045015   5.5036116  93.5928822
  47.9585684   6.2176181  93.1453800  47.8592731   5.5140639  94.4818497
  16.8822575  24.3657017  69.2485952  16.0478437  24.2285514  68.8000727
  17.0949054  25.2842236  69.0832758  98.2045712  74.3652725  85.8186626
  98.1777920  75.0202751  86.5161514  97.2994294  74.3031502  85.5135536
  23.0413914  68.5416031  68.9660692  23.4955978  68.9600563  68.2347536
  22.1138287  68.6005259  68.7371826  12.8513098  86.9579124  74.8067141
  13.1862962  86.1529350  75.2017164  11.9804895  86.7230415  74.4861794
 106.6034343  60.5967712  33.0926466 106.0048654  60.0093889  32.6312017
 106.5274676  60.3420877  34.0122104  49.0567589  71.8631983  70.5333471
  49.1236973  72.5995827  69.9254942  49.5758200  72.1307373  71.2917852
   2.1238746  68.6555529  41.9165468   1.2178975  68.9634228  41.9421053
   2.6443774  69.4228315  42.1544409  81.8201460  21.0294963  57.0486498
  82.0754780  21.7996169  56.5407467  80.8661236  21.0004283  56.9763613
  68.3453703  98.7817478  61.4047956  68.1340790  99.3953800  62.1083879
  68.7642765  99.3212700  60.7342196   4.7089222 105.4599762  87.5080109
   5.2343869 105.3845310  88.3045197   3.9091730 105.9040546  87.7898407
  27.4618387  82.1674538  93.6534309  27.4127030  81.4403725  93.0328083
  28.1076646  82.7632332  93.2737160  20.9632850  95.3186131  81.4773941
  21.0084677  96.2253189  81.7808247  20.1820278  95.2895164  80.9251022
   9.5036250  73.4386349  87.7646255   9.7363460  73.7651873  86.8954659
   9.9961913  72.6227474  87.8537464  52.4648453   6.0602904  58.0116463
  52.9829658   5.4039717  58.4775114  51.7845536   5.5559016  57.5655270
  22.0234156  77.2354078  60.1457739  21.7715096  77.4391937  59.2450809
  22.7696824  76.6425180  60.0574493  60.3268088 106.3117795   5.8007831
  60.5836238 106.3773732   6.7205543  60.1263155 107.2116427   5.5433387
  79.4228077  86.3860798  43.2291460  78.6235189  86.0600567  43.6427641
  80.0953770  86.2970543  43.9043856  99.4331517  97.3920059  74.7490168
  99.4320073  98.3257294  74.5383644 100.2708687  97.2466946  75.1887274
  39.4157386  88.5122967  65.0902224  39.6145129  89.1336632  65.7906723
  38.6435175  88.8773632  64.6582127  18.0636001  74.9336338  49.6447277
  18.5002351  75.7848930  49.6753168  17.9056776  74.7123384  50.5625057
  64.3113899  87.4908543  66.0505581  64.0249491  86.7911434  66.6375780
  63.5728741  87.6219273  65.4558802  45.6931829  90.7159233  65.0732040
  46.0406256  91.4290047  65.6089592  44.9194860  90.4138947  65.5490208
  32.5070906  42.4931288  70.9222412  32.0833015  42.2296524  71.7390728
  33.0488539  41.7419863  70.6803608  51.6859341  73.3997393  67.7399969
  51.7484522  73.8520098  68.5812902  52.3363543  73.8321924  67.1866703
   2.6527077 102.1425247  79.8665953   1.7518276 101.9165325  79.6351337
   3.1871331 101.4897251  79.4144058  62.5055170  89.0611267  32.4116015
  62.9616785  89.4157314  31.6484499  62.8056955  89.6014214  33.1424952
  31.8988228 100.4354572  66.9268227  31.4790606 100.4763794  67.7861023
  32.1640825 101.3373470  66.7466545  49.8820066  78.3745813  68.2079935
  49.3230963  77.8665972  68.7960386  50.7676411  78.2435513  68.5466862
  27.7373195  87.1980953  60.1089001  26.7879200  87.0839500  60.0659800
  28.0553842  86.8786240  59.2645025  57.2455311  69.7977734  62.1748638
  56.3041162  69.8765945  62.0207357  57.3284531  69.0592718  62.7781630
  10.0971520 107.6769924  51.6449022   9.8643923 106.9865608  51.0241365
   9.2604405 107.9583549  52.0150089  25.8909082  53.5308981  59.6835899
  25.5183911  54.3691921  59.9569464  26.6495514  53.7684011  59.1504049
  25.0708842  66.9439697  62.4254704  25.9305549  66.6499424  62.1242237
  25.2607489  67.5205660  63.1655550  40.0314951  77.7033091  81.8952751
  39.8463511  77.9715157  80.9952641  40.8503914  78.1480217  82.1140766
  35.4317951  87.0514965  63.8752127  34.9388742  87.7908134  64.2311239
  35.9137583  86.7019272  64.6247053  35.9694314  50.9974098  85.8220577
  36.7324543  51.1261845  85.2586365  35.2221417  51.0323334  85.2249241
  67.8289843  79.2366314  71.3557529  67.7363729  78.3908033  70.9173059
  67.4185610  79.1092539  72.2110653  30.2114582 106.4065456  59.6638012
  29.4739151 106.2341595  59.0785265  29.8553753 106.2760735  60.5426693
  70.0395025   2.0306159  34.0775609  70.3234781   2.7690173  33.5387182
  70.7568420   1.8962241  34.6969128 113.3829941  68.8937902  65.4757214
 113.7615468  68.2974672  66.1217356 113.8478084  68.6932468  64.6633434
  13.7836671  53.3689356  66.8633652  14.3020010  53.8292742  66.2033319
  13.2740760  54.0573788  67.2906780  12.4581850  58.8492399   6.1680049
  12.3553026  59.6564966   5.6640357  11.5692890  58.6226278   6.4413947
  19.6826875  91.3549232  71.5407944  20.5811524  91.0285664  71.5906477
  19.1701329  90.6015396  71.2476492   7.5494421 109.3833637  81.5173054
   6.9233710 108.6990070  81.2808228   7.5904703 109.3505669  82.4730587
  27.4127579  93.7757015  26.4234900  27.8744960  92.9436493  26.3199306
  26.9199181  93.6763668  27.2380280 105.7218660   2.1105052  45.8798647
 104.7908891   1.9931174  45.6908274 105.9790863   1.3040209  46.3266993
  30.4676867  68.9720058  13.9224410  30.4634714  68.0827904  14.2767239
  30.9927893  68.9094543  13.1245768  57.3081636  78.4816456  64.9415112
  57.1591187  78.3801270  65.8815670  56.5480709  78.9731503  64.6301985
  33.0793357 105.4749584  28.6128783  32.4574089 106.1945915  28.5053372
  32.5627422 104.6856594  28.4504819  93.7218764  16.2931066  26.0850734
  92.9459014  15.7403236  26.1773986  94.4464865  15.7391744  26.3754672
  29.5572305  63.0743837  72.2434616  28.8320851  63.4725332  71.7619324
  29.3698597  63.2681227  73.1619310  14.1409385  80.1774597  70.1653910
  13.4503460  80.5447102  70.7171535  13.7569213  79.3806028  69.7996235
   7.4095714  41.4333063  13.9370841   8.3568466  41.3821893  13.8094348
   7.1481550  40.5378729  14.1517371  36.8080902  80.9763336  67.1432686
  36.5026999  81.8179989  66.8047905  37.3610568  81.2050247  67.8903675
  41.8367434  94.7309875  47.4051523  42.6944828  94.3629551  47.1928501
  42.0138073  95.6495190  47.6081038  22.2443795  87.8304482  10.3938794
  21.9029498  87.0172977  10.0218081  23.1940007  87.7573299  10.2984393
  56.4637756  85.0112247  63.6606073  56.2090778  84.1240406  63.4070921
  56.2907314  85.5415821  62.8827906 114.4276102  33.3668232  78.3998537
 113.9473202  34.0686440  77.9605293 113.7512921  32.7439642  78.6660671
  44.9535418  78.3568811  55.5841064  44.1416883  77.9435968  55.2902985
  44.9111795  78.3156538  56.5394783  39.8709917 100.2095985  26.7244029
  39.6606541  99.6254349  25.9958816  39.1750073 100.0558662  27.3633122
  78.1258477   1.3643218  68.8968945  78.1746949   1.0896922  69.8125505
  79.0289177   1.3147307  68.5834694  64.0363359  94.1944599  68.5800695
  63.5435343  94.9326706  68.2217169  64.7028923  94.0079117  67.9189062
   3.4433854  81.7545128  61.6229868   3.7024748  82.2971916  60.8782673
   3.3201540  80.8810139  61.2514400  61.1683512  89.1886806  72.4006510
  60.8624649  88.3882523  71.9740725  61.0162306  89.0361977  73.3333015
  81.5554094  39.9130350   3.1356353  81.3968172  38.9879518   2.9477424
  80.7920095  40.3647905   2.7759475  39.2855136  36.4041568  93.3350372
  39.7454203  36.5249396  94.1657734  38.9373529  37.2708941  93.1257915
  29.7937608  98.4381008  37.4371314  29.0933561  97.9001999  37.8063536
  29.5120072  99.3392467  37.5945568  20.1415467  83.9974117  60.8642721
  19.4513392  83.8338280  61.5069914  19.7415113  84.5914173  60.2291632
  63.5943950   4.3351508  64.5143080  64.4083179   3.9352370  64.2079926
  63.6253370   5.2301932  64.1764259  36.4486241  94.8746586  30.8140302
  36.2994742  93.9294338  30.8371234  36.2592316  95.1249981  29.9097657
  24.3778658  66.2852669  69.9352407  23.8707733  67.0634508  69.7038889
  25.2718043  66.6074657  70.0505495  30.1542735  86.1985874  61.5533161
  31.0529613  86.3350773  61.2533855  29.6112394  86.5865898  60.8671665
  44.5916033  68.0635595  89.2323589  44.6489048  68.9326382  89.6294022
  44.8126459  68.2056952  88.3119392  27.1605563 105.9464741  34.7862172
  28.0835557 105.7220650  34.9043107  27.1749353 106.8097115  34.3728662
  17.0744443 100.2852249  55.0592327  17.9459596 100.5291653  55.3709841
  17.1069539  99.3319607  54.9788618  48.5327376   2.5505877  45.6076527
  48.9885606   1.8011714  45.9908581  48.9181377   3.3123160  46.0406208
  44.2027044  82.1448135  70.1614141  44.5786572  82.2227478  71.0382366
  44.9358273  82.3163319  69.5703602  43.2908773  86.5833855  46.7381191
  42.7445126  86.1079216  46.1122990  42.7288198  86.7040539  47.5034714
  49.0484859   4.4687415  42.4093246  49.6641291   3.7934828  42.6943684
  49.5820726   5.0807715  41.9024372  41.0571384  70.5598879  61.9060850
  41.8579531  70.0653267  62.0802736  40.4038572  70.1703024  62.4871874
  58.3823992   0.3329993  46.4001226  57.7356352   0.0009967  47.0227861
  57.9664303   1.1015940  46.0096645  55.3632736  64.9048281  78.3527756
  55.4800320  65.1790094  79.2624044  55.6389856  65.6625509  77.8369522
  94.7432365  90.8546448  50.4137468  95.1253667  89.9791145  50.3532457
  95.0575246  91.3077354  49.6313381  50.4877234  81.0027122  52.5189686
  51.3834333  80.8885098  52.2013283  50.3638220  81.9513416  52.5502634
  47.8036070 100.9303188  72.1535778  48.6695576 101.1312580  72.5085258
  47.1933413 101.3574791  72.7546930  28.8090396  90.2547169  82.5376511
  28.1542158  89.5576191  82.5762463  28.3077359  91.0429382  82.3287487
  77.3191489  18.6818648  56.8186951  76.9275273  18.3295966  57.6179266
  76.5725983  18.9658023  56.2911844  17.8593111  85.5102825  41.3794708
  18.2627225  84.9184990  40.7444239  17.3623586  86.1309052  40.8464622
  22.7312946  87.8865051  39.3672037  21.8589354  87.6807308  39.7031760
  23.3276796  87.3963165  39.9331355  12.0672929  77.7594900  86.8395710
  12.2367704  77.1411419  86.1288261  12.6936483  77.5177336  87.5218201
  64.5892132   0.9586096  48.9348316  64.5333255   0.9464026  49.8903179
  65.4556693   1.3211013  48.7502003  42.7010584 107.5273323  39.9404025
  41.9545126 107.0673466  40.3242207  43.4436512 106.9408131  40.0845623
  21.9596624  95.1322365  42.6618242  22.7798390  94.6673679  42.4961805
  22.2193527  95.9046650  43.1639576  10.9551799  59.7944641  81.4992714
  10.2570570  60.4116821  81.7181206  11.3562727  59.5782089  82.3410511
  30.9335804  80.0061607  21.4630914  31.3519073  80.8082581  21.7759466
  31.6467953  79.5002174  21.0737681  19.6046722  96.1022472  34.1130924
  20.0116873  95.3770351  34.5870471  19.9520099  96.0321903  33.2238913
   8.6887908  91.3354301  37.0845675   8.1201017  91.3310051  36.3146281
   9.2005092  90.5300331  37.0089889  38.1984425  82.9107285  78.4223223
  38.5834527  83.2156277  77.6007175  37.4422169  83.4814548  78.5587883
  31.2541890 100.6813526  46.8501234  31.2635922  99.9510860  46.2313747
  31.2544203 101.4631939  46.2978935  40.7527351  85.3824043  62.0454454
  41.1014795  85.1954651  62.9170322  39.8024249  85.3606796  62.1579933
  58.7412834  95.2020741  61.7384148  58.4064865  95.6429672  60.9575415
  59.6930170  95.2706337  61.6626692   6.5873659   1.4640432  15.4297847
   5.7801712   1.9123941  15.6820792   6.8898094   1.0440975  16.2350196
  53.1202329  11.3121367  41.9239140  53.3721126  12.1728659  42.2584724
  53.2301809  11.3821936  40.9756327  14.1400814  89.8103809  33.1769276
  14.3536246  90.6760788  32.8287840  14.6259809  89.7566509  33.9998770
  47.4972486  85.8976269  54.5733881  47.3453617  84.9852371  54.8197603
  46.6229391  86.2860107  54.5421410  31.5025306 103.5383034  27.8603292
  30.8772397 104.2591095  27.7849722  31.1150193 102.9520226  28.5102081
   6.9693732  82.8115845  67.7221966   6.4669144  83.0380917  66.9395971
   6.4280975  82.1653175  68.1756163  75.3857030   3.8939238  71.2691689
  76.0945858   3.3931590  70.8655071  75.4687322   3.7143470  72.2057009
   4.1772245  17.3780966  68.3365011   4.6364855  17.0671893  67.5563383
   4.8403715  17.8634501  68.8273144  24.2605472  98.6485672  54.5949936
  25.0822449  98.3555317  54.9889183  23.6184025  98.5800838  55.3015327
  57.1723700  95.1861095  65.5689526  58.0045223  95.6342030  65.4174042
  57.2893906  94.7410202  66.4082575   6.2656230  93.0059910  43.9081001
   6.8042868  93.5617447  44.4713163   5.8135372  92.4182224  44.5133924
  33.0307627  95.2616405  79.8505735  33.6999464  94.6328831  80.1209259
  32.3244476  94.7218895  79.4955730  81.6310883  97.3109531  75.2121687
  81.1350632  97.3169327  76.0307980  80.9699249  97.4316788  74.5306158
  77.1178831   8.2582904  65.4688787  76.9293607   9.0598250  64.9807835
  76.5113319   8.2803298  66.2090445  67.0638717   7.7779914  55.1798391
  66.9817628   7.4680854  54.2779255  68.0012072   7.7257300  55.3666592
  54.8556757 102.8765774  61.6243744  53.9793634 103.0588913  61.9635916
  54.9018383 103.3674622  60.8039284  43.0009031  85.4158688  59.4894505
  43.3619595  84.9200439  60.2243137  42.3817539  86.0245800  59.8923874
  83.2532158  89.4973373  76.3831854  83.9419975  89.2254734  76.9897318
  83.7138309  89.6809196  75.5644321  95.4158319   3.5768557  89.9941826
  95.9091772   4.3238021  89.6551895  95.1761211   3.8324977  90.8849239
  79.2602552  11.6488600  62.7911139  79.3589271  11.2278987  63.6450958
  79.9566997  12.3050261  62.7656317  27.4114251  47.2177744  63.4192610
  27.3698401  47.8530931  64.1340208  26.5205193  46.8742752  63.3519983
  44.7201490  86.1831474  55.1127768  44.3361473  87.0591927  55.1491117
  44.8260641  85.9298420  56.0297537  23.3412480  93.2950878  36.2421155
  24.0147233  92.6159668  36.2802196  23.6689305  93.9214230  35.5966949
  17.4919939  91.8746471  89.2626953  18.0709016  91.2002182  89.6179867
  16.6218674  91.6361332  89.5824146 104.4422772  56.3933187   3.9501780
 105.3689196  56.2010103   3.8067073 104.0600803  55.5535989   4.2051906
  45.1299560  19.5466333  12.4914569  45.7370270  19.1598802  11.8604869
  45.5289543  20.3847938  12.7249354  80.9853419  35.5560117  17.8811568
  80.9354641  35.9308725  17.0018214  80.3204613  36.0292822  18.3813399
  25.5446601  90.0161362  54.1440821  25.7142305  90.4622078  53.3143234
  24.9489069  90.6005859  54.6128273 113.8907846  98.0044079  29.0639067
 114.4378789  98.1191063  28.2868814 113.5998993  97.0935440  29.0196967
  71.6430569  75.7946062  67.2199678  71.5058661  74.9719048  67.6896191
  71.2040567  76.4535379  67.7578449  41.5772533  72.6723957  60.4783726
  41.3815975  72.0363569  61.1664152  40.8476973  73.2912588  60.5097914
  39.7697115 100.6428528  42.3502159  39.5176840 100.8471107  43.2507706
  38.9765310 100.8000946  41.8379974  99.6405866  41.6212183  28.0705661
  99.9353650  41.1729723  28.8632888  98.8219073  42.0462804  28.3261413
  22.2764421 103.0003834  84.0111160  22.5067949 102.6264286  84.8615932
  21.3196015 102.9818344  83.9925480  68.1720389  16.7663241  45.6866550
  68.8882507  16.5926314  46.2974787  67.8338469  17.6218367  45.9511328
 106.7198279  49.7884184   1.0478229 106.2526371  49.5353800   0.2516192
 107.3086240  50.4891401   0.7675761  47.1358156  82.0384121  56.8550253
  46.4640951  81.9087887  57.5245190  47.0964479  81.2459087  56.3196516
  64.2518581   4.6045638  48.1147718  65.0327171   4.1378546  47.8169823
  63.6528553   4.5694400  47.3689842  20.0589657  91.4520931  77.8119564
  20.7550383  91.8799782  78.3105850  19.6063626  92.1694756  77.3683977
  91.2795212  24.2410188   7.0603484  91.5796974  24.9667555   6.5131492
  90.9793045  24.6581608   7.8678721  25.8977461  78.2639551  75.5961227
  25.5208516  77.7389526  74.8900366  25.4854727  79.1227150  75.5023575
  34.0459180 108.0147171  36.8761921  33.5673022 108.7357998  37.2850919
  34.3519950 107.4832058  37.6110721  65.5233396   0.4845954  55.1422977
  66.1446727  -0.1111078  54.7235918  66.0305775   0.9145690  55.8308172
  56.4206409  67.4960899  57.1123552  55.8171940  67.5064945  56.3694048
  55.9349823  67.0547867  57.8092194  37.3445129  89.1070938  42.0765018
  37.2974634  89.9305153  42.5622940  38.2372808  89.0828705  41.7321014
  59.5357466  86.5113354  12.6938164  59.5525265  86.9061470  13.5656357
  60.4282761  86.6187000  12.3650467  11.7205572  78.6944532  39.0108037
  11.4169717  78.2483864  39.8014283  11.1150229  78.4083700  38.3269048
   4.2664537  78.1378746  79.8432446   4.3520436  78.0125856  78.8981485
   3.9850077  79.0476608  79.9397278  55.3404474  94.6440983  82.3101616
  54.6973467  95.2005100  81.8707848  56.1061859  94.6638203  81.7361546
  19.5364583 102.3752308  41.3568640  19.0169287 101.5721512  41.3940620
  18.8929784 103.0706882  41.2208271  60.6078757  33.6530257  58.4811974
  59.6552910  33.6551619  58.5750389  60.8283604  32.7399684  58.2969952
   4.8482430  69.2545080  55.5722284   4.4324812  70.0375843  55.2114487
   5.7179856  69.2394829  55.1727867  18.9134359  99.3401051  17.2555327
  19.3904626  99.0036297  16.4969397  18.1493402  99.7795582  16.8823433
  79.5083522  26.9843584  19.7735614  78.5800897  27.2095495  19.8356360
  79.8535662  27.1473795  20.6513423  43.9283419  93.5690022  55.7930851
  43.0596304  93.5297871  56.1931276  43.7647104  93.8471603  54.8919249
  19.9037266  76.6456509  61.7620230  19.2156959  76.6807270  61.0974789
  20.6972647  76.9153690  61.2996578  20.4375696  92.7123547  19.1879368
  20.6061006  92.9181767  20.1074290  20.8069706  91.8376637  19.0666950
  79.9568285 100.1196198  13.7935180  80.0125517 100.7711558  13.0945033
  79.1935123  99.5888047  13.5658854   7.0827043  58.9505720  81.6873837
   7.6473868  58.5028410  81.0573864   6.5137637  59.5015144  81.1497974
   0.8017146 105.5989075  24.2914438   0.7417672 105.0652599  25.0838232
   0.1239601 105.2473927  23.7141037  19.3310940 104.3454456  32.1100259
  19.0941143 105.0104809  31.4636564  20.0279665 104.7506714  32.6261568
  49.0520859  99.2636585  63.2456923  48.2871532  99.0619373  62.7067804
  49.7763538  98.8125229  62.8119373  12.9253697  61.4638519  54.8826122
  13.2758772  61.0238314  54.1081715  12.0553291  61.0828495  55.0013494
  21.2144756  71.4253664  61.9036865  20.5698180  72.1163273  62.0560741
  21.5598011  71.6084576  61.0299253  21.3404059  93.4705925  50.9407902
  20.8730721  92.6954365  51.2521601  21.8129492  93.1696987  50.1646471
  31.1486626  74.4129467  54.0285397  31.5098500  73.8593292  53.3362389
  30.2263784  74.1618586  54.0793133  29.8201537  91.4674377  19.1608524
  28.9849734  91.0571766  18.9363730  29.5914698  92.1417618  19.8005557
  34.9599552  67.0085001  79.6821547  35.9143591  67.0607519  79.6310186
  34.7733450  66.9462204  80.6189251  21.6061401  80.8761311  72.9107428
  20.7049727  80.8123302  73.2270622  22.0047665  81.5527058  73.4580803
  61.4792442  81.1060429  55.1285696  61.0300827  80.5337524  54.5064878
  62.2759247  81.3771534  54.6724653   3.2477599  74.2829657  71.1578846
   4.1504797  74.4426966  70.8825397   2.7160898  74.5781851  70.4186916
  50.5702771  15.3600836   1.1281908  50.1427425  14.5219756   0.9520502
  51.5037121  15.1506186   1.1607243  36.2136984  92.3325443  29.4681144
  36.2813067  91.6748905  28.7759018  35.2843189  92.3448181  29.6968818
  97.4804748   0.5797148  71.4818764  98.1056608   0.7357455  72.1897078
  97.5102390  -0.3664827  71.3402700  82.1579539  34.8662954   7.2245616
  81.4039343  35.4496389   7.1385306  82.5878104  35.1480108   8.0320853
  44.2751169  98.3666706  66.8947601  44.5819616  98.2316208  65.9981918
  45.0757504  98.4160137  67.4170494 103.1329026  81.6562653  56.5319538
 103.9141943  82.1265793  56.2410593 103.4585168  80.8005142  56.8110514
  17.6337683  96.7525196  22.9607797  17.8618145  97.3305702  23.6888504
  18.4727895  96.4029980  22.6605940  15.8075953  84.4299126  22.1066523
  15.4237640  83.9896393  22.8649831  15.4979885  85.3332901  22.1721005
  33.0067182 104.0901756  63.2861567  32.3714876 104.8025703  63.3583117
  33.8587165 104.5259285  63.3072472  10.3391838  58.6116314  77.0434570
  10.7055831  59.2054558  77.6987076  11.0277164  57.9631901  76.8962145
  85.8596576   9.4410086  52.3243570  85.5416931   9.7816516  53.1604767
  86.1698497  10.2142668  51.8530941  74.9004650 102.8128338  68.6694574
  74.5407343 102.0262241  69.0794230  74.7458649 102.6870537  67.7332401
 111.4963367  39.2557436  18.3249396 111.2505033  40.1380735  18.6029643
 110.7235243  38.7222105  18.5102195  42.4367465   1.2752391  42.7752781
  43.1245534   1.3845778  43.4319305  42.8808416   1.4113188  41.9383192
  27.9203272 103.5044575  64.6608925  28.6036253 103.6512566  65.3149414
  27.3972249 102.7867508  65.0179529  51.5876436  78.1963682  91.5657139
  51.9099665  77.3350477  91.8311691  51.3031292  78.0768156  90.6596279
  81.6845226 105.0974369  53.6892271  81.9016075 104.8470497  54.5872307
  81.0724926 104.4233227  53.3939123  47.3505688  93.5056496  72.8642464
  47.9009485  93.8368225  72.1545696  47.5480080  94.0764809  73.6068058
  28.0151343  86.6619492  73.0270147  28.9329052  86.4802742  72.8247261
  27.5985193  85.8003426  73.0440044  31.8453169  90.2070332  64.3816280
  31.1428452  90.3523922  65.0153732  31.4005661  89.8686314  63.6045074
  16.0918403  95.0070095  88.6448002  16.1099648  94.3348694  87.9635239
  15.2303183  94.9129391  89.0511990  18.3164883  78.5832739  64.0756750
  19.2572808  78.5269356  63.9084387  17.9283977  77.9433632  63.4789085
  41.4917421  95.7336235  65.4748583  41.2188578  96.6438293  65.5901289
  41.3709736  95.3363228  66.3372946  28.8973761  86.6830444  41.4518118
  28.8948941  87.0751953  40.5786276  29.2244720  85.7940578  41.3141918
  19.3153346  58.6173058  74.9739170  20.2629662  58.5141325  75.0610065
  19.1488934  59.5250511  75.2279329  95.5730548  42.1661955   0.3889865
  94.7956326  41.6978174   0.0849074  95.4680993  43.0532365   0.0449485
  62.8985895  12.7580691  82.0693207  62.7723969  12.6106787  83.0066490
  62.2354926  13.4083701  81.8377018  53.2825661  84.4997215  47.6504421
  53.4530973  83.5646057  47.5377178  53.2111979  84.6176910  48.5976601
  48.5623121  69.1639376  70.6993151  48.6506796  70.0988913  70.5141449
  47.8749466  69.1152763  71.3636875  18.7713671  74.0969944  64.7138500
  18.5454810  74.6901751  65.4303265  18.0722201  74.2198610  64.0717220
  43.0535030  97.8630543  39.2331290  42.3792982  97.1837521  39.2482686
  42.7776527  98.4588051  38.5365558  34.4903207  90.2358437  81.1746788
  35.2473164  90.1729679  81.7571259  34.6730590  89.6078587  80.4757690
  84.1995443   2.0713473  62.5350809  83.6171449   2.6597930  62.0546913
  84.6432794   1.5652896  61.8544674  16.4688480  64.2113972  68.1172132
  16.9629765  64.6614408  68.8024330  16.6705203  64.6977043  67.3178005
 106.5859903   2.9753352  21.0340881 106.1571945   3.0793906  20.1846552
 107.0028080   2.1148825  20.9881735  42.7429438  79.5694160  82.9988194
  43.2288551  79.4702387  83.8175297  42.6200056  80.5141544  82.9061985
 115.2997067  54.3840414   3.7656421 114.9572708  54.9458605   3.0704326
 115.0875070  54.8484903   4.5752639  46.8867874  61.7767429  73.9791107
  46.9941568  62.1110201  74.8695946  47.6444530  61.2076187  73.8439369
  35.1651001  83.7085247  24.9726558  35.3489447  82.7890778  24.7801661
  35.3504181  83.7992477  25.9073544  36.8858147  94.6414089  88.6182785
  36.6574836  95.4230881  89.1213512  36.7986941  93.9209557  89.2424583
  33.8186872  64.4831281  16.8155211  34.0310514  63.6287313  17.1912116
  34.3861473  64.5550161  16.0480231  29.4031978  94.4621372  37.2570682
  29.3629551  94.7098160  38.1807923  30.2758193  94.0840816  37.1482611
 105.3600038  11.5443278  46.7274380 104.7525037  11.7821646  46.0270071
 106.0117258  10.9881545  46.3006353  35.3606033 104.3324375  27.8604865
  36.0103416 104.8371220  28.3497357  34.5535803 104.8411560  27.9388714
  69.0512371  93.7133121  62.4635935  68.2036400  93.5372257  62.8720140
  68.9059019  94.5016956  61.9405603  36.6617131 106.4840126  70.4748201
  37.3818421 107.0974445  70.6209517  36.2601709 106.3762665  71.3370180
  35.0357556  95.0675297  35.2138710  35.6806111  95.7748318  35.2247643
  35.5566382  94.2699432  35.1202321  37.5451326  99.8086452  44.9730635
  37.6270366 100.7121468  44.6677542  36.6050911  99.6304893  44.9445581
  66.1894035 103.8942242  92.0891666  66.6567516 104.1591740  92.8813934
  66.4151335 102.9710102  91.9753742  27.8602505  94.4684601  61.6385794
  27.7471948  93.6923504  62.1873093  27.5146508  95.1878452  62.1670485
  97.3474802   6.6799021  54.7065449  97.8694452   6.9015265  55.4776907
  97.5382675   5.7558013  54.5456982  87.8143848  28.1020880  44.8798370
  88.2638467  28.0279780  44.0379810  87.4233640  28.9756823  44.8664904
  11.1048436 106.1086273  32.3502064  11.7098308 105.4967690  31.9308615
  11.3446474 106.0855293  33.2765913  60.9365119   4.6097899  38.9552712
  61.8722094   4.4991351  39.1239762  60.5551733   3.7536669  39.1498470
  91.3986673  77.2310495  61.2211561  91.5578808  76.9870186  60.3093815
  91.9353356  78.0118656  61.3573360  45.9749556 100.9918690  83.7015152
  45.6061411 101.4183426  82.9279900  46.9211245 101.1022282  83.6076069
  28.5284376  87.6700401  80.0004196  27.8254986  88.3193207  80.0235176
  28.1566000  86.9315338  79.5181513  27.3202515  87.7641869  48.3468103
  28.1818032  87.5443840  48.7012815  26.8205237  88.0695057  49.1039658
  41.0868692  90.7106686  50.7997370  41.5628433  91.1069775  50.0699234
  40.5258894  90.0519562  50.3903103  48.6173487 100.1621532  66.2149763
  48.4215927 100.8955193  66.7981482  48.3180428 100.4543018  65.3539896
  85.3653396  10.5585719  73.5782337  85.8983673  11.3223792  73.7989521
  84.4858421  10.9112788  73.4429216  88.1005109  11.6961623  53.8228512
  88.7345232  11.9807292  54.4810915  87.9519714  10.7708407  54.0176630
  69.2232037  98.8989067  54.7255707  69.7522211  99.6157837  54.3756247
  69.7814178  98.1259251  54.6410847  69.5643295  21.9569731  79.4885826
  69.5211257  22.7161837  78.9072371  69.1159452  22.2397662  80.2855873
  82.3273767   2.4923278  32.4894190  82.4912943   1.5754843  32.7102327
  83.1950821   2.8964377  32.4849463  77.5850201  85.9221649  84.7805691
  76.8433905  86.0438156  84.1877651  77.8290224  86.8094349  85.0441265
  79.0118755  28.0718947  32.0217586  79.6387113  28.7850238  31.9002795
  78.1889881  28.4142543  31.6726351  61.4675093  90.6202984  27.7875423
  62.1167755  90.5831623  27.0851851  61.7899418  90.0034618  28.4446359
  93.8312067  26.5381861  61.0936308  93.3446611  26.0396338  60.4371595
  93.2697500  27.2883273  61.2892962  45.0139637   1.1341525  77.9847050
  45.6938107   1.2151194  77.3157644  45.0743080   0.2252341  78.2787466
  56.8890619  95.2038193  70.7934427  57.4579763  95.4800701  71.5119553
  56.0146332  95.4910755  71.0562897  75.7946587 102.3231316  37.8425479
  76.2132597 102.4902821  38.6869788  74.8995256 102.0675468  38.0653763
  43.7564135 105.0613594  67.5752020  44.7103977 105.0054264  67.6301050
  43.5908842 105.8826447  67.1122599  64.1628899  71.9156557   3.8344783
  65.0853159  72.0095545   4.0722674  64.1749027  71.7377096   2.8940410
  83.1479467   6.3620902  46.9951773  82.6936878   7.1105052  46.6082096
  82.5900997   6.0948802  47.7256775  18.9293838  93.8721752  67.8524828
  18.2726252  93.1994724  67.6725674  19.7596145  93.3963299  67.8752804
  39.9559116 109.8018551  74.3205500  39.9443865 108.9570999  74.7705507
  39.4435620 110.3808594  74.8848915   3.9244831 102.3564720  18.6228526
   3.8488546 103.3052826  18.7241352   4.8654070 102.1854877  18.6636019
 107.7839531  35.2844763  64.9377060 106.9462980  34.8649264  64.7414017
 107.9030813  35.9223319  64.2340088  79.8194660  10.7701827  42.4981880
  80.3295768  11.5336943  42.2278976  79.3325151  11.0673476  43.2668257
  19.0519500  95.9414291  71.0636854  19.2725539  96.7117310  71.5873146
  18.1862259  96.1358452  70.7045794  58.7126970  78.1040812  59.2103100
  58.3744097  78.6987352  58.5408449  58.9004564  78.6691189  59.9597836
  83.1795801   3.5093928  60.2910709  83.5325874   4.3970729  60.3513718
  83.4817375   3.1886912  59.4413185 105.4154171   1.0821295  69.0556669
 105.4297413   1.6538001  68.2880592 106.2487901   0.6125880  69.0201998
   5.3509878  10.2743865  20.7240748   5.9070562  10.2219249  19.9467254
   5.9272551  10.6150866  21.4082313  51.0150385  77.3931885  60.5881071
  50.4260588  77.2965670  59.8397779  51.4180803  76.5308094  60.6886005
  61.2874365 101.6047764  64.1872025  61.0720348 100.9060955  64.8049974
  61.8288469 101.1785221  63.5228109  16.7893469 108.1840038  59.4475603
  17.3543978 108.9481640  59.3335104  17.2507989 107.4757481  58.9984846
  10.0244606  47.3836809  14.9014205  10.9436977  47.2548013  15.1351470
   9.7039783  46.5052801  14.6966189  58.0300617 100.6562996  85.2630138
  58.1151295 101.5966129  85.1055145  57.3546267 100.5865955  85.9376621
  55.1063919 108.5613728   6.7175579  55.0547314 107.9207325   7.4268889
  54.7466326 109.3647003   7.0936781  81.4644302   8.6148596  67.5340748
  81.0015644   7.8080321  67.3082066  82.3872484   8.3620597  67.5610209
  36.1660671 101.3312435  50.3107119  36.2902880 100.7798958  49.5381689
  35.2164698 101.4215469  50.3903341  99.7076667  36.6886569  74.0994215
  99.6074499  36.7569304  75.0489092  99.0950025  35.9994174  73.8428593
  28.1173706  85.0843430  65.7815266  28.7018180  84.7170925  65.1183653
  27.2730756  85.1659298  65.3379679  66.0525608  89.1316986  67.7021646
  65.5651760  88.4657478  67.2171879  65.4240131  89.8419762  67.8312349
  65.2321399  14.2222453  44.9713564  65.3562940  15.1622725  45.1024199
  65.3441609  13.8420821  45.8426523  85.3165306   2.3383666  37.1128297
  84.8804296   2.4974204  37.9499388  85.9224523   1.6191626  37.2912717
  74.2401541  14.4372893  51.4917326  74.4210685  13.5924769  51.9037724
  74.0072955  15.0137664  52.2195292  83.7698364 100.8547401  49.3757153
  83.7954617 100.8387280  48.4189939  84.6262169 100.5216885  49.6438694
  69.4081272   2.2228099  42.3773289  70.2442468   2.4223471  42.7984238
  69.1537346   3.0408717  41.9503736  86.8761314  11.9835139  39.7743082
  86.4916671  11.7274619  40.6126738  86.1861242  12.4821425  39.3367147
 111.2491621   5.9952498  15.3123975 112.0776666   5.5176306  15.3534770
 110.8604349   5.7292891  14.4790983  99.5613445  15.7063628  27.8633475
 100.1589645  15.2007247  28.4141731 100.1342977  16.1802722  27.2605467
  34.2243862 102.4793243  69.8437595  35.1134348 102.5000000  69.4896460
  34.1803694 101.6575813  70.3326750  53.2277847   2.9871035  70.4481077
  54.1169990   3.1674910  70.7530499  52.6626981   3.4203101  71.0878277
  52.1960068  94.3047810  16.5595829  51.8241692  94.7173309  17.3391819
  52.4193048  93.4176922  16.8414390  47.0474005 101.1926460  42.9787064
  46.2072659 100.8567429  42.6663351  47.2320509 101.9410515  42.4112368
 100.5867876  16.3193465  73.3680964 100.5514110  17.1111251  73.9048100
  99.6746172  16.0385562  73.2950401  29.6882987 104.3745804  73.3184195
  30.4698634 104.9064922  73.4682703  29.9177504 103.8155651  72.5760746
  16.6652393  74.6983433  70.2122116  16.4023769  74.2241335  71.0010433
  17.4428296  74.2344141  69.9018002  51.8501282  65.2016020  81.3070107
  52.4380636  65.4071045  82.0338726  51.8786001  65.9787083  80.7488632
  36.2011003  85.7709503  91.2198257  36.9549274  85.7633305  91.8096733
  35.5931568  86.3950920  91.6161633  62.7951050  86.9934082  60.3304100
  63.5622120  87.3188686  59.8593950  62.7584791  86.0617733  60.1137638
  47.1513987  90.0239372  45.0193262  46.2457561  90.2374554  44.7946930
  47.6258421  90.8481312  44.9105453  57.7604784   4.1921569  88.8285732
  58.1139244   4.9419833  89.3071747  58.0637850   3.4292746  89.3207741
  70.7113970  16.9178344  58.1960630  69.9018396  16.4176322  58.2992315
  71.0686983  16.6249896  57.3577261  73.3137226  83.6326408  55.6634712
  73.9884090  84.3067646  55.7446241  72.8853512  83.6182499  56.5193462
  16.3129401  78.2774925  59.4794178  16.2513983  77.9225063  58.5926104
  16.1813450  79.2192793  59.3700790  55.2950001  78.8480425  78.7416458
  55.1306248  77.9186726  78.5820007  54.4350481  79.2101526  78.9551592
  26.7810249 100.4329014  58.9988184  26.5567613 101.0465145  58.2992315
  26.6813087 100.9408188  59.8039913  80.9069456  16.3751364  77.9094505
  81.3318790  16.7803527  78.6654043  80.4461206  17.0953608  77.4791574
  54.9383068  96.2879467  62.5023794  55.7726145  95.9341240  62.8105545
  54.7852564  97.0552635  63.0537653  33.7581205  91.6694164  36.1393666
  34.5244837  91.1052895  36.0359669  33.7812042  91.9388771  37.0575643
  69.6153821   3.8165808  44.9640036  70.4838551   4.1794253  44.7898579
  69.0270795   4.5701743  44.9167681  20.9613156  88.5304832  46.4247751
  20.9896517  89.3953609  46.0156155  20.2556205  88.5930443  47.0684481
 111.9394555 101.2908649  57.0889664 111.2446799 100.7229710  57.4221563
 111.4842530 101.9294834  56.5401649  82.4187279 101.4357758  81.1313152
  82.1162510 102.3424435  81.0795403  83.2784557 101.4457035  80.7106113
  51.9525671  94.0740013  69.7910786  51.4448309  94.3257046  69.0196657
  52.8249168  93.8770390  69.4498396  99.3003954  38.6728812  59.1672564
  98.7545599  38.9469863  58.4302616  99.4921268  37.7512980  58.9935732
  38.0961728  93.7691879  46.0909748  38.0935335  92.9628468  46.6067600
  38.3442497  94.4516277  46.7146444  41.4705706  88.9941597  44.3073130
  41.7766666  89.6972847  43.7344694  41.7075205  88.1894112  43.8463736
  73.4018768   1.0403395  73.4671545  73.0765880   0.4544020  74.1505909
  74.1886390   0.6077719  73.1353045  37.9749190  16.5441180  66.1019230
  37.8211740  16.0982848  66.9348860  37.1004098  16.6754389  65.7355642
  40.2468681  95.7248688  27.6635098  40.5113173  94.8925304  27.2717166
  40.0984573  96.3047600  26.9165587  18.9546049  86.4263630  29.1982627
  18.2200539  85.8197975  29.2917848  19.1194224  86.7417431  30.0868583
  37.3063397  91.3826275  73.4019995  36.6028190  90.7375813  73.3297968
  36.9903326  92.1381664  72.9064894  56.2899208  89.6376038  68.7106562
  56.8202209  89.0089321  69.2003393  56.9287539  90.1987267  68.2710361
  27.1373224  94.2045403  35.4652166  26.9087172  95.1262856  35.3453827
  27.7756166  94.2068577  36.1785221  49.1599512  92.7104664  62.8375244
  48.5184956  93.2496834  63.3001423  50.0069761  93.0837631  63.0813122
  44.0790558  91.8976021  79.9551630  44.2962408  92.7725697  80.2768612
  44.0851116  91.3463688  80.7376862  95.6650162 105.7470703  36.8650889
  95.1943493 106.5460110  36.6276121  94.9997616 105.0594711  36.8357015
  76.2624563  10.7738734  64.5154619  76.2059916  11.6491366  64.8988056
  75.7707418  10.8387805  63.6967802   1.7749809   2.1490050  64.8818159
   1.6242289   3.0784751  64.7097921   1.8085074   1.7471171  64.0137196
  96.6653455  23.8890696  56.2593794  97.2317136  24.0455008  57.0150185
  95.8380903  23.5911608  56.6377068  61.1294317  94.7029877  63.1260967
  61.3313627  93.8059902  63.3922720  61.4837313  95.2470493  63.8294506
  17.0607412  60.8505064  20.4485244  17.0116842  60.2823072  21.2172812
  16.8267858  60.2817732  19.7150153  55.4214014   6.6062880  69.9492693
  54.9492551   7.4376441  69.9028540  55.4580225   6.3007117  69.0428972
  97.2224010  60.9540320  62.7550411  98.1562961  60.8899260  62.5551176
  97.0729269  60.2812148  63.4192848  37.0849776 100.3390884  89.6177101
  36.7218089 101.1211491  90.0333214  37.3799086 100.6397152  88.7581348
  61.5512037  93.1712532  14.3882811  62.4251270  93.2371426  14.7731841
  61.1747026  94.0444279  14.4980288  76.4704002  10.2303744  50.3987312
  76.4831675   9.3847895  50.8471060  77.3913993  10.4845572  50.3405428
 114.0712321  81.0169506  83.9963436 114.2638469  81.9266033  84.2236233
 114.3900799  80.9216404  83.0988598  62.3049749  12.4229861  47.0977259
  62.2507561  12.4906016  46.1444569  63.0835975  12.9290534  47.3298359
  51.2267650  16.9893885  59.6610069  50.4796268  16.6070796  59.2007351
  51.1485113  16.6628314  60.5573750  28.1675434 100.9204292  41.1303282
  27.6676297 100.3415775  41.7058754  28.8745070 101.2547493  41.6822910
  42.6921511  89.9749184  65.0549221  42.3376465  89.4768238  64.3183994
  43.4257603  90.4640293  64.6823263 106.5369047  18.4519149  74.8178053
 107.1744646  17.7478266  74.9361992 107.0655264  19.2195559  74.5998573
  30.7843823   2.6862384  73.0885887  30.7085289   2.0848323  72.3477840
  30.8263655   2.1162940  73.8564634 113.9797653   9.3682147  63.7571335
 113.8012136   9.8894835  64.5398426 114.7712721   8.8751746  63.9731359
  46.5525436  97.9000568  84.4245815  47.3487091  98.3472347  84.7115898
  45.8460379  98.5111332  84.6335316 114.8680700   6.4450789  65.1893187
 115.1407112   5.6251002  64.7775745 115.4133714   7.1139384  64.7751856
  90.3443826  18.6528826  60.4586840  91.2587894  18.9308120  60.5120707
  90.3292049  17.7960158  60.8850431  22.4608040 103.7607574  41.4646721
  22.3752880 104.6275806  41.0677767  21.5826559 103.3839893  41.4086628
  85.7566608   2.0312834  77.0682573  86.0040725   2.2151805  77.9744577
  86.4121498   2.4904204  76.5431309  28.6033869  92.9273415  52.5435543
  29.1012001  93.6990452  52.2735977  28.9954019  92.2054768  52.0521641
  96.4077224  85.3108406  44.4345808  96.7159118  84.7914410  45.1771975
  95.4604997  85.1734924  44.4229031  24.0582705  84.8162270  49.1166973
  24.4257593  83.9395523  49.0043402  24.4490528  85.3319550  48.4113264
  33.4770441 101.3976383  76.6317606  33.4454536 100.5058289  76.9780350
  33.7798858 101.9296932  77.3675871   6.6322111   6.2230921  71.9251204
   6.5198206   5.3666449  71.5126753   6.1737894   6.1478854  72.7620363
  59.7752370   2.4087668  48.8260221  59.8922743   2.3848868  47.8763056
  60.6315054   2.6679183  49.1664267  65.8116531  97.2215843  55.4580784
  64.9315023  97.1651649  55.8300734  66.2427425  96.4145660  55.7393503
 105.5294050   8.7643195  71.7595959 105.4177965   8.0353213  71.1493969
 104.6988596   9.2385722  71.7206430  68.0873775 105.9848976  47.4466896
  67.5773478 106.7870045  47.5594854  67.8467751 105.4406548  48.1964493
  66.8057955   6.4001990  52.7851915  66.2933768   6.2334586  51.9940805
  66.6345824   5.6432105  53.3454370   7.8155983  15.9443956   6.7873496
   8.7468660  16.1631113   6.7536086   7.7766121  15.1426321   7.3087710
  85.1433195  27.0597983  33.2080078  85.9400858  27.1383906  33.7326193
  85.2280630  26.2133933  32.7690911  74.5406961  92.8211212  42.8186417
  74.2889118  93.7416172  42.7443218  73.7942934  92.4025154  43.2474518
  84.1749586   0.6824256  71.1729527  85.1148952   0.5314780  71.2727785
  83.9696420   0.3459025  70.3006983 101.9901098  24.9998713  10.2997482
 101.0429014  25.1326133  10.3372276 102.3378957  25.5580760  10.9952223
 113.8009598  37.7408510  17.2810573 113.0133297  38.0676180  17.7159041
 113.8412907  38.2300382  16.4592856   3.2145545 104.7703362  44.2909193
   3.1822893 105.2751637  45.1035357   2.3656788 104.3300533  44.2486095
   1.2528543  98.7120724  24.5658731   1.5902480  98.2382107  25.3260398
   2.0027748  99.2115307  24.2427802  91.3989271   9.1504527  52.6158714
  90.5610002   9.2318869  53.0713654  91.6688503   8.2452822  52.7709341
  25.5720496 100.3536892  46.9332361  24.7258115 100.0941658  46.5688801
  25.3897643 100.5377674  47.8547144  57.2271347  85.5383110  74.9865484
  57.8540325  85.4920483  75.7084131  57.1698332  86.4708614  74.7784805
  75.9165991  22.2145415  47.4896765  75.8624304  22.4688483  48.4108829
  76.8546117  22.1275664  47.3199749  19.4103801  87.4814510  53.6863947
  19.5359230  86.7232418  53.1157923  20.2483416  87.9432964  53.6588621
  54.9062729  91.0234356  36.0387993  55.4377413  91.4850616  36.6873980
  54.6148539  91.7081738  35.4367733 109.6036538  90.9897518  60.0350809
 109.4378801  91.0053349  59.0924740 110.5553599  90.9196949  60.1097679
  45.2549553  75.8077049  88.8595581  44.4285297  75.3247738  88.8538456
  45.9278440  75.1301479  88.9256668  46.0389280 106.6699219  49.3520403
  46.6082191 106.1047554  48.8298035  45.2861691 106.1189938  49.5666742
  99.8945392  11.8016291  40.3773355 100.7335199  11.4760161  40.7033968
  99.2436470  11.2160922  40.7642651  29.5501995  91.9213867  43.2421017
  29.5659471  91.1947155  42.6192617  30.4647994  92.1941853  43.3150387
  26.5085697  72.4955988  71.7007637  25.9321475  73.0424309  71.1669636
  26.3901329  72.8221798  72.5926971  59.1814375  94.2004967  78.0798149
  58.9038134  95.1152802  78.0315590  60.1003408  94.2427254  78.3445168
  57.8838206  20.1794673  43.1706238  58.6929024  20.3565837  43.6504650
  57.3092855  19.7652388  43.8144875  41.0361242  85.3238201  70.9287834
  41.8871832  85.7189178  70.7394981  41.2438011  84.4364834  71.2215805
  62.8988028 104.4579411  49.7755766  63.5949802 104.9763870  49.3721199
  62.2374439 105.1015663  50.0296974  29.1815948  87.7962494  50.2489328
  28.6893463  87.8766632  51.0659122  30.0514913  87.5040531  50.5212021
  45.7289696  72.0823336  93.5155678  45.9460545  71.1561346  93.6216831
  44.9979734  72.0877361  92.8976345  47.5034809  97.9274940  19.3054533
  47.2332621  97.9568481  20.2232504  46.8331099  97.3966789  18.8752604
  68.8815069  99.6570396  23.3911538  69.7163057 100.0531864  23.1413221
  68.8110352  99.8200035  24.3317413  27.1239614  98.3030605  47.9454947
  26.7990661  99.1047478  47.5356483  27.9237032  98.5722160  48.3973837
  10.9303296  87.5417614  62.9048777  11.4981771  87.2808647  62.1798134
  10.0553179  87.2612667  62.6367140  26.3095164  89.2858601  35.0044870
  25.7505107  88.7311840  35.5486178  27.1165347  88.7821102  34.8987150
 110.5075611  14.2426825  40.3570843 110.5396475  13.4187079  39.8710108
 111.0921682  14.1041041  41.1022425  96.1429371  13.2489920  62.0243883
  96.9787706  12.8423453  62.2529697  96.1527933  13.2956458  61.0683775
   9.4293760  22.6871348  75.7703304   9.3142294  23.3925677  75.1336670
   9.7536444  23.1252242  76.5571928  79.0942860 107.8253078  71.2036753
  79.6490812 107.9428482  71.9747925  79.6407986 107.3375511  70.5875158
  16.8684196  92.9604626  39.5490527  16.1513317  93.5762978  39.3981481
  17.5333142  93.4746361  40.0070620  35.5361986 108.2613754  50.0928497
  34.7481441 108.7250233  49.8095942  36.2565088 108.7420082  49.6849585
  26.6604948  80.7748890  28.0599999  26.0809851  80.6720734  27.3051310
  27.4788475  80.3566360  27.7924323  41.9954157 109.8578644  66.0327959
  41.1647511 109.5935059  66.4281845  41.7920828 109.9763012  65.1049709
  72.4714327  76.5258312  90.1779652  71.7342567  76.2427950  89.6369553
  73.1859207  76.6636419  89.5560741  91.6959728  -0.1607274  82.2232628
  90.7901586   0.1473571  82.1945190  92.2132600   0.5884696  81.9277096
  42.7336121  79.4435024  61.0505342  42.1000767  79.2361546  61.7374611
  43.5166359  79.7247267  61.5238428  67.4670458  91.2988567  76.9916058
  67.0697212  90.4499054  77.1856546  68.3145094  91.2738323  77.4359131
  57.3345423 105.6021786  47.6644754  56.8407965 105.3417301  48.4420490
  57.7809715 106.4084148  47.9231596  45.8499765  83.7456703  63.5307360
  45.7916164  83.3458042  64.3984556  46.5537882  84.3894958  63.6105537
  24.4197965 108.4992313  59.0511608  24.2539263 108.7114334  59.9696875
  25.2073145 108.9959335  58.8290310  99.7551740  24.1778613  50.1708460
  98.9154972  24.0496398  50.6121302 100.0316681  23.2961226  49.9212170
 112.3850836   7.8596259  66.3685560 112.9067100   7.3954726  65.7138014
 112.7746643   7.6095343  67.2063589  70.0586700  82.1744537  63.9966106
  69.8988724  81.3572502  64.4687033  70.6039381  82.6911163  64.5898962
  53.5984458   3.0561496  74.3981457  54.4788159   3.2495356  74.7202921
  53.1597055   3.9065600  74.3749571  15.7112253  59.9720049  12.1842098
  16.4185917  60.5896425  12.3696578  15.0436604  60.1679754  12.8416181
  54.1737556 106.7740345  45.4140711  54.9828720 107.1678066  45.0877237
  53.6540890 107.5159836  45.7234049  34.8899913 105.5795670  58.8566399
  34.0486765 105.1621723  59.0415955  35.0406623 105.4128361  57.9261923
   0.3505457  55.2204137   6.8724460   1.1301863  55.5818277   7.2940749
   0.6926787  54.6679121   6.1696547  62.0174122 104.1584206  58.4524870
  61.5106678 104.9704552  58.4593201  62.7431726 104.3340397  57.8536034
  65.9890795  75.1384640  65.8554983  65.2642918  74.5132732  65.8627319
  65.9865618  75.4978275  64.9683237  88.9892782   9.2711592  61.3693666
  88.3757604   9.2901469  62.1038532  89.6767009   9.8901320  61.6154385
  44.1029024  87.5200653  49.4019079  43.9601612  88.1010914  50.1490736
  43.3938789  86.8794441  49.4577885  77.5849570  12.6531077  69.4672537
  76.7135371  12.4361277  69.7985792  77.7010835  12.0828677  68.7072754
  53.5240459  92.4697304  61.5476227  53.1336260  91.8023872  62.1119452
  53.2653189  92.2155571  60.6617975  46.1659956  96.2511158  75.7150698
  45.2285480  96.0923862  75.8256578  46.2317085  97.1914673  75.5487394
  42.1627188 107.3005962  75.1851034  42.8960180 106.7657280  75.4891205
  42.2298479 108.1095695  75.6923342  90.1845802  13.6199046  20.6172585
  90.0831999  12.6682997  20.5970478  90.3863825  13.8199092  21.5313172
  22.5266743  87.0001698  58.1811857  23.3989930  86.7661381  57.8641272
  21.9851947  86.2376213  57.9773569  95.5423511   7.7339698  19.5940125
  95.3325952   7.1916438  18.8336766  95.1957859   7.2446776  20.3401470
   3.8966345   0.4715396  23.2469869   4.8096632   0.6439353  23.0170131
   3.5174536   1.3389350  23.3886957   1.8525051  30.8149291  61.2723732
   1.8834757  31.3468409  60.4771757   2.5521254  30.1717902  61.1577368
  83.9910759   9.5391703  56.8397093  83.1062139   9.9026824  56.8063879
  84.3289531   9.8092318  57.6936054 105.5853475  16.5361930  78.0074549
 105.5024637  15.5830909  78.0382395 105.0392450  16.8003131  77.2670174
   7.2213625   2.2410823  91.3199997   7.0588373   2.6581050  90.4738808
   6.4419054   1.7084933  91.4781761  59.0587510  42.0913459  23.1736565
  59.9394168  42.2183371  23.5265470  58.8371147  41.1885787  23.4019732
  35.9350395  81.8693066  63.1569195  35.2400279  81.2161636  63.2381248
  35.5506611  82.5626373  62.6204681 114.9242128  17.8328181  30.8953309
 114.7130073  17.5112773  31.7718244 114.3189872  17.3680735  30.3174424
  83.7464632  16.7860175  61.8235016  83.3386100  15.9893943  61.4839554
  83.0117525  17.3706866  62.0094919  48.6319447  91.8212128  42.9215527
  48.9321089  92.4969101  43.5294771  47.8928804  92.2219563  42.4639320
  84.7438622 103.7890244  77.3927021  84.5369053 104.4001770  76.6856766
  84.5782089 102.9240322  77.0177603  95.9422220  15.8394671  16.9738257
  96.4014925  15.0122786  17.1189177  95.7493032  15.8450652  16.0362840
 110.1085628  35.2791167  51.0495663 109.8589863  35.4059363  50.1342201
 110.5253805  34.4176150  51.0670233   1.5048956  24.6040679  61.9418812
   0.9641337  25.1150370  62.5441360   1.0319065  23.7785388  61.8369198
   4.7260260  30.2885390  82.5321960   4.0569662  29.8339415  83.0439854
   5.3461336  30.6145240  83.1844616  44.3917782  10.5419207  15.6924427
  44.7780992  11.4143611  15.7688642  43.7544681  10.4989005  16.4053357
  96.6484655  16.0633326  42.1582890  97.1395029  15.4498912  41.6116571
  96.7415966  15.7198191  43.0468559  74.9461330  11.7065573  78.9893961
  74.6111406  12.5556613  79.2775393  74.2951406  11.3927127  78.3617449
  71.7386903  14.1284800  63.8741112  70.8928121  14.4516421  64.1844225
  72.0267047  13.5197497  64.5543528   8.8496183   9.9526549  62.7079391
   9.6796679   9.5348502  62.4784184   8.1895899   9.2782069  62.5475645
  83.0038847   3.8482428  68.2611227  83.2505478   4.5699740  67.6827812
  82.2484173   4.1784430  68.7474012  97.0278515  10.5789233  22.5816965
  97.8679193  10.8534957  22.9492831  96.3768161  10.9017039  23.2047486
  55.9433294  29.5384551  68.5100508  55.1276220  29.2869330  68.0769348
  56.6320254  29.2347098  67.9187250 104.4286979  14.8670912  28.7077165
 103.7042249  14.5941306  28.1448102 105.1661457  14.3241072  28.4291792
  16.7357706  20.9417678  35.1224923  17.5044607  21.2106753  35.6255245
  16.3914084  21.7567874  34.7572732  18.7469625  96.8171120  36.6260362
  18.7642121  96.8853092  35.6714249  18.2696748  96.0057545  36.7996049
  52.5896215  98.7915039  55.3733540  52.9302216  99.5241165  54.8600197
  51.7233229  98.6219692  55.0032043  92.1970857  20.2178050  11.1050665
  91.3615526  20.4977370  11.4789033  91.9555153  19.7254325  10.3205645
   5.8853191 103.8316631  63.7402916   6.8412644 103.7854481  63.7565184
   5.6219649 103.6625576  64.6448803  71.2821341  93.4674168  19.2983162
  72.0330191  93.4758854  19.8918915  71.2342167  92.5640202  18.9855862
  35.4652357  99.2370224  69.5180321  36.1260223  99.6890831  70.0426531
  34.9105453  98.7948513  70.1607084  69.1207327  13.1821871  41.6787386
  69.2995561  13.2496882  42.6166630  68.2567848  12.7731562  41.6284609
  44.7788668  88.8256550  29.4354224  44.1662693  88.1019306  29.5664668
  44.2559004  89.5092583  29.0165973  93.5980034  92.3984432  74.2268181
  94.2335510  92.0948601  74.8750067  94.0578365  92.3298359  73.3901167
  87.3561096 105.7920647  81.0717869  86.5948963 105.3153896  81.4027691
  87.9286480 105.1121330  80.7166386  97.6828970   2.9190875  64.3740177
  97.0741905   3.4229995  63.8338470  98.4540857   2.8011752  63.8194036
  12.5249791 102.0931721  46.1881733  12.3186231 103.0136395  46.0257387
  11.6743624 101.6542339  46.1928892  45.5952120 105.0120449  71.1474705
  45.4163313 105.2115250  70.2285337  45.1062155 105.6742764  71.6358995
  59.9212159  26.0185481  36.4824152  60.5568255  25.8432818  37.1763277
  60.1426018  26.8961478  36.1708999  94.2145265   2.6888705  64.2200375
  93.3624948   3.0564357  64.4549179  94.4746841   2.1782542  64.9867344
   8.7594198   8.1891394  59.7003555   9.0507292   9.0982581  59.6305227
   7.9208540   8.2408953  60.1590014  67.6176167  85.0586796  33.3405256
  68.2012892  85.3944683  32.6602316  66.7657328  84.9850464  32.9102850
  30.6406283  73.3181858  72.8895378  31.2130857  72.8665686  72.2694063
  30.6462860  74.2305326  72.6000309  72.5693644  11.0362006  74.3769503
  73.3581055  10.9650374  73.8393116  72.4821294  11.9733287  74.5513535
  63.2042980 109.4076443  58.5653019  62.4761724 109.9678516  58.2965469
  62.7865505 108.6040401  58.8750458  35.1611710  84.7249985  75.0913525
  36.0846996  84.5277691  74.9350452  34.6865344  84.0575695  74.5958805
  99.2336668  30.0093795  81.8015003  98.3527578  29.6427012  81.7254543
  99.1808857  30.8541346  81.3544750   4.8475432  13.8020945  46.5563345
   5.6374811  13.3269549  46.2985039   4.8569655  13.7809993  47.5132561
  30.4790377  21.5272570   6.5093821  30.0357031  21.8555976   5.7271552
  29.7780680  21.4101840   7.1506089  80.0408554  91.2160873  67.8264904
  80.7770252  90.9095764  68.3559561  80.1749706  92.1610737  67.7540779
  59.5411444  88.4489918  88.0951691  58.6938334  88.7280750  87.7481747
  59.3327332  87.7177715  88.6766529  25.2727115  75.4277044   2.8596324
  24.6333683  74.8676592   3.2998771  25.0891340  76.3068777   3.1906718
  26.7538881  99.6046734  24.1401696  25.9039998  99.9009895  23.8144135
  26.8189025  99.9819183  25.0174856  65.8888388 107.6255512  64.6462965
  65.8963537 108.5822296  64.6156168  65.0924826 107.4076939  65.1306391
  61.8585790   0.1218940  38.1495738  62.2861637  -0.1182126  38.9716172
  61.1697234   0.7342673  38.4078503  75.1596035   7.1903277  79.8011827
  74.8018016   7.5537158  78.9911461  74.7791423   7.7298403  80.4942989
  97.0600033  81.9042587  36.3303304  96.2854195  81.8433762  35.7712746
  96.8477726  81.3662624  37.0930552  50.8138895 106.4486790  69.3012047
  51.4758396 105.8769321  68.9124107  50.4659653 105.9459877  70.0377417
  58.8942099 104.9954414  60.3493118  59.5465231 104.3030643  60.4557467
  58.9540482 105.5069637  61.1561584 115.4607071  11.2852240  41.4069939
 115.1541532  10.5103255  41.8779421 116.0936941  11.6907740  41.9995165
 102.7181305  31.9493151  30.4049683 102.3097910  31.1883403  30.8177686
 103.6307729  31.6909934  30.2761674  79.6823883  92.0024014  34.3658304
  79.5968962  91.6667271  35.2581573  79.2355633  92.8487015  34.3844557
  78.6581505  32.0785762  47.6565742  77.9580153  31.5972949  47.2156429
  78.8042678  32.8473712  47.1053648 105.6238140  32.4624587  43.8596106
 105.0492490  32.9098082  44.4808865 105.9649481  31.7121554  44.3463373
  99.6751417  18.5430957  44.2689371 100.2216877  18.9584780  43.6018658
  99.5360340  19.2267276  44.9243259  81.0381759  47.0807028  56.9401264
  81.7585767  47.1179629  57.5693035  81.2111343  46.2931109  56.4243555
  69.1271639 106.8935776  70.3183508  68.3795118 106.5092373  70.7760906
  69.5347500 106.1561871  69.8640776  94.1753483 102.7184772  51.5681076
  93.3840466 102.6491833  52.1022081  94.7702503 102.0647240  51.9354343
  32.3115253 104.8281860  48.3743572  32.3961902 105.7077503  48.7423706
  32.2756457 104.2516422  49.1376019 106.8547643  25.3015853  56.8757296
 107.1159137  25.8855963  57.5877428 105.9762634  25.0078154  57.1169090
  60.3726281  19.2985011  79.9765921  60.5988325  20.2212668  79.8600626
  61.0596884  18.8226939  79.5099163  71.0670900  91.0584641  67.8685045
  70.6081533  90.2370930  68.0444574  70.3810024  91.7255783  67.8901768
  86.8998207  17.3071719  68.6382294  86.6832937  18.1324053  69.0721941
  86.4616455  17.3610068  67.7889156  26.7206383  63.5196066  67.9044199
  26.3706756  62.9450798  68.5853577  26.6768837  62.9965782  67.1039486
   2.1031117   3.9249373  76.0758114   1.8955635   4.6385337  76.6790771
   2.9464792   3.5907412  76.3812494  54.8314476  84.3720245  58.0000687
  54.4089937  84.7813606  58.7551880  55.6421852  84.0027714  58.3501911
 109.6052612  27.4383498  64.2521191 109.7253908  26.9954348  65.0921345
 109.1218723  28.2356311  64.4687033  53.5541868 104.8473644  48.5318518
  52.7832890 105.2497387  48.9318991  53.2238483 104.0434647  48.1307793
  70.5894483   6.0223246  24.0080667  70.0057090   6.4413119  24.6404696
  70.2349747   5.1393748  23.9033222  93.0683864   9.0932799  33.0015588
  92.2787965   9.1840220  33.5349870  93.6623062   9.7650004  33.3366442
  80.5137218   9.5437766  18.2264292  80.4011692   9.4255591  17.2832477
  81.4011825   9.8899604  18.3202088  87.0376457  16.1817408  91.2024117
  87.2231973  16.2943888  92.1346760  87.9003061  16.1198188  90.7922745
  91.9483055  11.9550753  39.0742970  92.5228943  11.4058161  39.6075845
  91.1035598  11.9248439  39.5234299  70.0598301  20.8455802  46.1351919
  70.7268823  20.3113509  45.7040739  69.2313017  20.5345393  45.7704687
 110.7070411  15.4853392  85.9969997 111.3401235  14.7723914  85.9124279
 110.1216234  15.2036811  86.6999817  90.8819545   3.8464022  58.0903816
  90.6107773   3.0024195  58.4514809  90.0615801   4.2859984  57.8668499
  57.5163841  99.5333385  63.3888531  57.8321838  98.6460209  63.5596228
  56.5939140  99.4193935  63.1601763  78.0918873   0.2466822  71.8008709
  78.5212554   0.0790644  72.6397848  78.1055368   1.1995555  71.7109871
  81.4651502  11.8247843  84.9792862  81.6775812  11.4048339  85.8127975
  81.0097994  11.1475230  84.4790649  65.3301334  85.4794216  32.0270181
  64.6956778  85.5008984  32.7434254  64.8002672  85.3414059  31.2418890
  95.2079309   1.1981440  50.2854729  94.5130552   0.7505656  49.8027182
  95.1340402   0.8618022  51.1785793  13.1245588  32.6416732  63.8128138
  12.6915144  31.8616343  63.4660339  14.0591120  32.4439860  63.7515593
  71.2029648 108.0668354  30.7851052  72.1322870 107.9698849  30.9929276
  70.8780956 107.1691227  30.7158494  36.0481954 109.0454483  46.9932270
  35.1682425 109.3817139  46.8234158  36.4529586 108.9858627  46.1278677
  96.7587579   5.5672885   6.4979953  96.4750637   5.4510356   5.5912250
  96.4612163   4.7751666   6.9454771  99.2469801   9.2940951  80.2905750
  98.5431207   9.4415904  79.6588612 100.0506605   9.3757868  79.7770977
  68.1387901  90.2932644  73.7228918  68.2941484  90.5496407  74.6319342
  67.9220629  91.1119747  73.2768250  80.1346792  24.5585871  42.8736210
  80.9642709  25.0190497  43.0000639  79.6783413  25.0669718  42.2031498
  72.4883546   0.5765582  46.5799427  72.7030195   1.4540244  46.2633896
  71.8206180   0.2592898  45.9719133 108.7359428 104.7168446  20.8358860
 109.4652176 104.1946411  21.1700916 108.5951900 105.3872013  21.5044928
  75.7636203  37.0840884  18.2849097  75.8088554  36.2663794  17.7893841
  76.0326637  36.8422938  19.1711295 102.5878061  16.4195586  32.5994802
 102.3723091  16.4365817  33.5319519 103.5428919  16.3606787  32.5754166
  51.6533804  98.7486076  69.1731787  51.6376638  97.8806782  69.5765257
  50.9337139  99.2205238  69.5922279 110.2002634  13.3712626  43.6134863
 109.9381412  12.5923777  43.1227112 111.0640730  13.5937072  43.2662392
   9.2304295   5.5511332  58.7720299   8.3429015   5.4453099  58.4294987
   9.2093033   6.3870907  59.2378187  10.8905613  28.1609249  61.5022898
  10.9010804  27.8040791  60.6141567  11.6037631  28.7992620  61.5123987
  98.2223572  21.0276723  52.0362663  98.9680698  20.5543208  52.4051571
  98.3088913  20.9110022  51.0901499  14.0103698  16.7011976  54.9723673
  13.1908560  16.7086804  55.4669094  13.7412798  16.5576935  54.0650463
  31.1293006  35.2527237  60.5343342  31.0363340  35.2673244  59.5817709
  30.9457707  36.1518145  60.8067036  28.5813546  10.4700565  60.2285051
  28.4820366  10.0075340  59.3963718  27.6873422  10.6963956  60.4849100
  91.2196340  13.6039925  76.9310188  91.5484872  13.7372005  77.8200340
  91.5381398  14.3624902  76.4416695  49.6152521  77.4531083  15.7445067
  49.4259323  76.5694981  16.0601348  50.4783393  77.3819976  15.3367633
  15.1374412  49.8623466  57.2075605  14.3861485  49.9228382  57.7975893
  15.5963767  49.0693665  57.4846697  59.3402267 108.5109984  37.7928805
  59.5372594 109.1500523  38.4777308  60.1802576 108.0907362  37.6086020
   1.9054598   3.3080614  55.0865650   2.5279707   3.4565544  54.3747663
   1.3685778   4.1003188  55.1043940   5.3712034  27.5126386  55.6252909
   6.2090290  27.4566698  56.0847998   4.8805779  28.1818557  56.1024380
  95.0253559 106.7231547  65.1732826  95.4637254 105.9980296  65.6185436
  95.6446947 106.9987746  64.4974995  13.2901776  12.4712300  44.1452599
  13.1324375  11.7140794  44.7092390  14.2385745  12.5975919  44.1736555
  99.6791710  20.8949137  34.8996854  99.3155219  20.8524370  34.0152717
 100.5526533  20.5120134  34.8181462   3.4923425  44.0357494  18.4894335
   2.7005845  43.6818075  18.8944972   3.2497507  44.9230003  18.2245350
  92.3648632  95.8061039  39.4598532  92.1632172  96.1086273  40.3453207
  92.5218261  96.6087233  38.9624643  19.8500860  47.8749657  79.0681076
  19.1142344  47.3395634  78.7712955  19.5780647  48.7753868  78.8906956
  17.1796596  28.0347061  74.4424152  17.5603521  27.4817872  73.7600756
  16.2917590  27.6961160  74.5573950 105.0018634  57.0529270  62.8189850
 104.5154490  56.4665890  62.2394657 105.2993216  57.7613688  62.2481394
 108.7115928  12.5560081  16.8108952 107.8279408  12.7058494  17.1469581
 108.6145135  11.8266702  16.1986268   4.3349579   6.8125802  27.2671723
   3.8260132   7.3995578  26.7080069   3.8150969   6.7331451  28.0669641
 110.6761231  50.6837463  20.3047943 111.3530894  50.1082611  19.9487507
 110.4772492  51.2897635  19.5910513  14.8541498  26.6765237  75.3976631
  14.2235339  27.0976329  75.9818029  14.3147790  26.2066197  74.7616577
  16.3404322  65.4431343  42.7541256  16.1950099  64.5915079  42.3420334
  15.5545223  65.5921555  43.2798338  92.6546921  33.2460308  15.4079962
  93.5515585  33.5620189  15.2983689  92.4071231  32.9226446  14.5417631
  72.0526696  82.7973913  43.2425594  71.7495025  81.9078540  43.4243441
  72.4737627  83.0776738  44.0551805  94.9781813  19.0386963  57.8599501
  95.7306018  18.4966636  58.0972195  95.0230493  19.1064513  56.9062042
  24.6047926  55.9349108  60.6643629  24.1312718  55.9171629  61.4960480
  25.3378439  56.5307474  60.8187866  46.5019029  85.9582776  86.6321319
  45.9841978  86.3749666  87.3210329  46.3957816  86.5314574  85.8728975
  38.7387037  50.3648520  24.8455858  38.3726573  49.5017385  24.6525025
  38.8336802  50.3771353  25.7979846  12.8135705  12.7868760  65.5659056
  12.5874591  13.6940730  65.3607225  13.6845827  12.8402197  65.9592533
   0.1450333  28.7468529  60.3562546   0.6407037  29.5657134  60.3592300
   0.7874898  28.0788565  60.1169538  31.1336040  33.4029198  22.3356533
  30.3176475  33.5986876  21.8750834  31.6641021  34.1925240  22.2292137
 104.6501317  31.5133691  49.8330688 105.0580361  30.6474757  49.8415184
 105.3288068  32.1010852  50.1650667  90.5835141 105.2199885  52.2712994
  90.3846193 106.1235737  52.5166702  91.1239375 104.8902600  52.9892492
   3.7376460   5.1666576  85.0555325   3.2081494   5.9516823  84.9155235
   4.3680465   5.1713586  84.3352509  28.6295700  44.0964127  61.7728710
  27.7957034  43.9303207  62.2125435  29.1900873  44.4670963  62.4545240
   6.9065267  52.4063158  42.0149755   6.4730066  52.0408583  41.2437868
   6.4536297  53.2343817  42.1744394  16.5797746  53.8427877  15.3073287
  16.4066863  53.5656500  14.4076264  15.7698929  53.6466932  15.7783604
  31.6113448  30.2842546  36.4848280  31.8321180  29.4835854  36.0089946
  30.6971836  30.1653767  36.7425275  19.1091800  35.5215645  14.9004900
  18.6105156  35.5961728  14.0868556  19.8755908  36.0784388  14.7636068
 115.1953371  22.1724296  47.5336933 114.2914115  22.0080972  47.2650957
 115.6815836  22.2364497  46.7116833 115.1702948  25.3457618  79.7656822
 116.0924496  25.5324960  79.5896339 115.0033297  25.7467246  80.6186676
  21.4529467  38.1286049  33.9531898  20.5086684  38.2708502  34.0190458
  21.6065788  37.9677773  33.0221891  44.3496180  92.1968376  60.0026751
  43.6886908  91.5075897  59.9367714  45.1158811  91.7592215  60.3735733
  93.7973585  39.7014308  87.1612167  93.2095899  39.2049861  86.5917397
  93.2333555  40.0254345  87.8634739  87.6772632   9.5634890  67.8200531
  87.0311727  10.0584948  67.3162985  87.2246422   8.7553918  68.0615997
  80.7494248 107.2749838  31.5305185  80.8839048 107.6119477  30.6447411
  80.6034372 106.3366615  31.4102244   6.7204696  33.2226133  66.6354847
   7.6614606  33.1584024  66.7987156   6.3373333  33.3745074  67.4994087
  16.8735600  38.5786915  36.0462284  16.2541127  39.1998410  35.6632257
  16.4437091  37.7277899  35.9600520  99.0790918  31.2447572  24.7593355
  98.8542034  30.5738306  24.1147327  98.2618239  31.7216825  24.9037242
   0.2398564  22.5342298  39.9550533   1.0226057  22.7947426  39.4695973
  -0.2971030  22.0703769  39.3126011  15.6258976  40.3282404  25.9499288
  16.0937142  41.1557436  25.8376050  15.1399434  40.2150393  25.1330662
   7.1149617  14.3180239  48.5518789   7.7837050  14.2085910  49.2279243
   6.2853527  14.2865705  49.0283155  13.4458137  22.7893949  47.3081875
  14.3571031  22.8226709  47.0171928  13.0765438  22.0325971  46.8530750
  24.7281861  20.5809283  77.2615957  25.2608442  20.2742052  76.5278196
  23.8249564  20.4692960  76.9650364  85.5082137 105.2678924  45.7736111
  86.4178927 105.5615472  45.8234453  85.0266541 106.0325208  45.4578972
   1.0604258  13.0077028  45.5857372   1.3730477  13.8269031  45.9696770
   1.8526384  12.5743437  45.2681971  99.4234612  31.0494637  71.5380526
 100.2633168  31.0437751  71.9972277  98.9388635  30.3156161  71.9160223
  40.2711010  33.8286257  41.7414999  40.4476357  33.2342052  41.0123014
  41.1180925  34.2315626  41.9324923  27.1086597  47.7107620  76.6219044
  26.9730139  48.3632851  77.3089600  26.4085174  47.0720911  76.7565632
  55.7794046   3.7627718  80.4950047  55.3083181   4.5890674  80.3875446
  55.0975990   3.1234714  80.7015610  24.7079659   7.8204525  38.0457687
  25.5181289   7.3619777  37.8229070  24.2065072   7.8306842  37.2304988
  34.3226814  21.5532374  41.9651747  33.7446094  22.2367716  42.3040628
  33.8925385  20.7334566  42.2084236  18.3483958  16.0173821  63.6148405
  18.9807510  16.3483882  62.9770374  18.8744020  15.8060527  64.3861294
 101.2822987  80.1844930  75.7529068 101.6399551  79.5101117  75.1753902
 101.3232876  80.9889793  75.2358437 110.1656242  11.8093741  39.2120671
 110.3526260  11.4190292  38.3583140 109.2878487  11.4968002  39.4312477
 102.1543886  26.7055821  44.6603107 101.2860086  26.3735390  44.8881149
 102.6829877  26.5506840  45.4431391  95.1419248  26.5931678  30.3305364
  95.7263698  25.8644724  30.5394816  94.7617759  26.8442750  31.1723566
  28.0801344  13.1972730  67.0887327  28.9181542  12.9375434  66.7059898
  28.3178735  13.6847627  67.8774452   6.8450528  34.5933437   6.3967353
   6.4261931  33.9692664   5.8040148   6.7632753  35.4373479   5.9526646
 106.0653903   4.5956460  14.3689585 106.0742333   4.4850054  13.4182155
 106.8020501   5.1797330  14.5489764  90.8503451  34.9112611  10.8770675
  90.2996173  35.1110464  11.6340465  91.5703287  34.3919473  11.2350768
  62.5566460  99.6099352  43.1611443  62.1814943  98.7690913  42.8994703
  62.8723122  99.4642150  44.0529680 106.4899512  37.2106504  67.2072649
 107.3150237  37.4327803  67.6387119 106.6904636  36.4265919  66.6961098
   8.2310390  41.1082315  58.1704760   7.5131780  40.8296680  57.6018763
   8.0908459  42.0474672  58.2905293  79.1998590  90.2823042  26.8996167
  79.9964702  89.9598264  26.4781308  78.5046812  89.7177767  26.5615797
  73.6625508  92.9694032  56.4406204  73.7904433  93.7420403  56.9909954
  74.5469654  92.7111244  56.1811352 103.7165453  23.5335803  79.7422075
 103.5109605  23.8194418  78.8521242 104.3496134  24.1772342  80.0602722
  31.3801670  26.4848566  41.6099262  32.0675254  26.0670304  41.0910892
  30.7723308  26.8393922  40.9610271  99.8795762   4.0925065  36.6274500
  99.8017206   4.4426185  37.5149131  99.8025860   3.1446379  36.7363048
   0.3530289  25.7956028  57.1376467   0.6919165  26.5811515  56.7083406
  -0.3485002  25.4916477  56.5617132  50.9640980   1.5785205  93.4378242
  50.2631998   2.2092375  93.2730007  50.5093670   0.7517399  93.5987091
   7.1164054  58.2645035  67.2016478   6.4044321  58.6913443  66.7250633
   6.6946042  57.5404978  67.6643896   6.4607310  59.1866207  43.4081411
   6.2447721  58.2630062  43.2795668   5.8472067  59.6568823  42.8436327
 102.0753052  48.2002068  56.2320805 102.3679890  47.3507214  56.5621471
 102.1105625  48.1121445  55.2795887 115.0954891  42.3986435  79.8934698
 114.6152512  42.2776031  79.0743542 115.4242873  43.2964420  79.8479223
 109.5154591  48.9792395  34.6169162 109.4085987  48.5042477  35.4410481
 108.6836680  48.8556671  34.1596580 103.5383703  40.3377199  57.9525805
 102.7787270  40.8979464  58.1117010 103.3435025  39.5295095  58.4269857
  75.0788107  12.3263288  70.2805710  74.7583904  12.9273939  69.6080494
  74.2897596  12.0366824  70.7385349  10.5861962  85.4489231  39.8058653
  10.9362674  85.1071644  40.6285954  10.5552626  84.6889782  39.2246914
   8.1493068  38.8661313  50.1118279   7.6233816  39.2713928  49.4223356
   8.4183592  39.5967984  50.6685734  17.7703810  47.2718668  44.9870062
  18.4365499  47.8369713  44.5957136  18.2428908  46.7679453  45.6496000
  49.0565014  32.1190166  78.2524014  48.9507151  31.7034817  77.3966169
  48.1694794  32.1605825  78.6097574   2.9271322  16.1643481  40.9788895
   3.3080056  16.5188539  40.1754618   2.4791084  15.3659260  40.6995535
  27.5776577  71.5784597  21.3423896  27.8176641  72.4889612  21.5144968
  28.1968331  71.2902164  20.6717420  13.1463182  34.2625809  49.6598244
  13.3344436  33.6166358  48.9789438  12.1906161  34.2920947  49.7044754
  76.5617456  47.5448942  46.4402151  76.1535492  46.6871452  46.5580273
  77.1091618  47.4446917  45.6614161  23.6166096  51.9995785  26.4722586
  22.8338861  52.3119307  26.0183764  24.3039131  52.6141357  26.2150335
 102.7552404  17.5996637  45.8011675 103.5533394  17.1929383  45.4637623
 102.1131696  17.4845636  45.1006508  99.4159820   7.7101082  42.9699802
  99.9758949   7.8808814  42.2126389  98.5541954   7.5291067  42.5947523
 107.8515776  24.3537426  53.3083725 107.2746434  23.6895704  53.6855364
 107.4513473  25.1872325  53.5560465  19.7866273  15.8774984  65.7475090
  19.4487917  16.0967600  66.6158533  20.7326412  16.0044193  65.8194923
  25.1671958  28.8468027  25.3851843  24.8763633  29.5380926  24.7904015
  24.4815826  28.1809664  25.3320098  91.2457981   6.7265725  53.6924314
  91.2803163   7.0351410  54.5978737  92.1209421   6.3767982  53.5250664
  16.9879699  30.3379393  21.4163542  16.3975465  30.9722185  21.8229508
  16.5099108  29.5093846  21.4508247   1.2739186  49.1898251  83.7775421
   1.8063813  48.4687328  84.1133118   1.6721921  49.4096947  82.9353619
  21.7787766  18.6335874  43.9877033  20.9017301  19.0146494  43.9451265
  21.9662976  18.3631063  43.0888700  84.6889534  70.2128696  31.3688159
  85.5341448  70.2467394  30.9207797  84.5082726  69.2782354  31.4690185
 115.5464421  54.3498564   9.7440779 115.9941738  55.1557446   9.4865727
 115.5109356  53.8287878   8.9419186  20.4068470  51.5906334  10.6298888
  20.5233812  51.7329788  11.5692437  21.2020397  51.1333036  10.3564799
  20.2582240  51.3198328  19.5740175  19.4518030  51.1229897  19.0973926
  20.9531474  51.2085104  18.9252329  10.5904102  10.1965392  53.9154625
  10.8902228  10.9812307  54.3743753   9.9797291   9.7814697  54.5245743
  43.6365700  54.2681980  26.1223292  43.7571478  53.6646032  26.8553805
  44.3709278  54.8782873  26.1911345  40.1104546  41.7245293  38.5009861
  39.3336439  42.0701218  38.9407229  40.7633209  41.6438866  39.1963196
  80.1027445  84.8496246  81.3488960  79.2697508  84.3801617  81.3046265
  80.3713290  84.7750615  82.2646046  31.2682486  34.0448093  65.4203224
  30.8104825  33.2206750  65.5860949  31.8078589  33.8682556  64.6496868
  96.4422502  17.0922077  51.2953043  97.3857381  16.9979441  51.4263678
  96.2642517  18.0124831  51.4893150 114.8527380  44.4517088   8.2514781
 115.3546221  44.5005798   7.4378711 115.2602472  43.7377119   8.7417531
 108.5340520  41.7724466  50.9923220 107.7594628  41.8624115  51.5474367
 109.1799571  41.3397551  51.5507269  93.9313259  42.5460911  33.3677769
  93.4672656  42.4905109  32.5324368  94.8132505  42.2288227  33.1733966
  23.7996387  54.5952511  31.9095445  23.9285564  54.0317631  31.1465955
  24.6716452  54.9391317  32.1034050  20.6829643  21.6724706  27.7350831
  20.6950521  22.6295352  27.7243257  20.4754066  21.4457369  28.6415839
 107.3591473  48.1691074  32.7849817 106.5587898  47.8845644  32.3437381
 107.3409714  49.1240406  32.7217317   0.7143471  47.2128916  52.0155811
   0.2727387  47.7628422  52.6627016   1.3943321  46.7576742  52.5121975
  79.3058862  62.1172714  42.5543594  79.0298452  61.6362619  41.7741919
  80.1571288  62.4865770  42.3193407  32.9124665  40.4356813  32.6556396
  33.6300516  39.8139048  32.5344086  32.5419807  40.2104425  33.5090089
  12.0542765  49.6987152  11.6034341  11.5725768  48.8869810  11.4444172
  12.4241447  49.5900297  12.4795711   5.2587706  18.0252159  58.5843372
   5.6759155  18.6717832  58.0149746   4.3500397  17.9935670  58.2852745
  11.9332671   1.9466686  55.5215693  12.2704506   2.2345154  54.6732283
  11.5775919   1.0738855  55.3543043  21.7590952  60.1056910  51.2432241
  22.3374391  60.1955223  50.4858112  22.3482537  60.1201153  51.9974899
  44.3369627  14.5530200  76.4016771  43.4592772  14.2182267  76.5855598
  44.9262381  13.8791001  76.7405272  98.0971017  33.4424067  57.4317646
  98.0293502  33.3946443  56.4781618  97.1896472  33.4635448  57.7355957
  37.5931191  14.8229003  68.3948803  38.3445454  15.2170575  68.8378572
  37.6131082  13.9037371  68.6612892   2.2742711  10.6803930  48.3315992
   2.4405338  10.3740060  47.4401331   1.6516590  11.3996422  48.2254553
   1.7726000  45.9757614  15.2391148   1.4628841  45.7207584  14.3700457
   2.7126288  46.1168289  15.1265180 114.0986422  31.2635684  41.9138384
 114.8126568  31.8909669  41.8007708 113.3287530  31.8054652  42.0866108
 101.1037459   2.8543416  22.5344372 101.0202183   2.4570665  23.4012866
 101.9720509   2.5884831  22.2317863 107.8819468  53.8389158  36.9186687
 108.4660502  54.5703220  36.7184258 107.5140013  54.0539551  37.7757597
   8.3052695  53.2723331  50.3702641   9.0914619  52.8693771  50.7387161
   8.5982180  54.1291714  50.0600338  52.4589872  42.0383692  38.9951611
  53.2819462  42.1942234  38.5318232  51.7821121  42.1648693  38.3302784
  17.3179734  21.6852713  42.8517818  16.4837027  21.2429571  43.0085707
  17.9774082  21.0800552  43.1910372  67.3611916 106.8937486  43.4048653
  67.3253656 106.3825869  44.2133570  67.4943388 106.2429177  42.7157164
 100.8777692   8.3402884   8.9717054 101.2104108   9.2012650   9.2252839
 101.4905622   7.7206439   9.3676317  33.4366131  24.0286779  53.8772297
  33.0638194  24.0274715  52.9956102  32.7348781  23.6920905  54.4344616
  42.6947737  36.3057184  40.5957365  41.7567015  36.1620569  40.4708004
  43.1136131  35.6277728  40.0654554  32.8456378  37.4766755  19.5786977
  33.6503863  37.9933572  19.6193552  32.9509783  36.9301653  18.7999415
 107.9561027  25.7428980  35.7329369 108.8351299  25.7273746  35.3543830
 108.0623104  26.2015152  36.5663767  35.5976653  40.3409863  24.2180777
  35.8139372  40.5786514  23.3164287  35.5933738  41.1733437  24.6907210
  46.2617207  25.6703162  41.4538479  46.6369581  25.4132938  42.2960854
  46.4227009  26.6121888  41.3973475 103.0963494  20.7535815  73.1966114
 103.1630911  20.6930208  74.1495609 103.2513799  19.8607087  72.8884315
 110.3598603  47.1211576  20.3720021 109.5798673  46.5663242  20.3734994
 111.0918977  46.5053463  20.4056168  11.3035870  45.9776402  39.9350905
  11.0196292  46.8243504  40.2795982  11.7636168  45.5639696  40.6654882
 108.8280358  19.1072226  41.5392971 109.0617939  18.1831515  41.4516544
 109.6255710  19.5264184  41.8624783 104.5533504  13.5957801  50.6718731
 104.2786302  13.3120549  51.5438032 104.8951068  12.8029037  50.2586174
  16.5803623  22.3961854  57.4930477  17.0614505  21.5779400  57.3695040
  15.9481573  22.4131489  56.7745352   8.3384818  67.8512907  39.0953040
   8.2833016  67.9636240  40.0442886   9.1366661  68.3165932  38.8450503
   1.9695484  96.9995589  94.4111597   2.0672786  97.4208302  93.5572231
   1.3646018  96.2748379  94.2528733  78.2121686 105.0383052  27.7246094
  78.8557703 105.7130381  27.5084066  78.4234844 104.7848725  28.6231351
  69.1657340  76.9065637  94.5869846  69.6313894  77.7199001  94.3923589
  68.2561886  77.0889515  94.3509900 104.6618893  27.8002763  52.4080610
 104.8126676  27.9352546  53.3436203 105.0269856  26.9337058  52.2291946
  16.7852986  63.5144472  77.8653049  16.8412030  64.2776155  78.4403515
  16.4069974  62.8278637  78.4145927  80.7055583  42.0503807  30.8924866
  80.0024285  42.6931620  30.9856081  81.2801470  42.2138977  31.6403770
  92.0429792  19.5062876  31.4813137  91.6057481  18.8011050  31.0040545
  92.8347077  19.1010499  31.8351221   2.3222016  32.2957110  45.6668854
   3.1241369  31.8994856  46.0076761   2.6176041  33.0910873  45.2237749
  99.7868468  71.8577909  76.0619259  99.4401111  71.2228441  76.6886997
  99.5529642  71.5008116  75.2051306  13.0981791  58.0182695  49.0846586
  13.2336664  57.8576994  50.0185204  12.2055900  57.7160931  48.9167070
  11.8497229  27.7582693  58.7962341  12.2496557  26.9152379  59.0097332
  11.4803863  27.6336026  57.9220009   7.4538505  29.8849368  86.2626839
   8.0489552  29.7031331  85.5353355   7.7753568  30.7057071  86.6357803
  72.6436557  34.5919442  39.0003371  72.4467649  35.2364564  38.3205795
  71.8113412  34.4610929  39.4546151  97.8710034  53.2364607  42.0565224
  98.5943391  53.4887552  41.4826202  97.4644949  54.0657043  42.3081923
 108.4264871   6.0302728  46.4539766 108.5548546   6.2688357  45.5359125
 107.5219031   5.7202089  46.4966440  86.4964809  36.6959310  86.5866947
  86.2992801  36.7795110  85.6537628  86.5400090  37.5979447  86.9040489
  97.0357980  54.3508387  78.5369682  97.6862516  54.4098282  77.8372097
  97.5058617  53.9491749  79.2676830   8.1881189  33.8982630  93.0857182
   8.0050784  33.9236760  94.0249062   7.7996194  33.0756116  92.7881527
  27.1144986  26.6649437  42.8325748  27.0101595  26.0813928  42.0810318
  27.8686023  26.3134408  43.3058643  18.0572581  28.4550023  44.2404556
  18.4779263  28.4484291  45.1002407  17.8054190  29.3683410  44.1040039
 113.9573272  43.7501001  23.2494664 113.9728123  43.0062008  22.6472974
 113.0349236  43.8477564  23.4858251 111.0328188  32.6863050  50.6376600
 111.4648827  32.5144029  49.8009968 111.7376020  32.6453185  51.2840605
   4.9919659  62.1825075  15.3147936   5.5114901  61.6623116  14.7018313
   4.0847126  62.0254326  15.0531662 100.5114975  22.3094630  28.0461049
 101.3591864  21.9035172  27.8648257 100.2014222  21.8725157  28.8393021
 110.5578740  71.8534184  23.8095140 111.0388901  72.6807594  23.7904859
 110.5253675  71.5741682  22.8945327 113.9950170  35.3371000  15.8876085
 114.0829553  36.0743093  16.4917791 113.9120488  35.7431364  15.0247753
  17.2961736  36.4388585  38.9794660  16.4466894  36.2790084  38.5683012
  17.5583279  35.5863261  39.3268752  18.8847148  38.2718396  34.0959716
  18.2009089  38.1328106  34.7511911  18.4676743  38.0493402  33.2636237
 104.1824450   5.8967173  11.9587529 104.6865847   5.0945157  11.8225682
 103.7532701   5.7691681  12.8047860 114.1359602  33.0606174  38.6232734
 114.7608184  33.2855701  39.3126059 113.3936398  33.6462212  38.7724781
 109.0671792  79.5928001  15.7873309 108.3058127  79.4963312  15.2152753
 109.7963907  79.7580719  15.1896954   3.5895127  41.0845900  54.5357418
   2.7855080  41.5047741  54.2303658   3.9117673  40.6022358  53.7743473
   1.0754675  38.6698675  31.5420198   0.5025124  39.4322228  31.6242909
   1.8469790  38.8927650  32.0629025  11.0948277  72.9258776  53.3736563
  11.4814019  73.2437992  54.1895723  11.1210048  71.9722366  53.4518480
  48.9967871  45.1604605  33.5905480  48.9954233  44.5828819  34.3538499
  49.6898699  44.8134851  33.0288792  20.6044555  24.6982884  30.5219436
  20.0371766  24.6795678  29.7511792  20.0036669  24.6237397  31.2633777
  25.9118962  25.4636073  56.5450096  25.4577804  24.6210408  56.5545654
  26.8169308  25.2453947  56.3224649  96.7770900  97.5892258  85.7196331
  96.2939825  97.7324295  86.5334702  97.5638845  97.1149540  85.9884357
  97.7604153  80.2371120  25.1882553  97.6849677  79.9240494  24.2868495
  96.8564870  80.2974510  25.4972935  74.7056999  24.1560483  27.9266858
  75.2008619  23.4162188  27.5749755  74.4913187  23.8964772  28.8227296
  45.6413794  55.5435896   4.1844803  46.1917019  55.8118820   3.4486845
  45.1060677  56.3135433   4.3764383   2.5061709  16.7705274  12.6729584
   1.7181334  17.1628273  12.2970200   2.1970502  16.3162839  13.4567571
  26.2270498  57.8327131  48.8406181  26.4489961  58.6996841  49.1802216
  26.8061590  57.7149820  48.0876207 109.3084719  21.0535812  46.9966555
 108.5009029  20.9404087  46.4954042 109.1653522  21.8523884  47.5042582
 109.9056449  56.7446899  57.0258045 109.8911842  57.7005720  56.9776726
 109.9237033  56.5523291  57.9633045  32.5756884  48.7730742  65.8464622
  33.0112743  49.3573713  65.2259016  33.0629325  48.8844728  66.6628027
   3.7519470  72.8266335  56.4644289   4.6479991  72.4944115  56.4100933
   3.5534933  72.8283024  57.4008274  17.5666928  45.2593279  76.6110802
  17.2248566  45.3506947  75.7216835  17.3765194  44.3518066  76.8487167
 111.1899491  31.7362857  34.6944284 111.9759812  32.1924615  34.9949074
 110.5316021  32.4256229  34.6071053 105.5248549  75.7610941  38.7118387
 106.1465551  75.1427460  39.0957212 105.7179489  76.5936279  39.1429257
   1.5157744  43.2972622  48.0894709   1.5386440  42.7190113  47.3270178
   0.8988678  43.9880753  47.8477383 111.6402825  24.2631531  24.0623713
 110.9496315  24.6259856  23.5077667 111.9613423  25.0114918  24.5655036
  97.3738196  65.3606510  64.4561005  96.7729356  64.9899817  63.8097477
  96.8059303  65.8166313  65.0772429 115.1378657  49.5216560  84.3223095
 114.9425766  50.1995707  84.9692440 116.0877272  49.5629072  84.2114353
   0.9813846  34.7965002  46.9884968   0.5102737  35.4453111  47.5113058
   1.0789313  35.2065039  46.1290693 106.5974565  38.7606788  65.1202965
 106.6573473  38.3280063  65.9720230 105.6576445  38.8300180  64.9524355
   0.6243514  10.1006246  52.4699831   0.4170556  10.6709874  51.7297506
   0.2564127   9.2507696  52.2279072  14.7609985  26.7877316  42.8184032
  14.3969357  26.3023829  42.0780516  14.6749830  26.1907864  43.5617018
 110.1629426  61.5754890  34.4360018 110.8779409  61.7981911  33.8398337
 109.4072475  61.4411736  33.8640594  36.0432220  24.6954632   6.7802703
  36.3397479  23.7856174   6.8022937  36.1364269  24.9556327   5.8638340
  34.5115852  37.2770381  15.2336371  33.5763955  37.3436642  15.0407374
  34.9306750  37.8439426  14.5861673   2.9041222  69.5565557  19.7806859
   3.2988533  70.0484514  19.0606451   2.2722553  68.9762068  19.3562233
  29.6942329  18.9217520  39.5455527  29.8766446  19.5785272  38.8735366
  28.8306117  18.5782814  39.3166041  96.4266719  38.8926721  51.1193800
  96.3084068  38.8478088  50.1705742  97.2909441  39.2876220  51.2346077
   1.2342631 107.6360890  16.0439372   1.4168536 107.1103304  15.2651751
   1.1560737 108.5317134  15.7153416  27.7340627  13.4348798  36.5782619
  27.2165823  13.8144636  37.2884464  27.1207857  13.3633149  35.8468246
  10.4302108  30.9388757  55.1529360  10.5723095  30.2765322  55.8292055
   9.6593356  30.6321788  54.6755266  32.4303627  35.5905962  80.1634789
  31.5000558  35.6960297  79.9643755  32.4496078  34.9843788  80.9039974
  99.5317700  51.4170647  34.7385383  99.2427864  50.5668831  35.0700641
 100.3635754  51.2336969  34.3018341  59.4018602  41.8664694  53.7433958
  59.2426825  42.3859072  54.5314837  58.5562277  41.8456697  53.2953978
   6.4341843  67.1399260  47.3230696   7.0820135  67.6608133  46.8484926
   6.8642747  66.9170713  48.1486511  90.9564962  27.7183723   7.9932845
  90.4476442  28.2816243   7.4101454  91.8669142  27.8730607   7.7414101
  12.4071455  32.8621626  44.4288588  12.0073736  32.0533228  44.7485352
  13.2476115  32.5858068  44.0635157   7.0060706  34.3825507  51.4527225
   7.5231475  34.8275566  50.7812786   6.9944912  33.4657955  51.1776590
  62.7247238  61.7405605  10.5819213  63.1769848  61.9792891  11.3910556
  63.3014631  62.0519686   9.8843354  18.1733847  30.5326390  30.9628272
  18.4263110  31.4433241  31.1142063  17.3472893  30.4317236  31.4357066
  99.3038060  42.6334333  60.7311964  98.7934520  43.4404182  60.6637478
 100.1777937  42.8765392  60.4257822  17.7681422  61.0403061  45.0755072
  17.3554087  61.1364031  44.2172289  17.4393094  61.7817736  45.5837727
  17.0185888  43.0911064  29.9452710  17.6867139  43.6207771  30.3803492
  17.0573032  43.3627081  29.0282297  80.9225837 104.9344232  47.3921108
  81.6302747 104.7982895  48.0220890  81.1939795 105.7023554  46.8892622
  42.6918697  41.8535233  53.4080601  42.5864744  42.5384188  54.0683937
  43.2661867  42.2428942  52.7486849  14.2994654  42.8446102  43.3697891
  14.8395371  42.7009630  42.5926638  13.4903097  42.3655033  43.1910276
  49.1650677  36.7962670  26.8708658  48.8474703  35.8995986  26.9774103
  48.4743881  37.3413682  27.2477770   9.3477619  30.5016494  61.7274475
   9.7997361  29.6599770  61.6679573   9.7008479  31.0150027  61.0007954
  33.2404327  39.0583611  80.7199001  33.5605669  38.1609845  80.6279182
  32.8540277  39.2632675  79.8684740  42.8109407  31.1815476  73.1851244
  42.1739292  31.0463524  73.8866711  43.2204056  30.3247261  73.0650139
  11.6295958  55.6081247  28.3516979  12.1094942  54.7887278  28.4721947
  10.7484043  55.4192638  28.6742878  36.4757085  22.8075886  25.1906896
  37.2440314  23.2477427  25.5542517  36.7777443  22.4486899  24.3563056
   8.7366462  38.0394387  41.7854786   8.9726537  38.7539172  42.3771286
   9.5054835  37.9275942  41.2263632 114.4608416  44.2206526  62.3080349
 114.2089907  43.2974768  62.3315763 115.1127415  44.2733240  61.6091204
  55.8658886  17.6403630   5.9057069  55.7058001  16.8649876   5.3677517
  56.7711973  17.8835189   5.7119972  27.7314353  41.4274836  49.9100971
  28.0229664  42.3204470  49.7260904  27.8830957  41.3145876  50.8484411
  93.7033524  13.9740288  29.4544935  93.5699834  14.2063367  30.3734493
  93.5046901  14.7771919  28.9731455  94.4715037  45.8023548  30.3643322
  93.8250055  46.2690067  30.8939648  93.9968338  45.5536366  29.5711994
   3.1525514  51.5771914  66.2145185   3.4383652  50.9212589  66.8503618
   2.1966913  51.5536690  66.2593555   6.9954062  33.1010318  46.1737823
   7.4166358  32.2417212  46.1932993   7.3174131  33.5435081  46.9591236
  35.0015211  29.5229077  55.5237818  34.9652719  29.2783570  54.5990610
  34.8430395  30.4668856  55.5282784  22.9815984  74.3166208   9.6536291
  23.4649158  74.9327660  10.2040839  22.0780087  74.3762255   9.9638015
 101.3719215   8.3426315  20.2575827 100.6328025   8.9409620  20.1483369
 101.0350217   7.4919486  19.9763906   3.9996529  34.9662924  40.1038933
   4.9438965  34.8823190  40.2364969   3.8884109  35.8347559  39.7170758
  32.2942257  33.1091285  41.6113758  32.4470162  34.0420389  41.4611626
  32.5299501  32.9725242  42.5289822   4.9092895  25.7325625  75.5576181
   3.9942417  25.5864668  75.3176689   5.3963107  25.5820727  74.7474384
  25.6936479  50.0319910  54.9638796  25.4977846  50.9587288  54.8259401
  25.0912333  49.5704556  54.3805122  24.8280478  20.2002716  46.0464573
  24.3530631  21.0214233  45.9186649  25.7449579  20.4636478  46.1248207
  42.9035854  44.4507504   6.8283242  42.6978064  44.0890503   5.9663147
  42.8414249  43.7031269   7.4228251   6.3408452  47.0650291  86.9157219
   5.7014984  46.7216253  86.2915897   7.1509588  47.1407509  86.4115238
  15.2896261  42.4571133  54.9111795  14.7788620  41.6672516  55.0885677
  15.5226457  42.7912188  55.7773781   9.1729289  35.5476451  31.8075848
   9.7153586  34.9655843  32.3397541   9.7765619  35.9123325  31.1603880
  93.5566272  34.3653178  39.0927601  94.2252316  34.1053343  38.4590340
  93.9296665  35.1276827  39.5353389  11.9274485  14.6518600  39.3612742
  12.4041450  15.3718531  39.7743154  11.4227235  15.0683641  38.6626983
   3.6977941  13.4735334  73.2799864   2.9710501  13.0809891  72.7962685
   3.5994023  13.1405473  74.1719913  19.1297758  20.5166602  39.8098183
  19.4206023  21.4250898  39.8898697  19.7265303  20.1296949  39.1692138
  23.3229899  35.8387375  51.7139149  22.3795700  35.8897924  51.8674946
  23.7071800  35.8115506  52.5902081   0.3987626  64.4322157  21.2916541
   0.0213949  63.9590406  22.0332265   1.0059469  63.8084936  20.8934999
   8.0629349   2.5026944  28.2261419   7.6095730   3.3401167  28.1290913
   7.6795155   1.9430849  27.5508213  15.4482830  57.3802710  43.9501381
  15.3006864  58.0417109  44.6261168  14.6469545  56.8567228  43.9483023
  12.1911597  44.5245695  72.1218204  12.3106384  45.2413654  71.4987993
  12.0588839  43.7507534  71.5741491 101.0079350  41.9797707  40.7103205
 101.0493662  42.6887941  41.3520384 100.2101340  42.1547794  40.2112055
  68.8295885   4.3105274  -0.1039201  68.4278228   5.1738935  -0.0068933
  68.8619389   3.9600044   0.7862014 112.7391269  48.1816387  62.0591164
 112.2609185  49.0091038  62.1125126 113.6076008  48.4270668  61.7401314
  50.9741735  31.8170238  20.4355383  50.0457573  31.6655564  20.6125689
  51.3111353  30.9599972  20.1744032  23.6141467  54.2010212  47.8364229
  23.0997157  53.5045052  48.2444143  24.4829321  54.1188955  48.2297421
  64.1073370  13.4949327  79.7130203  64.6491432  14.2651343  79.5413685
  63.7671375  13.6335742  80.5969238  40.8849066  94.8906082  78.1305522
  40.0744763  94.9151081  77.6217955  41.4636385  94.3141789  77.6315230
   2.5883600  65.0621414  45.2019787   3.3682403  65.4732943  45.5747700
   2.4791434  64.2553234  45.7053137  21.1231899  21.0320783  53.7569809
  21.0672879  21.4623857  54.6101713  21.9099045  21.3997889  53.3543634
  21.1169791  51.3977575  32.9733920  21.3666034  50.6946707  32.3737359
  20.8354115  50.9455776  33.7686801  40.1422739  24.3234682  59.6985054
  40.5011797  24.8792028  60.3903008  40.0258064  24.9133158  58.9536905
 100.0353517  10.6061256  43.5897541 100.3785529  10.9518087  42.7657700
 100.3302719   9.6956921  43.6088753 114.6235464  75.3855705  11.7005992
 114.3065771  76.0258055  11.0635281 115.4086935  75.0150681  11.2974799
  21.1778688  51.2464237  59.3424940  21.0262132  50.4864407  59.9043274
  21.5767407  50.8837652  58.5515356   3.3224633  80.1547432  48.8111162
   3.0813199  80.7677841  49.5055723   2.7365816  80.3717899  48.0859518
  16.6053998  35.7223535  28.4820628  16.3716912  35.3398156  27.6363230
  16.2087488  36.5933990  28.4687662 112.7219372  77.8890610  32.0637155
 112.6056968  76.9403076  32.0128393 112.1136208  78.1685495  32.7478695
 103.6234285  38.1445312  37.0460343 104.1182317  37.3806357  36.7496085
 102.8344681  37.7784944  37.4457717  99.9847962  44.7450829  24.9807763
 100.0486555  45.1346445  24.1087699  99.7579219  45.4772091  25.5541444
   8.0671525  45.5617905  21.4830732   8.0757606  44.8530912  20.8397222
   8.8909531  45.4621553  21.9602060  26.2941456  58.4550619  10.4357278
  26.7054272  57.6032782  10.2889526  26.0751343  58.4579039  11.3675320
  27.5315642  28.8509536  82.9118061  26.8922067  28.2486582  83.2921982
  28.3800817  28.4504819  83.1011963  16.1613154  18.2416034  16.9115007
  17.0728266  17.9494059  16.9119394  16.2025595  19.1552937  17.1938133
  32.3495555  47.0597458  76.0071039  31.5114951  47.2231960  75.5744743
  32.4035621  46.1062908  76.0721922  17.9190898  29.5001650  33.7640214
  18.0789781  28.5578251  33.7124062  17.0024788  29.6019697  33.5077143
 115.9183733  52.7127695  30.9426498 116.1340877  53.5086679  31.4287043
 116.5529336  52.0652342  31.2496686  20.7731700  82.6308727  31.4024878
  20.7941151  83.1883240  30.6246448  21.5862536  82.1276951  31.3585067
  17.6787806  69.4789600  52.9551458  17.9236591  70.4016161  53.0256557
  16.7269397  69.4753838  53.0562305  29.8337293  71.1818647  74.8438454
  30.3551936  71.8225288  74.3602562  29.7656155  70.4326916  74.2519569
  96.2513675  32.2326756  45.8070850  95.4037656  31.9659328  46.1629677
  96.4721229  33.0309319  46.2869644  90.2870501 107.1795424  65.9319592
  91.1255229 107.3455339  65.5010986  89.6304382 107.4016624  65.2718449
   8.9225352  40.7737303  70.3262281   9.3632901  41.4371157  69.7952938
   8.0093610  41.0590887  70.3565073  10.9790373  49.6661282  85.8373547
  11.8811738  49.3461609  85.8357525  10.8742499  50.0829077  86.6926575
   4.6322149  48.2095957  34.9993277   5.3240871  47.8356838  35.5449796
   4.8365065  49.1439295  34.9603868 102.4036302  65.2883291  17.1509862
 101.5000560  65.5936050  17.0697987 102.5908734  65.3408003  18.0882263
  25.6630898  53.4770918  25.1265192  25.1379800  54.1370916  24.6738720
  26.3181949  53.2090187  24.4821525  60.6197739  56.0136414  18.8877749
  61.2775803  55.8533907  19.5644164  60.3674650  55.1405001  18.5874462
   8.6477059  61.0046816  36.9853425   7.8207690  61.1240196  36.5182614
   8.6059743  61.6291285  37.7096057  24.4427109  42.6315498  46.8028975
  24.3623948  42.0419836  46.0531044  25.2820778  43.0726242  46.6719294
  24.2837191  59.6577215  64.7332954  25.0988984  59.3627691  65.1391459
  23.8610005  58.8532114  64.4327879  48.2682991  30.9877157  76.0161018
  48.4640408  30.0512958  75.9839249  47.3647261  31.0542774  75.7072973
  32.7917385  21.0120511  32.9702520  32.0891595  20.9386301  32.3243237
  32.9230571  20.1173329  33.2840466 101.8403091  34.9637461  55.4703617
 102.3791113  34.4693518  54.8527050 101.0700478  34.4130135  55.6104422
  38.8841653  47.0855284  38.5880995  39.3022633  46.3241053  38.1860256
  39.6108246  47.6002264  38.9392161 114.6092393  73.7316370  45.8976889
 113.7130376  73.6396027  45.5742979 114.9851409  72.8552961  45.8143044
   4.9491009  49.5405769  46.1047840   4.1142416  49.1610575  45.8305502
   4.9204135  49.5166397  47.0612526   6.1527848  69.4487572  38.0776334
   5.5661380  68.6924601  38.0872917   6.9343275  69.1516113  38.5436034
 110.2821918  37.5079083  77.4070835 110.0988485  37.8208828  76.5212679
 110.4329505  36.5684295  77.3027611  16.5421116  38.5157990  27.7612519
  17.4398661  38.7890196  27.5725198  16.0054386  39.0146375  27.1453166
   8.6159593  56.5877008  18.4529960   8.7739104  55.8101845  17.9175031
   8.3005583  57.2453880  17.8331554  15.2621877  45.8335733  27.6638651
  15.1658130  45.9505129  28.6089945  15.0431764  46.6884756  27.2931838
  18.7518692  89.9843121  32.8892446  18.2004333  89.2166901  32.7379107
  19.4286370  89.6778202  33.4927988  22.1417880  61.8876982  61.0752583
  22.7880168  61.6854763  61.7518139  22.6630068  62.1588278  60.3195763
 107.8466829  37.0064139  62.8472757 108.6155297  37.3356223  63.3128166
 107.7858027  37.5565505  62.0663309   0.2144801  85.2781105  26.1432147
   0.2325789  86.2291527  26.2500644   0.7847196  84.9481773  26.8376231
  24.9936819  59.0622711  51.8168831  25.2867222  58.2241726  51.4591789
  25.4026937  59.7192526  51.2535810 115.1302825  74.6933699  15.6223714
 115.1453999  73.8026047  15.2723110 114.4725939  74.6664762  16.3173211
   3.8903296 107.5387383  72.0053577   3.2216638 108.1905079  72.2158766
   4.7176597 108.0164051  72.0653105  21.0406017  41.1860704  58.2732391
  20.6758118  40.8787632  57.4433470  21.9414878  40.8625937  58.2732773
  90.4312791  19.9305511  27.3770332  90.2084627  19.2275512  26.7668056
  91.3867201  19.9075830  27.4303222  98.8188960  51.1048412  47.8135300
  98.2259156  51.1274672  48.5645914  98.3691969  51.6123724  47.1379471
  44.9865437  31.7731738  40.6081724  44.2696714  32.0808220  41.1628628
  45.5936050  32.5122356  40.5695105  60.6448746  39.3685985  54.8664618
  60.7610607  39.2642403  55.8108330  60.3262424  40.2651405  54.7619677
  29.1586590  29.8199344  38.1373978  28.2380843  29.5578790  38.1273341
  29.3016720  30.1584554  39.0212440  35.7242513  54.6602201  30.4138637
  34.7725415  54.5861387  30.4845166  36.0472941  54.4375610  31.2869620
  32.2798920  45.6808376  34.0904641  31.4612961  45.9111404  34.5298862
  32.1633625  45.9871387  33.1911135  53.2885170  32.6438165  41.1499262
  53.9038658  32.8218389  40.4386663  53.8418865  32.5309801  41.9227648
  21.3362384  52.6821947  25.0461745  21.0246468  51.8867016  24.6145034
  20.9612417  53.3966827  24.5312810  30.8226252  28.4163570  51.6154909
  30.2243733  29.1631460  51.6406488  30.7176805  27.9965281  52.4692822
  86.0112440 107.3504061  86.1003363  86.0598862 106.4620442  85.7472378
  86.3421213 107.2709841  86.9950127   7.5314629  65.5969334  50.1030111
   7.8909010  64.7141933  50.0146151   8.2751393  66.1761284  49.9365568
   9.3449509  33.6846757  20.7449460   9.5232564  32.9541874  21.3372493
   9.4198400  34.4636893  21.2960911   8.7388343  52.1091509  26.7189240
   9.1236603  52.2866011  27.5772071   7.8206241  51.9122076  26.9042230
  45.1315832  56.0879660  28.7917328  44.3810415  55.8964491  29.3540835
  45.8854532  55.7498741  29.2750621  32.8865170  57.4980545  34.8014283
  32.7320480  56.9786453  35.5904675  32.5137043  56.9736910  34.0927076
  37.2769403  27.7729988  39.3189621  37.0874977  28.4796357  38.7017035
  36.5583968  27.8075099  39.9504161  10.1389074  33.6139321  40.6315565
  10.7257831  33.9059830  41.3290644  10.0627077  34.3705320  40.0501919
  48.6236525   1.2854844  17.8113961  47.8005409   1.7732735  17.8392768
  48.3727455   0.4087152  17.5206149  22.3808050  42.2239685  27.4769092
  21.5595722  42.0416307  27.9335952  22.9205084  42.6756048  28.1257367
  99.2802503  56.3540459  53.0818558  99.3132748  55.9469938  52.2161436
 100.1553228  56.7210531  53.2074928  27.5311708  34.1413403  46.9232988
  26.6030264  34.2012715  46.6970539  27.6951194  34.9111938  47.4679804
 106.4731195  57.6471567  48.7961149 106.2840666  58.4135628  48.2547188
 105.8718671  57.7230930  49.5370340  15.0506008  60.7677889  35.7033443
  14.2084289  60.3825474  35.4613328  15.3392017  61.2273407  34.9148297
  25.6409264  63.1727266  81.9449043  24.8789835  62.8313923  82.4130630
  25.2712822  63.7281418  81.2585354  60.0269890  11.0196877  50.6632137
  59.8373222  11.3412523  51.5446091  59.4166517  11.4940703  50.0986958
 101.2736203  33.3239079  62.5819492 101.3760104  34.0352225  61.9496679
 101.6934683  33.6490679  63.3783340   9.5479673  60.4860306   7.3904544
   9.6570694  61.3363028   7.8163236   9.8667872  60.6223536   6.4982653
 109.0417095  63.4678936  70.8645201 109.3558647  63.8890743  71.6646147
 109.5930215  63.8300276  70.1708746 106.7259791  68.8025999  23.9292836
 107.2206970  69.4250679  24.4622159 106.8362155  69.1154242  23.0313849
  20.7646990  59.3798208  59.7740698  21.6667509  59.0719891  59.8622561
  20.7625747  60.2391481  60.1957178  26.2442899  40.4642487  60.6828928
  26.3508463  39.5660162  60.9960318  26.8478036  40.5331850  59.9431276
  24.6838069  44.3586683  89.6107292  24.5088458  43.5350752  90.0660419
  24.3048644  44.2363167  88.7402821  20.0647283  67.9354286  56.8857193
  19.8824775  68.8439941  57.1255684  19.4618595  67.7523947  56.1651087
  13.6162257  59.2483616  67.9300356  13.9719307  58.3822632  68.1289864
  12.8739727  59.3452644  68.5266066   6.8360829  41.3405848  33.7639737
   6.1246026  41.6697979  34.3131995   6.4019918  40.7824755  33.1187534
  13.8272989  66.9771767  53.5616302  13.7194121  66.0653496  53.8321066
  14.3727362  66.9311476  52.7763844   8.7131619  44.1012049   8.2889700
   9.6660221  44.0316820   8.2301801   8.4328729  43.2574320   8.6435407
  21.0892177  54.6628428  22.9548287  20.3401494  55.2389956  23.1070781
  21.5246129  55.0338030  22.1873307  18.6911416  17.1065068  74.9637318
  19.2394936  16.8292356  75.6976652  18.1897104  16.3251328  74.7308064
   3.0224350  43.1559992  22.0644164   2.9336235  44.0655231  21.7796206
   2.1261652  42.8733158  22.2461390  26.0810733  49.5427370  64.6956158
  25.2871537  49.2958927  65.1699448  25.7623148  49.9313784  63.8810110
  24.4098973  37.7800083  29.6456170  24.9127793  37.2097921  29.0640736
  25.0711584  38.2227683  30.1775265  28.3338404  16.1876261  58.0957031
  28.8580728  15.7308948  57.4378204  27.5806975  15.6151307  58.2414961
  15.9303737  35.9799314  73.0417109  16.4361179  35.4519415  72.4239063
  15.1148760  35.4931903  73.1612015  41.1334419  54.2574120  66.9440222
  42.0698643  54.2829275  67.1407270  40.7127810  54.1420317  67.7960587
  38.4551883  24.3831587  65.7415104  38.8040566  24.1569161  66.6036797
  38.4564447  25.3402352  65.7262325  10.7800627  48.5965776  36.4824986
   9.8672628  48.8083363  36.2870860  10.7323134  47.8113985  37.0278859
   8.2261622  55.4360914  54.4366455   8.4039891  56.3668108  54.3011189
   8.7254852  54.9943447  53.7497902 105.7148983  17.1678209  55.4363346
 105.9924509  16.2942350  55.1605701 104.8309412  17.0406616  55.7808399
  43.6880255  27.4317908  71.8903542  42.8252554  27.8436875  71.9373322
  43.5456085  26.5405345  72.2091198  13.3840704  70.4124308  80.4544067
  13.0288863  70.9081936  79.7166443  13.1121767  69.5096159  80.2893829
  19.9585700  49.3928432  49.3676949  19.7149312  48.4893131  49.5689487
  20.0034499  49.4216061  48.4119797  23.8044930  46.6858196  71.8551826
  23.9128470  46.1444426  71.0732651  24.2461562  46.1958790  72.5488138
 111.1051645  55.4910421  10.5085802 111.1612227  54.9536562  11.2987113
 110.7077785  56.3102865  10.8038020  18.3311403  29.6179271  25.5073023
  18.3408880  30.4259825  26.0203171  17.4100912  29.4891310  25.2807832
  26.4678192  27.5832462  54.0434027  25.6691098  27.0684767  54.1587543
  26.5182018  27.7391100  53.1003237  17.8519785  59.2991114  32.2100258
  17.2462845  59.3443489  31.4702153  17.3367774  58.9125109  32.9180813
  22.2820783  57.8106165  24.0367222  22.1611714  58.3897591  23.2842541
  21.4245558  57.7875090  24.4614053  19.3830729  54.2189598  30.3806376
  19.1740990  54.0072060  31.2904286  18.5414052  54.4540167  29.9900293
   9.5115399  54.0656614  63.6283970   9.4121945  53.6361170  64.4780159
  10.3428173  54.5357513  63.6934233   2.7939147  33.5335445  71.1161804
   2.8050134  32.7870154  70.5171824   3.6603487  33.5271239  71.5229797
  43.2791185   7.4636871  75.5867720  44.2326975   7.3821020  75.5706358
  43.0958462   7.9758590  76.3743782  19.4053566  53.2755375  40.7351017
  19.8008847  52.6501417  41.3422871  20.1381564  53.8120174  40.4327345
   1.9823846  46.7687702  34.3532181   1.5872839  47.1557426  33.5719466
   1.2635171  46.7134905  34.9828243  25.1031876  57.6508045  40.8399820
  25.8316684  58.0668592  41.3008976  25.1589990  57.9912090  39.9470949
  79.1891803  61.3398314  35.0792265  79.4890465  60.4341888  35.0009871
  79.8900642  61.8590975  34.6850729  43.7060702 104.7872919  76.6065520
  43.4347573 104.8828787  77.5195056  43.7020641 103.8424725  76.4531642
  44.0380955  17.8820944  53.0599689  43.6344767  18.6143768  52.5940466
  43.4608936  17.1390176  52.8841686   5.2440959  26.7033887   2.5234786
   4.3368134  26.4019871   2.4762958   5.7592863  25.9006572   2.6036695
  11.8215489  64.8699808  59.2607021  11.6752398  64.9818563  60.2000141
  12.2317517  64.0086174  59.1831160  90.9335459  20.7909436  70.9644490
  90.6654967  21.1197515  71.8225080  91.8288601  20.4791350  71.0964352
   8.6664212  37.1779776  25.9672809   7.8719628  37.6113987  25.6554890
   8.6374867  37.2803044  26.9185543  23.8853598  33.8758492  57.7813816
  23.7028694  33.0446339  57.3431921  23.7897301  34.5350432  57.0939589
  11.4967620  65.2752447  34.8443580  11.7372417  65.2579403  33.9180207
  11.5763092  64.3649721  35.1295018  10.7919753  35.3491402   4.8035952
  11.0959733  36.2160134   4.5346230  10.8347929  34.8220897   4.0057120
  36.7605710  23.7423754  71.8257523  36.0247040  23.3494210  71.3563728
  36.5910435  23.5433722  72.7465630 114.4051776  64.2385864  29.4427896
 114.6688642  64.9836206  29.9828172 113.9606111  63.6476660  30.0505757
 104.3518808  58.5057640  55.6360245 104.9300136  58.4934998  54.8732376
 103.8497080  57.6936293  55.5690336  36.9936204  42.4685192  18.3418965
  36.6724277  43.0370235  17.6419866  36.3576698  42.5766039  19.0490842
   6.4059371  64.1523504  39.1201782   5.9376246  64.6863794  39.7618365
   6.6636765  64.7706270  38.4364176  14.6682072  60.8250427  43.5711956
  14.3864524  60.9092665  44.4821024  13.8640797  60.6337595  43.0884695
  25.6067586  64.1972876  61.0861635  25.3521442  64.5613241  61.9340324
  25.7141590  63.2603979  61.2502766   8.2710117  48.2836580  48.9253187
   8.5427296  48.3272409  49.8421049   8.5622555  47.4210119  48.6299372
  28.8499069  13.4920382  20.2950191  28.3591914  13.7286603  19.5079744
  29.2946434  14.2997921  20.5518723   5.3956085  13.8517928  58.7557983
   5.1018137  12.9776573  59.0123177   4.7783637  14.4465435  59.1818380
  14.6645331  76.5751076  18.9931297  14.0218008  77.1111679  18.5286224
  14.2396533  76.3567638  19.8226082  33.4216952  33.5287762  38.4616113
  32.5062442  33.3920646  38.2176995  33.4958196  34.4739342  38.5935736
   6.5292299  21.9674850  75.5409670   7.3673046  22.0302010  75.0827885
   6.2538815  21.0596585  75.4134274  18.0380058  85.1265049  36.9291043
  17.8610969  84.8074818  37.8140664  18.9684093  84.9483585  36.7918158
  20.5587149  69.2646456  33.8118339  19.7837794  68.8549042  34.1963077
  20.5349350  70.1672649  34.1295457  50.8373547  58.5308409  48.6578941
  51.1025429  58.3342361  49.5563650  50.1980925  57.8516483  48.4427834
  22.1551180  59.9471045  66.4759588  22.9827642  59.8518944  66.0046148
  21.4962173  60.0362015  65.7873774  34.6381974  18.8612235  73.7298632
  33.9633703  18.2023931  73.8935184  35.1162863  18.5306025  72.9693699
  27.8559923  45.9656763  44.7829866  28.1578112  46.8720961  44.8424339
  28.4050488  45.5744839  44.1034746  98.0258860   8.4843236   9.0977395
  97.7736261   8.5655236  10.0175238  98.9735033   8.3510858   9.1201401
  84.1958727  79.4706039   0.0231189  83.7852586  79.9421244   0.7478923
  85.1065935  79.3585830   0.2956408  21.1852479  43.1163979  55.4171038
  20.3299928  43.0544996  54.9917364  21.3954377  42.2159290  55.6644964
  42.6377964  69.1615343  72.7824831  43.2467794  69.3465042  72.0675325
  42.0295525  69.9006128  72.7762699  32.8919339  53.4182644  75.2435160
  32.5335836  52.7559996  75.8344698  32.3189235  53.3907557  74.4772673
  33.2593012  37.6001430  68.4113073  33.8527369  37.6787233  67.6643848
  32.6609230  36.8935895  68.1684971  90.6272902  43.0776453  55.5834675
  90.2497711  43.7731123  55.0449181  89.8704710  42.5986671  55.9211588
  10.0245678  66.9784260  41.7997789  10.6976533  67.5810099  42.1161318
   9.2076516  67.3191500  42.1641779  19.2185330  44.5755434  72.9171467
  18.3562279  44.7544575  72.5421095  19.8327541  44.7713184  72.2095919
  17.0819020  57.8705025  54.1677380  16.3107336  57.3303080  54.3401337
  17.3045087  58.2486105  55.0184536 100.4296233  63.3310318  39.2831159
 100.2748897  64.1738701  39.7096324  99.7889652  62.7407026  39.6797252
  32.9784679  39.7195148  47.0491219  33.1735730  40.5341625  46.5859652
  32.0244479  39.7106266  47.1265984  30.8492255  37.8344178  60.9497595
  30.4300284  38.0444741  61.7842579  30.7220674  38.6174154  60.4140615
  13.1035089  30.3885126  67.9692030  13.1136382  30.9358907  68.7543869
  12.3209226  29.8458409  68.0656338  32.3854446  39.0300393  35.0232744
  31.5174818  38.6274147  34.9955726  32.9161310  38.4960985  34.4320798
  59.6737146  57.2239828   5.5943906  60.0630522  56.4183521   5.9344012
  60.2160883  57.9240131   5.9577280 105.3612175  52.9327106  54.1249323
 106.1075940  53.4019899  53.7521982 105.0649633  52.3560286  53.4207296
  15.5180728  51.6263199  68.0877542  15.4151332  51.9883394  68.9678574
  14.7477138  51.9344282  67.6104212  23.4133196  54.6837664  52.3447990
  24.2309999  54.3381548  51.9867659  23.6792588  55.4505110  52.8523493
  10.0221038  50.5179739  43.4594011  10.4839754  50.4854298  44.2971659
   9.1740197  50.9094572  43.6685133  26.3911366  63.7286091  44.3834639
  25.7074833  64.2833805  44.7590733  26.9703674  64.3384933  43.9265633
   0.8928245  55.8970785  51.9693232   0.2814073  56.4846182  52.4133921
   1.4982271  55.6177807  52.6561356  21.5101361  62.1200800  40.6311512
  21.6397262  62.0413017  41.5762615  21.6671515  61.2382650  40.2935457
  23.7365484  52.4851561  61.0206699  24.5323420  52.7299643  60.5484247
  23.0264831  52.6725435  60.4067278   3.0807650  51.2799025  55.9098768
   3.1737804  51.9921064  56.5426016   2.1444333  51.0811234  55.9089327
  67.9956770  82.8603840  54.0958357  68.9406967  82.7358818  54.1834164
  67.7801037  82.4697876  53.2489586  48.3131504 103.9385891  66.0300636
  47.9782248 103.8526917  65.1374960  49.2059803 104.2657948  65.9204102
  44.3524075 109.1023159  69.1523266  43.4927702 108.7615299  69.3995476
  44.5661879 108.6455727  68.3387423  61.5127707  86.6736126  79.2061663
  61.0113907  87.2620392  78.6417103  60.9156513  86.4641571  79.9243641
  48.2100534  92.2307777  53.7586784  48.9257717  91.8899155  54.2951393
  47.4990129  92.3880768  54.3798923  70.9458173  14.0652133  60.9289122
  71.7206753  13.8725424  61.4568377  70.5344070  14.8085833  61.3697863
  25.7661915 103.5444546  68.4525204  26.4052296 102.9739189  68.8795519
  25.0768042 102.9510403  68.1544685  15.5023801  78.8188124  29.2844772
  16.1088574  79.5124865  29.0251875  14.8823941  79.2501640  29.8725128
  24.3322062  86.6211128  51.3886786  24.3075228  85.8209801  50.8638811
  24.4881511  87.3196793  50.7531309  84.9018253  23.6868048  68.5187340
  84.9115623  23.1799937  67.7067709  84.1786731  23.3155394  69.0241480
 110.1348365  19.9235678  66.7271805 110.0388683  19.1018058  67.2085476
 110.7541383  19.7197200  66.0263681  51.9625521  95.8565235  54.1971302
  51.2013721  95.5486965  54.6891499  52.4288273  96.4261913  54.8089266
  39.7238541  90.7124996  45.3409719  40.0581169  91.4469624  44.8261356
  40.2422142  89.9616241  45.0516319  57.5847054  96.1469650  59.5556021
  57.8006840  97.0025253  59.1846657  56.6293430  96.1029339  59.5158625
  66.1630344  85.5064964  71.0207796  65.7111263  86.1465263  70.4708958
  65.4804659  85.1602173  71.5956068  88.8834251   7.7569915  47.1841669
  89.4048370   7.4770022  47.9364777  87.9841150   7.7797843  47.5112009
  34.8460698  76.2069845  82.0738220  35.4871106  76.7455578  81.6098881
  34.5027781  76.7802858  82.7591801  16.5476215  97.3365879  58.2403040
  16.1866045  97.1500301  59.1069603  17.0360172  98.1518269  58.3547115
  35.0159121  95.1395988  71.0997438  34.4199204  94.5475006  71.5584803
  35.6110930  95.4547119  71.7799616  43.6686087  95.3202248  75.8888054
  43.4563971  94.4795704  76.2943935  43.5110331  95.9653187  76.5781879
  50.4270601  87.5951290  41.2380934  50.0250673  88.4635258  41.2609434
  50.6566954  87.4616241  40.3184891   6.5361189  13.2814742  93.6893368
   6.3462042  14.0519477  94.2246246   7.2806048  12.8654624  94.1239643
  51.7944813  93.5485935  56.4025450  51.4360714  94.0665817  57.1232843
  52.2756290  94.1811752  55.8690929  26.1179757  89.0797043  82.7798080
  25.5557036  89.6467018  82.2519779  26.0656977  88.2251072  82.3518372
  30.0473499  96.6732025  35.1490664  30.3993535  96.2279510  35.9198332
  29.3927407  97.2772694  35.4995298   3.2994264  97.6465988  32.1855521
   3.1461346  97.9668617  33.0744648   3.8600975  98.3109856  31.7849588
  73.4117508  85.6106949  51.7263460  72.8895617  86.4123440  51.6962481
  72.8638935  84.9856663  52.2011280  48.7390804  96.0789680  49.7299862
  48.5811472  95.1415539  49.8420048  47.9065371  96.4913273  49.9603462
  48.4759760  84.0572166  45.0396872  49.1351557  83.4560585  45.3865623
  47.9620600  84.3163776  45.8045101  18.4071720  83.5310078  39.6984363
  17.7348244  82.8604794  39.5777106  19.2349958  83.0601406  39.6023679
  29.0815735  99.3772411  10.7642531  28.7725163 100.1959610  11.1520839
  29.2525673  98.8067818  11.5136313  67.4092293 106.6372013  34.0013981
  67.4013853 107.5753307  34.1913629  66.7404175 106.2701607  34.5795012
  44.3908310  84.1522217  36.6863728  44.0925598  84.7393322  35.9917021
  44.3127537  84.6700764  37.4875975 102.4790969  83.0286694  59.2352581
 101.6024902  83.4068489  59.1662025 102.5470390  82.4423504  58.4817028
  68.2743168 107.7651405  20.4450941  67.5057507 107.7397346  21.0150862
  68.3310366 106.8821239  20.0800014  70.7317448 103.5121441  24.6604562
  71.2746716 103.5959435  25.4443169  70.0790596 104.2070961  24.7457504
  26.8647075 107.6389122  48.5645580  26.2019825 108.3229351  48.6601496
  27.5953388 107.9358196  49.1070127  66.7664480  99.3830013  36.9030643
  66.9103813  99.7165680  36.0174870  67.2483635  98.5563660  36.9289136
  68.8506222  96.0454273  20.6268406  68.5335541  96.2923241  21.4956021
  69.7352505  96.4083481  20.5826688  39.2865467  96.1215019  50.2816439
  39.7996259  95.3203583  50.1759815  39.8458600  96.6970730  50.8032894
  56.1317062  80.5226707  61.2321377  56.9757748  80.9690189  61.2996483
  56.1706877  80.0621033  60.3939295  15.7813299  64.6152544  73.2595778
  15.3782272  64.3843794  74.0964985  15.1014328  64.4384813  72.6094055
  92.5780739  20.7909060  60.2542257  92.6430668  21.3057090  61.0585833
  93.4854997  20.6630660  59.9776983  10.8545697  91.0075474  66.9916916
  11.4164364  91.6555595  67.4166775  10.1438868  91.5214539  66.6082096
  57.6822424  84.2286587  52.7907085  58.4592438  84.6048927  52.3772430
  57.9354000  84.1012383  53.7049866  45.4426718  70.3180933  84.4805813
  44.7710943  70.8740091  84.8757648  45.2328873  70.3161621  83.5466576
  43.4594297  92.3748207  36.4598966  44.1342688  91.8877411  35.9870577
  43.9112663  93.1516933  36.7893410  18.1196570  86.0658741  24.8985910
  18.8322079  86.1875725  25.5260420  17.3773479  86.5294552  25.2862811
  41.3903522  99.4664860  34.5207095  41.4537430  99.5401382  33.5684562
  41.4390802  98.5259914  34.6919727  11.3933729   0.7705737  79.4323206
  11.6545652   1.6770411  79.5945692  11.1287283   0.4402495  80.2908516
  36.1282516 103.6271000  56.5767717  36.4739203 104.5195866  56.5625763
  36.7051744 103.1563377  57.1782541  96.0042776  13.5131884  67.2874403
  95.2668775  14.0603781  67.5577354  95.7630933  12.6304675  67.5682592
  87.0205797  34.0280486  20.6596994  86.7281736  33.1661368  20.9560633
  86.2894500  34.6117163  20.8622265  38.0390334  84.2615700  67.7424860
  38.2274485  84.5974827  68.6187840  38.8714719  84.3313122  67.2751427
  82.7974714   1.9906665  43.9997816  83.1724561   1.7861796  44.8564053
  81.8578972   2.0729304  44.1630793  70.2698231 105.7604694  53.0443096
  70.4409361 105.4830551  52.1443129  71.1369371 105.9356213  53.4099150
  64.1936779  83.2203197  41.5498638  64.5969105  82.7949905  42.3066521
  64.2428112  84.1558170  41.7465067  44.0508175  90.9912872  74.7498178
  43.4349632  90.6747246  74.0889597  44.9110985  90.8943748  74.3414593
  70.7450771  99.2324352  14.5214677  70.4564285 100.0833130  14.8515010
  70.6382465  98.6385536  15.2645135  65.7945265   3.7808753  45.8443165
  65.3532065   2.9471637  45.6818295  66.2497247   3.9746047  45.0248671
  71.7819357 105.0166225  66.9591951  71.8109798 104.0621281  66.8933058
  72.6983929 105.2786541  67.0468140  74.6268797  59.3902636  31.4158130
  75.4335451  59.5739412  31.8972492  74.0477037  60.1213026  31.6311383
  97.5363125  10.1806308  41.0119009  97.5412143   9.2645121  41.2892818
  96.8031658  10.2415419  40.3995132  67.0137644  81.1863327  29.8720527
  67.0470667  80.2338886  29.9614310  66.9822979  81.3372898  28.9273548
   4.4593786   7.6485682  39.7820139   3.9180349   6.8691493  39.9072957
   4.1108297   8.2851172  40.4061413  40.1319647  75.9543085  60.9340668
  39.9019456  75.0770903  61.2403536  39.9181676  76.5284920  61.6694832
  67.7650166  94.0403366  69.5639944  68.1756639  93.4666538  70.2109051
  68.1467342  93.7710857  68.7285137  19.9493824  40.8800454  88.6408692
  20.2885376  39.9864430  88.6926383  19.7330700  41.1069055  89.5452910
  53.2532692  84.3870735  84.5518970  53.9893389  83.9414883  84.9712849
  52.5375366  83.7524796  84.5871925   6.9198965  10.0833750  13.5396039
   7.1565603   9.1856337  13.3066177   6.3282847  10.3639937  12.8414059
  83.4732342  68.1605577  78.0361605  83.4141541  67.9234600  78.9616489
  82.6452541  67.8628111  77.6593065  78.6338758 105.0777912  34.0813088
  79.4096851 104.6998024  33.6672091  77.9070759 104.8072624  33.5202384
  40.5675697  91.1679554  53.3466148  40.9186745  90.9881496  52.4744749
  39.9564338  91.8926430  53.2140541  85.4566492   0.1666976  64.7642040
  85.8556522   0.6851626  65.4629326  84.8413862   0.7664920  64.3423796
  71.7633581 105.8935165  17.6699841  71.6553020 106.7469406  18.0897713
  72.0652819 105.3175926  18.3724022  50.6778908  90.8152771  36.7578197
  51.1027336  90.4465961  37.5322962  51.3880539  90.9283543  36.1260653
  80.4024029 103.7053490  40.2353239  81.1892700 103.2553101  40.5427885
  80.1035976 104.2094231  40.9922028  70.8432484  97.7800369  26.0513091
  71.2402010  98.0332279  26.8847108  70.7101870  96.8351269  26.1266637
  38.5441041  97.0319557  37.7619123  37.6002479  96.9843292  37.9139042
  38.7591219  97.9573441  37.8787208  35.1581813   2.6309729  39.0926266
  35.4325075   2.1413947  39.8680544  35.6291650   3.4619380  39.1549945
  50.7902956  88.0234623  57.2389221  50.4031610  87.3829079  57.8356171
  51.5215588  87.5595665  56.8311405 104.6016182   5.3715182  43.9008331
 104.4552387   4.9736548  44.7590303 105.4141296   5.8672953  44.0021229
  19.4847667  99.9338531  72.4206209  20.1824975 100.0498486  73.0655575
  19.9445951  99.7767162  71.5959406  26.3861322  98.6569023  38.2045865
  26.8559408  99.4908714  38.2026482  25.8217001  98.7017536  38.9763618
  80.0205578  18.6614180  46.8902254  79.7784771  18.1975604  47.6917648
  80.8449854  19.0975047  47.1055651  61.1627388 103.8676262  66.6860199
  61.8564892 103.8265038  66.0277987  61.0261440 102.9569530  66.9472504
  59.8170471  99.1976261  56.2213802  59.0431595  98.8800335  56.6866398
  60.4353905  98.4679317  56.2590313  65.7349396  85.1669884  81.8671608
  65.9223509  84.7355366  82.7007961  66.0850000  84.5709896  81.2049866
  53.6159897  86.3261414  60.4251719  53.6731529  87.1249485  60.9494591
  52.6914358  86.2625408  60.1856089  83.6184692  74.3148422  39.7476363
  83.1527424  75.1501608  39.7079396  83.7707996  74.0817976  38.8318229
  59.8548126  95.4361057  51.1448622  59.9297190  94.4859219  51.2329531
  60.6787634  95.7046604  50.7383871  59.9804438   0.3467894  21.8015027
  59.5471872   1.1854697  21.9600868  60.6178178   0.5330516  21.1120892
  17.3472011  73.7512255  42.9751730  17.4259186  73.8994837  42.0328045
  18.1322765  74.1530371  43.3472443  45.8166885  99.8121357  53.2262230
  45.8176088  99.9068642  54.1787243  46.7412806  99.7288609  52.9929209
  50.9213781  99.6297455  30.5440402  51.4660311  99.5269489  31.3244343
  51.5390730  99.8573399  29.8491406  16.9142830 106.7711639  56.4343596
  17.6250482 106.5147591  55.8467388  17.1673584 106.4150143  57.2860289
  82.2368431  92.9345322  90.4642200  81.3029099  92.9010487  90.2571774
  82.5973129  92.1381283  90.0743103  98.9857483  92.6148987  70.4705095
  98.6009693  91.8119049  70.1192522  99.9115753  92.4039459  70.5912638
  56.6910696 103.3968639  31.6025376  57.1550179 104.1456890  31.9770455
  56.4262104 102.8757286  32.3604918  70.8227015 108.8388252  43.0286026
  70.5082893 108.2816315  42.3166275  70.5559683 109.7228813  42.7765369
  67.0725203 100.5079174  63.2945347  67.1358442 100.8595943  64.1825342
  67.1971083 101.2681293  62.7263975  14.1896844  72.5637341  43.8910151
  14.9052012  71.9695854  44.1174126  13.7143064  72.1115303  43.1940460
  67.4388027  91.3339806  66.0082340  67.1384907  90.8364487  65.2476406
  67.0667791  90.8714104  66.7591381  32.8745151  89.2391205  40.8934879
  32.9602742  89.5286942  41.8018007  33.7446570  89.3707275  40.5169725
  44.2675161  97.7977467  51.7505598  44.6170807  98.6726189  51.9197702
  43.7498426  97.5919914  52.5289631  50.2293730  86.9161320  38.6306381
  50.6739378  86.4474678  37.9242802  49.3997431  87.1985435  38.2456779
  50.5624390 100.1818562  89.9739456  49.6334743  99.9653339  90.0537777
  50.9535027  99.8627758  90.7872677  97.3157883 100.2791786  28.4819317
  96.8590832 100.8635712  29.0870309  96.7013073 100.1557732  27.7584553
  34.6862817  83.5805035   4.7942451  33.9433408  83.7627411   4.2188653
  34.5145440  82.7032757   5.1366073  37.6457524 108.0562401  36.7027187
  37.1512485 108.8718224  36.6219544  38.3342743 108.2554340  37.3371410
  46.8734217  97.1837044  35.8941436  47.3413992  97.8280926  36.4251733
  47.1105337  96.3394737  36.2779117  73.8894476  12.4026442  36.7088723
  73.7254943  12.7770282  37.5744247  73.0636038  12.5162364  36.2384343
  44.3200827 104.7732162  50.9442663  44.2033625 104.3159485  51.7770386
  44.2784834 104.0818882  50.2835321  91.5306247   7.2257663  15.0698102
  91.5931524   7.4960948  15.9859121  90.8290495   7.7669860  14.7077286
  48.5133600 106.0191154  57.6239109  49.0495062 106.0182953  58.4168625
  47.6692343 106.3714886  57.9059029  93.1578363   3.5107947  45.8413315
  92.8358854   2.8984118  45.1798391  92.3703445   3.9451743  46.1690569
  32.5109529 101.2763977  25.6955409  32.1868515 101.2012196  26.5930581
  32.9297662 102.1365070  25.6633782  51.8951178 108.3375168  41.5452766
  51.3954449 107.5617218  41.7996216  51.2381697 109.0285969  41.4612341
  30.2933669 102.8453064  58.8528013  29.9054766 103.3455563  59.5708036
  29.9889541 101.9488049  58.9936543  56.4278555  95.9077549  26.1150742
  55.8111095  96.6262722  25.9751415  55.8761930  95.1285362  26.1837530
  78.5778475  77.7440834  37.3561358  79.2307711  78.2588148  36.8818140
  78.9707041  76.8749809  37.4371195  69.6278633   1.6252566  27.2022748
  69.3813862   1.0317088  26.4929175  70.4535879   1.2724066  27.5337982
  40.1161051  98.9346695   8.6718088  39.8028898  98.6029053   9.5132685
  40.3954077  99.8313236   8.8568503  51.6108693   3.3746100  52.0845413
  50.7068325   3.6067534  51.8722677  51.6010357   2.4207068  52.1632671
  41.0963488  56.6775131  69.6482325  41.6507435  56.3342190  68.9475012
  40.2820969  56.9248724  69.2100143  84.6105766  67.4981308  31.7025709
  84.0297508  67.1241045  31.0400176  85.4596138  67.0890427  31.5352321
  53.4203386  88.6987305  12.7957952  54.2820787  88.2994652  12.9150784
  53.2744265  88.6754704  11.8500674  72.9481840  82.9307079  48.7871552
  72.0235682  82.7122211  48.6706638  73.3845472  82.0838451  48.8801098
  41.5460968 109.0640450  54.5924330  40.6709433 108.6770058  54.6157408
  42.1347380 108.3377552  54.7979593  54.5683826   4.1226721  37.7039266
  55.4886736   4.2218257  37.9477859  54.5237089   3.2651187  37.2810364
  71.7539358 107.2895813  44.9655581  72.7024794 107.3953438  44.8927164
  71.4006567 107.7784061  44.2222738  33.8145733  97.6500320  34.1702366
  33.9886785  97.1573162  34.9722052  34.6765184  97.9498196  33.8814211
  59.9298668  92.7540874  69.5178366  59.2166805  92.1867371  69.8106050
  59.8610258  93.5310268  70.0726748 112.5574220  14.7805358  49.5795488
 113.0700363  15.5436373  49.8462343 111.8620599  14.7183467  50.2344036
  54.5227623  91.5847874  48.1570339  54.3190289  90.8376503  48.7196207
  53.9074755  92.2652054  48.4303284 106.0366596  12.2889949  68.6598206
 106.5808071  11.5161753  68.5085249 106.3890089  12.6769210  69.4608212
  13.0206406 100.1618576  44.3109608  13.0316532 100.6782722  45.1168346
  12.6509380 100.7514286  43.6537218  99.3864835  43.2132197  63.3270311
  99.5561327  42.8294612  62.4666977  98.8222374  42.5767852  63.7661314
  31.2528491  93.3566856  55.3392315  30.3767300  93.6630154  55.1051092
  31.4224267  92.6326466  54.7365379  65.0303459 106.1838627  54.6968460
  64.6211910 106.0105610  53.8490343  65.9143543 105.8262920  54.6137285
  66.3896322  85.5606079  39.1122913  65.5515957  85.8564663  38.7567782
  66.9390011  86.3444519  39.1144800   6.9917141  16.7312188  86.5362346
   7.6277577  16.4048762  85.8996939   6.6696774  15.9452481  86.9775629
  42.7733898 107.3569202  49.2145157  43.2464552 106.7713451  48.6232948
  42.9252863 106.9912815  50.0859880  58.5144771   0.2047682  39.8777509
  57.8342820   0.2616931  39.2066884  59.0228594   1.0089255  39.7723055
  51.5617228  78.6282921  50.9251690  50.9347534  78.5051870  51.6379023
  51.1467934  78.2162762  50.1673412  66.3130249  10.3183413  50.4654217
  65.5403627   9.7717620  50.3223372  66.1642231  10.7246161  51.3192558
  73.0801214  10.7813502  47.8073931  73.9678491  11.0242415  48.0704117
  72.6599206  10.4950572  48.6183786  59.6419573  95.7125759  25.6087208
  60.2393103  95.6503677  24.8633838  60.1830626  96.0519218  26.3216615
  15.9828281 102.3820019  56.7518663  16.1652493 103.1064129  56.1533785
  15.9958541 101.6029263  56.1959028  35.3812885  94.7479057  45.8305740
  36.1257195  94.1738605  46.0109234  35.2640414  94.6971989  44.8819351
  77.7866316  79.8573494  73.1098986  77.9928923  80.3581429  73.8991356
  78.1139088  80.3978729  72.3909044   6.7057680   6.1070395  39.4539666
   6.5191721   5.4025412  38.8334012   5.8835959   6.2329436  39.9276853
  44.2475462 102.1372890  56.2934732  44.7032785 101.3225269  56.5049028
  44.9381304 102.7258301  55.9886074  44.0369797 104.0278530  18.6647558
  43.3320141 103.5625839  19.1150653  43.5877991 104.5917130  18.0350471
  12.8061998  93.7338257  51.0711384  12.9306567  93.0107498  50.4563999
  11.8975759  94.0052414  50.9408808  62.3259640 102.3863792  53.5935783
  62.8066444 102.3744583  52.7659082  63.0034018 102.3069954  54.2651510
  57.7354574  84.0906239  82.2766972  57.9950523  83.5311890  83.0087280
  57.8701353  83.5470867  81.5003777  48.4872580 102.6104069  20.3429890
  48.0699348 103.4599209  20.4858327  49.0036488 102.4610424  21.1349893
  18.1379712  92.6920223  28.2349062  17.9313588  91.9270706  28.7719178
  18.9215469  92.4378681  27.7474189  53.8388252 102.0492554  43.5645342
  54.0114641 102.6342392  44.3022442  54.1195869 101.1872196  43.8716316
  55.4695845 106.3554382  63.5815430  56.0678148 107.0906925  63.7147236
  56.0417175 105.5917263  63.5064125  97.9288734  14.3134261  33.6571622
  96.9846595  14.4704772  33.6511517  98.1976188  14.5037795  34.5559239
  65.8221865  97.3526859  62.1118689  65.7793045  97.9362774  61.3543653
  66.6617632  96.9022465  62.0199728  25.0526881  93.3238411  86.9077682
  24.3667793  93.1291580  86.2691307  25.0110984  94.2732906  87.0219803
  82.4907589 101.8802547  58.1381321  82.9284096 102.1791744  58.9352131
  83.1999779 101.7575645  57.5071096  13.7225771  88.9943695  54.6804333
  14.4661772  88.4596920  54.4022036  13.1431401  88.3816528  55.1332760
  52.3345137 101.3344288  67.7317524  52.9040956 101.4032841  66.9655514
  52.0963955 100.4081345  67.7707148  59.8225498 103.3166409  53.2041168
  60.7192993 102.9822636  53.1878281  59.3329811 102.6648903  53.7058830
  51.0813999 108.6156368  51.4760303  50.3045654 109.1745090  51.4966249
  51.1066341 108.2085896  52.3420048  76.4884520  87.0806599  72.9667044
  75.7869720  87.2110271  73.6047983  77.2699785  86.9277763  73.4978104
   1.3067841  21.7211009  70.0652695   2.1970724  21.9960261  70.2844191
   0.9080290  22.4952365  69.6678686  28.8172221 104.3545723   9.4668597
  29.6328759 104.6676731   9.8578924  28.2754064 105.1391506   9.3825281
  69.5713772  10.0249911  47.5010395  70.4208292   9.7184897  47.8184128
  69.5385302   9.7372580  46.5887022  85.1549530 101.8294907  72.4815845
  84.3179035 101.5552616  72.8562450  85.0446320 101.7130184  71.5379286
  56.2240982  78.2587433  72.2214603  56.4626503  77.3326921  72.1796370
  56.8833923  78.6502743  72.7944088  63.5565472  84.5905113  46.6936874
  64.3044233  84.0177917  46.8636942  63.7695408  85.0235653  45.8670521
  65.8173180 108.6969471  57.2833014  65.5479050 108.5370064  56.3788319
  65.0495672 109.0931416  57.6954031  73.3630896 109.1753101  48.5384655
  74.0579796 108.6354733  48.1617212  73.8180017 109.7679901  49.1368103
  57.3637486  93.7168407  44.0034485  57.7358294  93.5590744  43.1357527
  58.0689716  93.4930897  44.6107626  57.9382468   5.1575804  47.4193573
  58.8762702   4.9829913  47.4959230  57.8422929   6.0719729  47.6856518
  14.4524073  21.7340613  39.5076680  15.2483439  22.0675231  39.9218130
  14.3636297  20.8419371  39.8430228  93.1618595  94.0539551  27.0840406
  94.0976906  94.1181850  27.2746491  92.9863644  94.7881413  26.4954829
  45.9797192 106.6343307  31.5915537  45.5179548 106.6958809  30.7553625
  45.3965807 106.1200905  32.1498966  94.4180835  21.4366389   7.5742662
  94.5433391  21.6283656   8.5036665  94.3652548  22.2966338   7.1573037
  18.9500856  78.4159899  30.6270814  18.4521782  77.9428720  31.2937784
  18.4235120  78.3342314  29.8319292 100.8520902  -0.0604772  64.7184658
 101.2497963   0.7583571  65.0143766 100.1801933   0.2117491  64.0934229
 105.6376280  20.0253249  49.9073410 105.8603872  20.3588916  50.7764435
 105.6645263  19.0732051  50.0020885  79.9865341  60.5803967  62.3177099
  80.5722427  59.8400831  62.4761581  79.8483610  60.9659243  63.1828737
  73.5700035  76.9337320  11.6091180  72.7183819  77.0672417  12.0252287
  73.3605957  76.6958809  10.7058966  54.8547173  83.0033970  18.0919325
  55.1279306  82.1325016  17.8036070  55.6494379  83.3965492  18.4526098
  66.2615490  97.0466805  13.9374804  66.1399412  96.6130829  13.0928278
  66.9713545  96.5600395  14.3565249  49.4517136  93.1598759  45.2906895
  50.3872919  92.9742908  45.3712082  49.4118309  94.0780449  45.0230980
  49.4092083  96.3011360   9.9235678  49.5091772  96.0069561   9.0181953
  50.0788307  95.8179855  10.4077148  71.2843002   0.2879954  53.4541988
  70.8386315   1.1348582  53.4750509  71.7922534   0.2646304  54.2651653
  80.6280292  25.4962397  55.0516796  80.6833042  24.6676493  55.5277205
  80.3942217  26.1409713  55.7194376  80.1728166  10.8370543  28.0404472
  79.7602428  11.1486483  27.2348881  80.6622471  11.5922881  28.3665085
  55.1741934 108.6304188  30.9732676  55.3177404 108.1468487  31.7867708
  55.0240374 109.5329857  31.2544489  24.3421388 107.2512627  66.6546726
  24.2620444 106.8163109  65.8057690  23.7047052 106.8060684  67.2129869
  53.2384682 104.9675369  92.8030968  53.5244274 104.3954563  93.5152721
  52.8280973 104.3768692  92.1714783  81.8266678 103.1483841  45.1927185
  81.6736698 102.2788906  44.8228645  80.9623814 103.4412384  45.4816484
  97.7707924   0.1014281  64.1774178  97.4949754  -0.1766824  65.0508118
  97.5446905   1.0307646  64.1394424  49.1055441 107.3335934  62.1255112
  48.9058876 108.2431412  61.9039679  49.5942211 107.3888302  62.9467154
  76.5550947  71.9694567  36.7654657  76.6252756  71.6898060  35.8527207
  76.4445353  72.9190254  36.7172074   0.0049614   9.0146399  64.6539164
  -0.0300575   9.8536349  64.1944695   0.8427595   8.6329127  64.3919849
  17.8514647  21.2379409  26.7229104  17.9917692  20.3939391  27.1521068
  18.6795973  21.7045451  26.8356180  20.5900311  63.4809017  80.2039719
  21.1524320  64.0710020  80.7056904  19.8205829  63.3538342  80.7589817
  68.9262056 105.5641460  29.3523693  69.0933371 106.0268593  28.5312796
  69.7966909 105.3516579  29.6890259  96.4156831  10.8754397  54.1783381
  97.2032465  10.6360388  54.6668673  95.9378923  10.0523616  54.0759516
  53.3965969  96.1990070  15.0772703  54.2060900  95.7021809  14.9584258
  52.8800678  95.6728458  15.6876683  16.9373024  92.3269272  43.0456400
  17.7355850  92.8346157  42.8999519  16.2428784  92.9833317  43.1016827
   1.2441002  39.4588513  93.7858741   1.5606247  39.1468091  94.6336211
   1.9427763  40.0286622  93.4643118  91.2785244  93.4880638  19.4323897
  91.6016579  93.7423897  20.2967572  92.0700073  93.3346367  18.9164066
  87.1302128 109.1176510  35.4243660  86.4432621 108.6032867  35.0003910
  86.6613007 109.6859074  36.0354614 101.3196005   3.7334777  44.6311569
 100.8591284   4.2446376  45.2966738 100.6284727   3.4261084  44.0445566
  57.9048586  87.8698730  32.9404879  58.2395649  87.0296955  33.2540393
  56.9542789  87.7955055  33.0247593  81.6019024  14.5013953  71.0105467
  82.4606765  14.1277266  71.2082958  81.4012302  15.0536395  71.7661858
  87.7847004  98.7081623  26.2432885  87.9571724  99.1318226  27.0841217
  88.3852577  99.1351128  25.6323242  64.5594454  91.6899300  64.4461966
  64.9330759  92.3385048  63.8495541  63.6164856  91.8515587  64.4156408
  68.0864477 106.3734627  54.6154976  67.9163885 107.2055054  54.1738892
  68.8369322 106.0042477  54.1499996  54.3255377  87.9616356  64.6002340
  54.2605352  88.3626747  65.4669380  55.2620745  87.8061867  64.4778776
  89.8074545   4.9037600  22.2091246  90.0165762   4.1230155  22.7218938
  89.1529049   4.6068812  21.5769386  79.5272268  23.5881663  35.7862616
  80.3417076  24.0225077  36.0396361  78.8426317  24.2255831  35.9893990
  62.1689034  65.9747267  57.6168633  62.7707148  65.4259014  58.1197023
  61.7028856  66.4869165  58.2777119   5.1801180  13.8408995  18.5746801
   4.5249819  13.2198287  18.8929415   5.4092859  13.5211325  17.7020586
 109.7834076   1.6742564  46.5730858 110.5329145   1.7568064  47.1627092
 110.1067651   1.9894362  45.7290888  40.3554726  82.8006268  27.0901299
  40.5600977  81.9856071  27.5485134  41.1918163  83.0842400  26.7209077
  34.2894697  90.6397152  69.2148972  33.6003184  90.4078579  68.5923719
  34.4820571  89.8223972  69.6743917  67.9829324   3.1893302  82.3296070
  67.2016085   3.7390757  82.3890686  68.3240617   3.1604529  83.2234955
  81.5062345  20.2372885  33.6559463  81.1276687  19.4132090  33.9622355
  81.5237011  20.7962084  34.4328189  53.8597202 106.5778065  27.8941989
  54.3882942 105.9496212  28.3863640  53.5151529 106.0747433  27.1563411
  63.5184860  73.9456940  65.5155706  63.7934208  73.1624889  65.0388765
  62.5671482  73.8637590  65.5824327  50.7998419  68.5954428  62.5312471
  51.1393738  67.7180338  62.3548794  50.3442287  68.5120487  63.3689213
  29.5558357  98.2717609  44.7616768  28.7617779  98.4633255  44.2626715
  29.4560504  97.3581314  45.0291634  15.5099440 108.2564640  25.5018115
  16.4312935 108.2303429  25.2436209  15.4968452 108.8026810  26.2877584
  41.7153692  93.3069992  42.4578047  41.1533499  93.6365032  41.7565203
  41.3928223  93.7414837  43.2473660  62.7789354  79.8193073  19.9652123
  63.7008905  79.6916151  20.1886630  62.3511505  79.0086460  20.2409935
  47.2802877  99.3385124  81.2373829  46.4429569  99.3049526  81.6999722
  47.8030634  99.9682522  81.7337322  51.0143362  22.0367761  91.2773993
  50.2597796  22.3735948  91.7605412  51.1210810  22.6446910  90.5457741
  73.7706150   3.2901335  40.0977898  74.2171563   4.1290427  40.2120399
  72.8846778   3.5259009  39.8225427  14.4428003  25.2905279   0.3122920
  13.7968385  24.6287924   0.0651664  14.3874634  25.3345018   1.2668818
  62.0134068  92.6204300  60.7962799  61.0580111  92.5849342  60.8430719
  62.3011303  91.7688942  61.1254120 113.0661262  33.2043791  52.7773523
 112.8459562  32.5939036  53.4809637 113.9397014  33.5243846  53.0025196
   8.6582613 100.7908249   8.8721639   7.7648664 100.8868790   8.5422385
   8.5595727 100.7539463   9.8235488 103.8485063  24.8371936  46.5971994
 103.9467968  25.0388575  45.6666613 103.4344782  23.9743090  46.6128445
 107.4150003  34.0050173  42.5850487 106.7015136  33.5658503  43.0479765
 107.0554365  34.8593188  42.3460722 112.9600586  37.4102450  33.1707096
 112.8083528  38.3432818  33.0201840 112.5181593  37.2264147  33.9996624
   9.2256712   6.6892577  39.9107218   9.2347120   7.4970008  40.4242468
   8.3057188   6.5636683  39.6780252  71.6550970 105.2987385  93.9907742
  71.5149450 104.3576431  93.8862514  72.4139118 105.3649712  94.5704651
  25.2878881 107.2467613  70.8093452  24.8275685 108.0858612  70.7933044
  25.6605315 107.1611977  69.9318218  89.4870866  42.1399070  24.4407749
  88.9575638  41.5294219  24.9537444  89.3920864  41.8386126  23.5372090
  72.9322399  19.7416163  62.8799820  72.2566904  19.6811438  63.5554123
  72.5555004  20.3183413  62.2153854  88.8018860   3.3472682   1.5308836
  87.8553261   3.2590914   1.6426097  88.9207472   3.4796286   0.5903610
  39.0783691  99.9328995  54.0527678  39.7639513 100.5970860  54.1239119
  38.2608080 100.4306316  54.0619040  39.4686317 109.1578865  40.5173349
  39.8365664 109.5667362  39.7339439  39.6053553 108.2198429  40.3846407
  75.7391691  76.5467739  43.0369949  75.6674528  77.3793745  42.5702429
  76.5960789  76.2033892  42.7839756  54.1207695 101.0009861  25.7638431
  54.9395943 100.6206608  25.4458618  54.3788052 101.8397713  26.1460543
  80.6155885   1.1884452  58.5678339  79.7805799   1.2063933  59.0354633
  80.4214157   1.5791560  57.7158546  66.5057230 104.7776508  14.9603045
  66.9153118 104.9468517  15.8087385  65.6544352 105.2119446  15.0144482
   3.3357500   4.6784068  12.4299502   4.1973852   5.0591803  12.5997293
   3.3446192   4.4730902  11.4950705  44.7819090  99.8482895  23.3045936
  44.5549011 100.6678963  22.8653407  44.6609926 100.0341225  24.2357635
  61.6167784 100.8126545  50.7674170  61.5253210  99.9577713  50.3466463
  60.7209063 101.1425686  50.8367014  99.7858238 108.1921482  38.5333967
 100.1636124 109.0646935  38.6437845  99.6498775 107.8752899  39.4263434
  94.6620763   2.5559855  40.0649595  94.2415632   2.8544665  39.2585444
  94.0463747   1.9242240  40.4364777  94.7792162  19.3285418  38.3433080
  95.3489841  19.7669745  37.7113485  95.3726400  18.7920619  38.8689232
 115.7583536   8.8544417  45.6053209 116.6527523   8.5766078  45.8030462
 115.3620828   8.0971957  45.1742983  82.0728779  97.3967075  66.2136793
  82.1363354  96.4496613  66.0900068  82.7610874  97.6022720  66.8464136
  59.3891907 105.4302216  54.8913479  59.6543217 104.6685982  54.3757248
  58.4349012 105.4480648  54.8189259  18.7774347  11.9456435  23.3391786
  19.7148203  11.9902755  23.5277057  18.6217379  12.6648284  22.7269959
  77.1717262 108.7137508  40.1953793  77.7113342 108.0516338  40.6274128
  76.9132710 108.3090687  39.3673325  13.0848192  44.0850878  33.1379795
  12.1404051  43.9565325  33.0496931  13.4535574  43.7081767  32.3391056
  84.2740154 106.5101719  40.1455259  84.5571041 105.7202530  40.6060886
  83.4493351 106.7509460  40.5676079  95.7788181  89.9522877   8.1284875
  95.6051636  90.8554459   8.3937788  96.6895866  89.7995949   8.3803058
  13.8261103  29.6624995  38.5842586  14.0258860  30.1052237  37.7594447
  13.3642077  28.8659430  38.3227801  53.8724041 103.9783859  45.5955172
  53.6574173 104.9110031  45.5801725  54.7931433 103.9490891  45.8555508
  83.2709694  93.5508060  76.8086672  83.8913441  93.0776119  77.3631430
  82.7290535  94.0452957  77.4235153  12.2826254  87.5461483  42.9383564
  11.4872396  88.0779457  42.9102325  12.7186537  87.8100491  43.7485838
  93.4070683  85.2895260  54.9596882  94.0466309  85.0517559  55.6309986
  93.5736275  86.2163067  54.7877502  65.7205296 102.0462036  22.7791524
  66.1312580 101.7825413  23.6025691  65.7025194 103.0025291  22.8159261
  94.2361927  55.9773302  42.5564909  94.7742748  56.5833187  43.0658722
  94.7547436  55.7978106  41.7722034 109.1345276  30.7249785  50.3314495
 109.6139921  30.2173186  49.6767569 109.8045219  31.2591124  50.7581186
  96.5178299  90.6809616  60.2566814  96.2035370  90.3782082  59.4047499
  97.4290562  90.9294796  60.1013088  82.8018821  30.8587886  51.5640354
  83.2742513  30.1300288  51.9665337  82.4202503  31.3337470  52.3022747
  95.6824207 107.0962429  57.2221565  96.4098740 106.9718170  57.8317213
  96.0608387 107.5911999  56.4954853   0.3534197   5.7859088  48.4440517
   0.4864000   5.1199198  49.1185999  -0.5836607   5.9780265  48.4785891
  46.0737658  85.7956791  46.4664030  46.2675238  86.3035774  47.2542715
  45.1282549  85.8874130  46.3488054 112.7755226   5.6922675  42.2369957
 112.8582205   5.9322501  41.3140631 113.3564342   4.9387122  42.3415136
 115.0007356   3.5704566  16.3806641 115.2292074   2.7169562  16.0124588
 115.8361353   4.0324164  16.4508414  90.5576385  31.4624358  80.9950542
  89.8086752  32.0220614  80.7898712  90.9786237  31.8896914  81.7410183
  61.8642378  92.5385761  64.5857906  61.7476892  92.8037071  65.4981279
  61.0711527  92.0451450  64.3765783   1.4639353   2.5586272  40.6300926
   2.3856711   2.7012873  40.8452129   1.4732575   1.8335391  40.0052738
  21.1131215 103.8750362  61.5205050  20.8385277 103.2826138  60.8206034
  21.5000463 103.3013439  62.1818638 106.0518373  18.7000991  67.8267479
 105.1019157  18.7607527  67.7257395 106.2473644  17.7716685  67.7001810
  42.2262526  95.1215267  32.0055580  43.0912161  95.4902744  31.8264055
  41.7105532  95.3311443  31.2268710  98.1369556  23.5512114  58.4995794
  98.8351024  22.9087401  58.3728933  97.7584947  23.3290625  59.3502569
 105.9923280  27.9114295  44.0291643 106.7554868  28.1982089  43.5275888
 106.3602842  27.4400283  44.7765779  98.4826864  14.3845702  40.9093189
  98.0055679  14.1393805  40.1165533  99.2602171  13.8263179  40.9032106
  64.3625689  90.6755638  34.6216059  64.2851782  91.5535736  34.2483068
  65.2359486  90.3814411  34.3629003 114.1201509   3.9162398  33.6084795
 113.7990726   4.6724177  33.1172276 115.0351967   4.1242648  33.7973070
  67.0567036  90.8171558  21.8255067  67.2439432  91.5462589  22.4167609
  66.7354965  91.2337112  21.0257983  70.9897661 104.5075703  80.2484608
  71.3233471 104.7774124  79.3928099  70.2978611 105.1388931  80.4457569
 100.4743099  91.4740753   0.2401374  99.6894550  91.9709778   0.4710312
 100.6212139  91.6742802  -0.6842916  53.5455513  89.6117687  50.0895119
  53.5468006  89.8523521  51.0159826  52.9220295  88.8878822  50.0308752
  58.5597181  88.7290287   2.8411895  58.0096626  89.4504356   3.1465405
  59.1389322  88.5403538   3.5795268  93.1046677 105.4604912  16.2907517
  93.8925362 105.9189034  15.9986150  93.2313061 104.5573807  15.9999323
  60.2842522  80.0872231  34.1212034  59.3316936  80.1087666  34.0295863
  60.5388832  79.2319155  33.7750149  64.6070814  89.1088867  70.3693533
  65.2768278  89.5458698  69.8433113  64.5663404  88.2205009  70.0153208
  96.5160907  27.3949576  35.0895047  97.0403970  26.9536734  34.4212222
  97.1553386  27.6963378  35.7350779  49.6486855  88.3525944  49.0832090
  49.7930813  89.2976189  49.1314316  48.8490915  88.2063770  49.5886850
 108.9934362   1.5645266  35.3234959 109.2937626   2.1208907  34.6048236
 109.7948040   1.1833049  35.6822586  95.4426016   5.0409079  41.0690355
  95.3270591   4.1220999  40.8268166  95.0419153   5.5302287  40.3505373
  44.4094467 107.7034664   6.5136749  44.4997787 107.4859619   7.4414492
  44.8031569 106.9616890   6.0543358  81.0030092   8.6375857  74.7119999
  81.9600977   8.6228801  74.7129822  80.7714142   9.1008712  73.9070415
  39.4130850 106.9415760  31.9833207  38.7410760 107.1762562  31.3433480
  39.8019314 106.1377621  31.6384888  58.4165621  98.7779617  49.6377039
  58.3367634  98.2133198  48.8689137  58.2296658  98.2015419  50.3786755
  46.0273266  99.9774265  48.6900091  46.3709736 100.3410149  47.8739548
  46.3449240 100.5720139  49.3695974  23.9623999  12.5333453  54.9488449
  24.1161417  11.7215205  54.4655848  23.7214350  13.1704474  54.2763329
  34.9959183 107.9535007   6.3025343  34.5112824 107.2685719   6.7632306
  34.3317962 108.4117985   5.7876265  85.9356880  91.8181419  41.9917107
  85.2827358  92.2597790  41.4487171  85.6625557  90.9007454  41.9962168
  55.8566189 103.2094097   7.3361921  56.6490030 103.7267685   7.1923524
  55.3415823 103.7271404   7.9549974  75.5004740 106.1394596  17.1612859
  75.6891489 107.0698929  17.0391083  76.3464451 105.7064819  17.0468712
   7.7697741  95.6971593  84.8791188   7.8929030  94.8594136  85.3254986
   7.5047528  96.3013787  85.5725974  33.8279152 100.0325775  20.0361133
  33.2574940  99.6601963  20.7085657  34.7148442  99.8523426  20.3477287
  23.5828184  14.8966170  36.3612795  23.3722471  15.5868197  36.9901752
  23.6704420  14.1060210  36.8937373  64.0076017  71.4677525  13.1028807
  63.7334633  71.4054537  12.1878946  63.3054686  71.0398674  13.5929406
  46.5783834  86.4458847  48.9494181  45.7395649  86.9068146  48.9617443
  46.6728449  86.0967064  49.8356390  78.5913004   4.9184180  16.4767003
  78.7422146   5.5580664  17.1726251  79.4014896   4.4101001  16.4387846
   6.6952395  36.5143157  47.4678278   7.5421785  36.8011904  47.1263123
   6.3205980  35.9839774  46.7645407  68.3321428 106.8603611  77.8883696
  67.9773569 105.9731579  77.8315306  68.5056019 107.1076012  76.9800663
  82.5514603  99.8332024  39.4273758  82.5443935 100.5105495  40.1036739
  82.5475025 100.3184795  38.6023140 102.7524818  11.7797137  86.0180759
 103.4469379  11.8014956  85.3596878 102.4692644  12.6905776  86.0976982
  55.3115248  27.7096606  51.2539530  54.9708914  28.1370402  52.0397997
  55.0354742  28.2769156  50.5340624  64.2542505 104.2511559  33.6068058
  64.0446281 104.8660660  32.9038286  64.7223186 104.7782135  34.2543840
  48.4255695  95.1096058  40.0711870  49.3619251  95.2530670  40.2086258
  48.2646513  95.4165936  39.1789460 103.4113516  15.1162196  55.1880550
 104.1925300  14.6912623  54.8339224 103.2700456  14.6910525  56.0339260
 115.6078781  13.1077910  53.7272644 115.0454868  12.8346587  53.0024576
 116.3571323  13.5271407  53.3041763  16.7697847  40.7601362   1.1767882
  16.4079082  40.0562006   1.7150706  17.2867334  41.2864500   1.7867011
  93.8379778  16.7663718  66.0730886  93.2391704  16.2626029  66.6243410
  93.8765634  16.2766410  65.2515650  98.3286298  11.8666602  51.3268566
  98.0526794  11.9486953  52.2397375  98.1527151  10.9523631  51.1047077
   0.2276348  10.3776313  66.9579649   0.1286577   9.6685172  66.3226795
  -0.2302242  11.1192942  66.5623188  44.8707247  99.9494934  39.3249941
  45.5481672  99.2736340  39.3477178  44.1061640  99.5098400  38.9529896
 100.4164219  99.0456867  38.2703304 101.2285423  98.5749245  38.0830717
 100.1328945  99.3817711  37.4200988  69.2102051  83.0106354  61.5979815
  69.2716885  83.9637089  61.6619349  69.2284870  82.7079868  62.5058937
  38.9213406  52.2274632  57.3856574  38.3099114  52.9629846  57.3483664
  39.2022549  52.1033235  56.4790660 100.2827657  28.2367659  42.8800869
 100.8627618  28.1761122  43.6391354 100.2120794  27.3373843  42.5601864
   5.1396631  17.7190734  71.6248035   5.6567740  17.0011092  71.2596083
   4.8998617  17.4196101  72.5017595  67.6241064 100.8750248  21.2258220
  66.8498945 101.2816334  21.6150498  68.0196238 100.3784943  21.9422364
  68.0364264  31.0809661  21.6987991  67.8168310  31.7706729  21.0724449
  68.9820207  30.9651232  21.6057396  56.0127831  86.0486984  67.3091793
  56.5460205  85.7569599  66.5697384  55.2175140  86.3987446  66.9076252
 105.1172079  11.1917353  60.1990986 104.4229091  11.8189383  59.9971104
 105.9172453  11.7170096  60.2152109  92.4564422  10.7783271  36.4428687
  93.1317342  10.1422358  36.6786599  92.1371330  11.1107302  37.2817826
 110.8000673  45.5896998  48.9738703 110.7416214  45.2238417  48.0912828
 110.6399835  46.5260459  48.8560915  63.4531164 100.9897709  67.9752636
  64.2877626 100.5416489  68.1123352  63.6157370 101.5789318  67.2385979
  53.9079380 109.8741913  40.0284004  53.2280540 109.6883583  40.6760502
  53.9505291 109.0825653  39.4919801  18.5397410  15.7845259   9.4852030
  18.8881754  16.0386897  10.3397346  19.2967009  15.4414321   9.0103120
  82.8480339 107.9752350  72.7670050  81.9009972 107.9284477  72.8980017
  82.9973316 108.8502216  72.4087477  65.1130247 102.8149223  78.6318970
  64.6308470 103.3198833  79.2866898  64.7357559 103.0859280  77.7949619
  69.8803711  87.3786736  17.2317982  69.0187979  86.9788551  17.3503876
  70.1175356  87.1728325  16.3275790  66.6769886  77.4509907  55.5194998
  65.8745289  77.3826075  56.0368109  67.2629786  77.9849529  56.0559082
  72.1341838   0.6725836  27.6586056  72.3730768   1.5977240  27.7159572
  72.6027025   0.2588511  28.3835483  68.0901814  74.6736431  67.5956726
  67.5465679  74.1978884  68.2236671  67.4634171  75.1077032  67.0168877
  51.3174915  95.0348663  40.4443502  51.9125557  95.5064297  41.0272455
  51.6557932  94.1395569  40.4299688  50.2757502 109.1200542  48.0394363
  49.4463778 109.0378952  47.5686693  50.0498772 108.9502907  48.9539862
  28.8792967  22.5192977  64.9378157  28.1593870  22.8462840  64.3983364
  28.5650229  21.6796828  65.2732468  84.5602131  98.2499504  80.4730225
  83.9429188  98.9424038  80.2370453  84.1426468  97.7960873  81.2050533
   5.2077269   3.1624366  58.6202288   4.6225332   2.4509955  58.3601809
   5.9891199   2.7205229  58.9524508  85.5137457  25.9308768  65.0306273
  86.1629833  25.2755786  65.2861834  84.9142755  25.4607917  64.4510746
  96.5196003  27.3430205  61.5987778  96.2202562  28.2181025  61.8454790
  95.7161964  26.8289519  61.5180969  69.2884959   0.6874705  60.6648350
  69.0284480   0.5104781  61.5688705  69.3884529   1.6386557  60.6262207
 113.2939972   2.4013377  69.9180984 113.2058967   1.6306067  69.3573427
 114.0243543   2.8907347  69.5395517  69.2860079 109.7206974  69.5003510
  70.1327324 109.9177933  69.9009037  69.1302395 108.7999058  69.7103548
  94.4795860  10.4860545   6.3657528  95.2078832  10.7181693   6.9418913
  93.9103521   9.9395705   6.9075662  64.6884251 109.5745659  25.5131269
  63.9238501 110.1244354  25.6843114  64.7950363 109.6018887  24.5622730
  89.6441936 106.0285473  40.3640890  90.2930069 106.3638020  40.9828663
  89.4768906 106.7616463  39.7718048  39.2812872 109.6965981  46.0182333
  39.6729112 108.9731407  46.5076017  38.4751821 109.3307877  45.6540680
   6.2066435  22.5620509  78.1144714   6.4468454  22.7046347  77.1989346
   5.8992552  23.4164763  78.4173012 113.3517421  17.2788859  54.8197079
 113.0444349  17.8237582  54.0952110 112.5531162  17.0161963  55.2773380
  62.7113867  93.9168072  22.5551820  63.1685019  94.1830254  21.7574334
  61.8536520  94.3368530  22.4912524  46.5386391  90.2691555  30.9596610
  45.7308388  90.0429821  30.4986477  46.3931942  89.9716663  31.8577576
  40.0332928  91.4503860  20.7246304  39.5377469  92.1843147  20.3613019
  39.4507599  91.0701847  21.3821530  96.5433372  18.1502200  33.3894348
  96.4027799  17.5805522  34.1457105  96.7150606  17.5485850  32.6650190
  93.4577001  11.4706565  77.0541286  92.8877557  11.0775138  76.3931942
  93.0849327  12.3391295  77.2058630  93.4283066  86.2853050  86.5516376
  93.1054592  86.8475819  87.2558022  92.7165508  86.2701893  85.9117985
 102.1108497   0.0229026  30.7090259 102.0437254   0.9352828  30.4274416
 102.8658928  -0.3203058  30.2311659  92.6928152  18.6123801  51.5335131
  92.8526748  19.5241595  51.2899303  93.5645355  18.2509089  51.6937351
  94.3363203  29.8573924  66.1114693  93.3909095  29.9827624  66.0295343
  94.4283928  29.1054488  66.6965675  59.9019718  87.0249367  60.4065800
  60.8255720  87.2671604  60.3393173  59.4560671  87.8413200  60.6322098
  54.5852375 102.5582027  53.5573959  54.3113756 101.6520023  53.6989164
  53.9197540 103.0819798  54.0035200  81.7174972  35.5015612  12.5272024
  82.1636165  34.6775294  12.3318064  82.2666086  35.9198142  13.1903577
  50.3504515  85.6081772  50.3810215  50.9580755  86.2715721  50.7080412
  49.7151470  86.1006737  49.8613358  88.1453323  90.6666088   8.2441074
  88.8253307  90.5281544   8.9033997  87.8986168  89.7846794   7.9656231
  82.2583961  66.4975834  50.4758024  81.5811825  65.8340502  50.6074381
  82.3896885  66.8811226  51.3429213  83.5981178 108.8185883   4.9018463
  83.8119698 109.5258522   4.2933369  83.4103870 109.2626667   5.7287621
   2.1827721  32.6974440  64.0821171   3.0447077  32.2811557  64.0808296
   1.5705513  31.9800616  64.2457533  76.3848175   2.1423579  38.7412333
  75.8447517   2.9034568  38.9540505  76.0182751   1.4333106  39.2695642
  88.3161892   8.3310939  51.8682671  87.4334301   8.6692095  51.7177773
  88.4704603   8.4715987  52.8024435  45.0495243  78.2240915  52.3063612
  44.5582628  78.9924240  52.0155716  44.8720884  77.5601053  51.6401196
  84.8463358  13.5856677  38.2895660  84.0501322  13.3121348  38.7450624
  84.8115076  14.5421744  38.2997727  75.9565163 105.1052380  42.0802164
  76.1473560 105.2939606  42.9990149  75.0006199 105.0938797  42.0315695
  78.2667984  18.7704230  32.8667784  78.6100019  19.2668677  32.1238184
  77.4805249  19.2479850  33.1312466 104.3673528   0.7201720  64.3173027
 103.4911884   0.3993369  64.1036654 104.6985973   1.0784960  63.4938288
  42.5994396  99.6796417  37.3165870  43.3611393  99.5215416  36.7588711
  41.9133329  99.9603558  36.7110324  74.3221569 106.9428253  46.2614250
  74.5573044 106.8223000  47.1814299  74.2255735 107.8898239  46.1609793
  71.8509769 103.9092064  19.3422735  72.2327805 103.2043934  18.8191092
  72.0063734 103.6454678  20.2492070  30.1348852   8.7506819  74.6251631
  30.2304148   7.8674365  74.9814892  29.2350363   8.7818671  74.3003178
  99.4015026 101.8543243  27.8410006  98.8693428 102.5805855  28.1659341
  98.9207745 101.0691643  28.1030464  72.8759575  57.1989918  50.6160450
  73.5882807  56.7530107  50.1578617  72.3615599  56.4917183  51.0051394
  20.9344816  97.5930119  23.8450027  20.1826000  97.9225636  24.3372416
  20.7383919  96.6674995  23.6993694  82.3771871   6.4527465  60.3660154
  82.1814121   7.1851111  60.9504366  82.6001133   6.8652201  59.5315123
  36.6312146  97.5830078  48.5692501  37.3358035  97.2261238  48.0284834
  37.0818424  98.0213547  49.2910624  54.7063541 103.1054401  82.5352383
  54.9167967 103.8109207  83.1469917  53.8941002 102.7290058  82.8740120
 108.6132908  82.3734856  57.2272110 109.3609810  81.7803383  57.1539259
 107.8550529  81.7945385  57.3054600  72.7264786  91.1548901  36.5461135
  73.3603001  90.4446030  36.4461589  72.6931477  91.3152122  37.4892044
  34.9533796 101.0187531  55.9841585  34.2067289 101.5967369  56.1412430
  35.6991625 101.6112614  55.8894157  71.9543494  23.1642485  58.8833904
  72.8307403  23.4427691  58.6176920  71.4824523  23.9810229  59.0459299
  65.6703997 101.3511086  47.1670389  65.6902218 100.8530998  47.9842472
  65.5848408 102.2632313  47.4444246  90.8530010   1.1756087  29.3285656
  91.7556013   1.3969851  29.0993595  90.9074653   0.8470488  30.2259564
  88.7365116  39.0360118  27.7765870  89.1420091  38.3392382  27.2605371
  88.4556831  39.6817923  27.1282506  98.2732834  31.7747164  16.3357818
  98.3416284  32.6710559  16.0069525  97.3320068  31.6056872  16.3765883
 115.6471456   5.1683665  43.2652330 116.4134229   4.7383452  43.6448765
 115.1955761   4.4736720  42.7859402  77.7382864   3.8370944  30.8033276
  78.1659807   3.1161071  31.2653756  76.9392980   3.4510852  30.4443836
  54.7291136  92.9440498  51.7723131  55.5125999  93.2204437  52.2476959
  55.0476599  92.3008728  51.1390018 114.4117941  18.1816149  87.5457382
 114.6483720  18.6407519  88.3516216 115.2019466  18.2209254  87.0068932
  62.4882603 109.3174839  45.5301857  61.9352674 109.5215130  44.7759962
  62.5876379 110.1526260  45.9872341  62.0782948 102.2435188  47.9637766
  62.4031734 102.9742146  47.4376917  62.3648262 102.4438953  48.8548279
  85.9637464   8.6649943  42.5809145  85.8987058   7.7939749  42.1893501
  85.2235950   9.1484500  42.2139263  83.6005319  50.9206534   1.2556964
  83.4791435  51.6817427   1.8233703  84.4047369  50.5104209   1.5738058
  63.6331320  79.7045040  53.5023260  64.4410133  80.0006580  53.9216805
  63.6196232  78.7587833  53.6495352 101.5034116   9.3268729  46.7136002
 100.5630125   9.2656375  46.5458918 101.6135515  10.1687289  47.1556330
   2.7768778   2.4060584  52.5582123   2.5478529   1.9277430  51.7613459
   3.6606096   2.7352668  52.3943186  88.1835903   5.8807803  28.6197019
  89.0396417   6.2276507  28.8708878  88.1882251   4.9780131  28.9378452
  67.3174334  96.8268776  58.8891029  66.9441795  97.6221180  58.5089540
  66.7608166  96.1205673  58.5611725  11.6106772  33.3694316  25.1236749
  12.3494314  33.6626960  25.6570315  11.4988016  32.4475337  25.3556800
  44.6862841  90.7877064  40.7800245  45.4245186  91.3737106  40.9468555
  44.0609026  91.3232899  40.2918863  55.7988834  80.9098339   5.6744480
  56.5130043  80.9807396   6.3078815  55.8142519  81.7421722   5.2020067
  90.0592197  43.5839320  10.7915378  89.3749965  43.6041308  10.1224625
  90.8587850  43.3714534  10.3101063  54.9427795  93.7167931  57.9499769
  54.9922895  94.1515636  58.8013029  54.0352535  93.4193802  57.8853464
  83.4775604  24.2915774  63.8268900  82.7711643  24.0215541  64.4136810
  83.9776863  23.4907008  63.6697197 115.8564151  21.7789126  42.7344418
 115.0295032  21.3579894  42.4993420 116.2943853  21.9309188  41.8969965
  43.7612581 109.6377563  38.6225128  44.4558907 109.8082733  39.2586255
  43.3304691 108.8460350  38.9447522  66.5170765  92.0936012  39.8512053
  66.0787487  91.7865658  39.0575862  67.1652889  91.4162350  40.0441313
  37.3884130  92.5144577  40.6406116  38.3084226  92.4177933  40.3947020
  36.9956398  92.9975319  39.9135661   1.1288761  13.7052775  41.3501596
   0.6458687  13.4707404  40.5577421   1.7086672  12.9599143  41.5066910
  96.1694587  -0.0294256  39.5197892  95.9222187  -0.6954049  38.8782549
  95.7893718   0.7814742  39.1818309 110.5180992   6.9467116   1.1653323
 110.2933325   7.8658629   1.3097805 110.0762333   6.4779711   1.8733379
  12.4315619   4.9648333   6.2978792  12.5728010   4.7606707   5.3734332
  11.4811491   4.9341822   6.4074427 103.9881706  76.5370560  14.5716429
 104.3963146  76.5132380  15.4371428 104.0468216  77.4543047  14.3043399
 111.5624727  51.2778044  31.4336729 111.4611257  51.1864806  32.3811030
 110.7010759  51.5607596  31.1268187 102.5367641  79.9667883  29.4925857
 101.7801762  80.5268478  29.3189502 102.4093342  79.2085361  28.9224553
  53.4242010  75.0640678  66.3792610  53.7049198  75.8272409  66.8842316
  53.2292700  75.4113007  65.5088234  69.9661446 109.8311615  64.3337059
  70.4928780 109.1424751  64.7392893  69.3986988 109.3674088  63.7179375
  20.2271818   4.4016982  48.3834600  19.3632006   4.0230323  48.2210684
  20.2058386   4.6607638  49.3046856  85.1464380  27.9783107  61.1134291
  84.3792833  27.6246215  61.5635633  84.9395097  27.8911162  60.1829386
  50.0681639 102.1406746  45.8203983  50.1876259 101.2469006  46.1415482
  50.6612158 102.6685619  46.3550520  50.7968856   0.6262732  46.3363504
  51.4298178   1.3440657  46.3163328  51.2238563  -0.0551366  46.8555880
  62.8971471   1.3349391  71.9082355  62.1685589   1.0689498  71.3473082
  62.6169718   1.0992194  72.7926445   3.7740015  20.6180907  54.3772697
   4.1702532  19.9243689  53.8500500   3.1457113  21.0368300  53.7889338
  90.7558836   2.8754855  10.3131926  90.1822628   3.1280661   9.5897317
  90.8116258   3.6594344  10.8595920   9.8836683  11.8402911  46.2484646
  10.4772734  12.0308543  46.9747925  10.4467653  11.4663172  45.5707455
   7.3337149   1.5858222  25.7316518   6.5577482   2.0908976  25.4887652
   8.0303358   1.9347525  25.1756001 106.6425766  22.3621417  48.3240414
 105.8627523  22.2079516  48.8572693 107.3662103  22.3559237  48.9505768
  44.9770151  84.6234269  93.5750128  45.2414786  85.2911038  92.9421654
  45.5570494  83.8827844  93.3982621 105.4495968  14.4584799  89.7694874
 104.5264972  14.3333388  89.5493412 105.4378093  14.8144770  90.6579399
  83.2896246  44.1736842  53.6120176  83.2292761  43.7392188  52.7612352
  84.1931595  44.0273905  53.8921022   1.9994520  28.9267016  47.6440954
   1.0772823  28.9823580  47.3936224   2.3300146  28.1621505  47.1724844
  69.3457317  89.8520565  45.9549332  70.0811625  90.3688717  45.6258678
  68.7667131  90.4940224  46.3658381   6.2417946  98.9210701  24.8762655
   6.7826043  99.6566772  24.5887899   5.4851017  98.9367104  24.2902589
  81.9295229  33.4689952  37.1220779  81.8271412  33.9338351  36.2916112
  82.4643482  32.7054549  36.9048285   8.6776709  10.9970427  60.0302029
   8.9759516  11.2488223  60.9041977   8.4463190  11.8245936  59.6084499
 109.7844601  91.2805176  54.6279430 109.2639923  91.6739750  53.9275599
 109.8249817  90.3510094  54.4029856 104.6183838  28.7709475  49.8606443
 103.7791313  28.5494853  49.4571161 104.5595039  28.4143115  50.7469702
  71.0932350  83.0429840  31.6962624  71.0084152  83.9863586  31.8343830
  70.5510378  82.8636742  30.9280801  23.7080658 104.5742326   6.2986392
  23.3194483 104.8818594   7.1175307  24.6501959 104.5690447   6.4677257
  91.1826801  96.4340591  51.1520720  91.4558887  95.6254578  50.7187653
  91.7451382  96.4938354  51.9242716  23.4128260  44.1060591  53.8843346
  22.6437162  43.9285327  54.4258070  23.9800238  43.3466197  54.0175915
   9.6489977  27.7316428  43.3216000   9.1511988  28.5490275  43.3390999
   8.9855837  27.0493365  43.2187653 113.7953342   4.7982264  66.8698597
 114.1001428   5.2507926  66.0834026 113.9497579   5.4213954  67.5798225
  57.8624582 109.2831802  46.2861347  58.3079290 110.0210762  45.8698368
  56.9525290 109.3598938  45.9991264 112.3550333  -0.2783918  45.4386139
 111.8341411  -0.0955438  46.2205791 112.9640211   0.4576827  45.3789759
  97.0429325  67.9700661  31.9527864  97.9965210  67.9760408  32.0356202
  96.8692589  67.3697281  31.2277603   1.3263535  14.0619899  52.0064116
   2.0179056  13.7783671  52.6043653   0.9140467  13.2490493  51.7142487
 112.1673120  29.3434954  50.6688452 112.6728834  29.5976020  51.4408922
 112.6671661  29.6910048  49.9301863   1.2763571  21.1025477  44.9986410
   1.5678572  20.2450133  44.6889591   0.9132742  21.5271617  44.2214012
 104.6198238  44.6424533  47.4259996 105.4159273  44.1115714  47.4013615
 104.3762792  44.6661425  48.3513975 106.0593713  32.4335623  85.2049637
 106.0653604  32.2961951  86.1522388 105.7113517  31.6169978  84.8467350
  13.4228491  27.5648928  50.7039642  13.2546972  28.0239344  49.8810148
  12.8610014  26.7908908  50.6656027  12.2776865   9.6916152  76.7423582
  12.3998713  10.0927401  77.6028252  13.1178450   9.8129893  76.3000393
  61.3300037 102.2411823   2.3932129  60.9966660 103.0107403   2.8546289
  61.6940069 101.6870022   3.0835858 103.6212076  26.4698363  65.0322580
 103.7150491  25.8167411  64.3387938 103.5746826  25.9572554  65.8393097
  25.4336618  24.1820956  34.7952294  26.2839006  24.1098548  34.3615127
  25.1017164  23.2847071  34.8225594  11.4942526  33.6939669  89.2934990
  12.2472834  33.1349707  89.1019154  11.6958498  34.0841914  90.1439762
  90.6339134  16.5217257  54.7111940  90.0553764  16.8951655  54.0463066
  91.0901273  17.2766066  55.0830221  99.0598549  20.1172400  20.0370932
  99.5592178  20.3724051  20.8128238  98.2252229  20.5770541  20.1275730
  79.7820772  27.0807315  56.8998814  79.7547449  27.9848719  56.5868139
  79.5362581  27.1394110  57.8231144  36.1423754   7.2088004  46.2269020
  36.0284113   8.0722666  46.6239786  35.2958559   7.0171786  45.8232737
  91.0119247  97.6755524  54.9472523  91.7079353  98.1530952  54.4958639
  91.4713001  97.1267605  55.5828905  12.5704550   5.4491568  41.6873837
  12.7571844   6.3853789  41.6177368  12.7117037   5.2448703  42.6118040
  60.2438974 105.8129501  20.4289603  59.8329258 105.2103901  21.0488439
  60.4505634 106.5887165  20.9502196   5.1016974  28.5035563  24.0336275
   4.9683642  29.3679476  23.6446667   4.4253611  28.4373427  24.7077298
 106.9335808  41.1869765  32.8554702 106.8586029  41.5140200  31.9590020
 107.3236479  41.9123698  33.3432102  37.3077154 106.8217564  12.3634517
  38.1660461 106.6936493  12.7672958  37.3975205 107.6320839  11.8619311
 105.7487202 105.4928970  74.0885258 105.9645557 106.4254189  74.0813637
 106.5450382 105.0651646  74.4034147 113.3658327  47.6344538   1.1337113
 113.0096592  48.5228682   1.1239660 112.5954736  47.0672084   1.1018706
  79.3715442   0.0355769  27.3383403  79.6972383   0.9223510  27.4925566
  78.4591879   0.0619841  27.6266766  49.3891907  97.3638725  72.8773165
  49.6384764  97.8557682  72.0949268  48.5150766  97.0272636  72.6802015
  86.8727112  98.0782700  57.7538395  87.4623775  98.6703110  58.2207489
  87.3602676  97.8231144  56.9706249 109.0566648  23.0514098  21.9668698
 109.9375595  23.0033637  21.5954518 108.5822500  22.3308707  21.5521550
  76.2809313  -0.0686025  55.2695751  76.7827429  -0.2250051  54.4696045
  76.2462701   0.8847476  55.3480291 102.7935137   1.4801455  52.7610731
 101.9980110   1.2922621  52.2629690 102.6147712   2.3162509  53.1914234
  73.7675524 100.4164219  69.5205355  74.1690254  99.5652771  69.6954584
  73.1991482 100.5726624  70.2746820  10.4119181  22.1285582  58.5229397
  10.3139757  22.5935317  59.3538666   9.7468351  21.4408351  58.5534763
  82.8208542 107.7050591  29.1201591  83.3771038 107.5382042  29.8810625
  83.3628082 108.2396698  28.5398960   9.6837496  35.1562644   7.3881656
   8.8099646  34.9945784   7.0323730  10.2206015  35.3588343   6.6220182
 103.6596359  15.9701586  25.1092887 103.8511432  16.9079161  25.0963259
 104.4305385  15.5627871  24.7143364  99.9025358  17.9890872  49.4331789
  99.8377861  18.9239550  49.2380905 100.4920353  17.6446772  48.7622786
  18.1955408  33.9907408  39.4601679  19.1492056  33.9094401  39.4481611
  17.8800272  33.1634093  39.0965676 104.5084763 102.7624702  68.9262819
 104.7266293 102.2681999  69.7164297 103.8191986 102.2488689  68.5051584
  75.5333900  76.7078543  20.3916717  76.1493111  76.1307192  20.8431005
  75.5914545  76.4479208  19.4722736  64.6622146  21.0166312  28.8963771
  65.4957212  21.4792109  28.8096285  64.8618997  20.1143885  28.6467552
   4.6981310   4.1426421  31.1397982   5.4402136   4.6382380  30.7934976
   4.8924040   3.2325507  30.9157062  37.3829162  44.9979501  13.0310935
  36.5497625  44.6985918  13.3950633  37.9663360  44.2439180  13.1165141
  61.7623425 105.6760406  52.9513836  62.0276833 104.8008251  52.6688480
  61.2268400 106.0082340  52.2308826  24.6114897  23.6097480  44.9874783
  25.3539537  23.4828425  44.3968248  23.9583372  22.9760504  44.6907425
  34.6059012   1.2125254  31.0358334  33.9826464   0.9894992  30.3444242
  34.3454336   0.6671859  31.7781210  90.4206003   2.1366931  41.2635899
  89.4872774   1.9328929  41.2035275  90.7875265   1.8250514  40.4362535
   0.9002995  29.8352767  67.0518637   1.7961907  29.5960665  67.2893286
   0.3500818  29.2523337  67.5749969  22.5773691   4.7691012  20.8854771
  23.1834387   5.5066062  20.8148408  22.9162001   4.1206694  20.2682567
 110.8484424   7.2744895  83.2969761 109.9213232   7.4281836  83.4788132
 111.0900367   7.9673720  82.6823425  94.0242780  12.0652724  55.4898119
  93.7217058  12.5728179  54.7367620  94.9049820  11.7791129  55.2475262
  73.8785542  31.4458705  24.3497896  73.8694085  31.7863417  23.4552312
  74.6803297  30.9254027  24.3997860  91.6518987   2.7511168  78.9197731
  91.9358410   3.4705687  79.4836807  92.2793878   2.7513648  78.1969357
  90.8970083  13.6281348  42.3587751  91.7966284  13.3608962  42.5471926
  90.5660070  12.9536105  41.7657375  16.1313700   3.5793257  40.6277561
  16.1741709   4.4753409  40.2937794  16.7276072   3.5740805  41.3765621
  21.1455034  17.1670581  35.3598905  20.4268240  17.2821284  34.7382069
  20.7713484  17.4113036  36.2064052   9.7321962  27.6856471  22.6857948
   8.8908362  27.7565146  22.2348738   9.8269342  26.7512465  22.8705931
  48.8345194 106.9849205  18.9679933  49.1702652 106.4381313  19.6783006
  49.6094799 107.2130775  18.4545577 100.9094251  53.3212043  20.9182096
 100.5531038  54.1683150  21.1859322 101.7586530  53.2691718  21.3567662
 111.5460695  22.5709010  69.1086531 111.0091032  22.5527049  68.3164597
 112.3148216  22.0445586  68.8890696 110.8027424  30.2118636  20.1751566
 110.0969948  30.6669951  20.6345153 110.8125795  29.3353320  20.5596423
  29.5320582  17.9317046  10.5681264  28.6677431  17.8037596  10.1772094
  29.3559527  18.3707190  11.4002836  79.8251867  98.7164497  65.4855776
  80.7125187  98.3822727  65.6167603  79.5589972  99.0343571  66.3483143
   2.9673552   8.6874819  41.9788218   3.6965536   8.4611560  42.5561190
   2.3270916   7.9894400  42.1167517  97.6628304 108.3551502  60.6763887
  98.3387947 108.2615948  60.0051594  97.9322052 109.1217327  61.1823750
  15.3983378  10.5065489  54.1536903  14.9320768  10.8512831  53.3921194
  14.9473833  10.8915759  54.9051046 102.0759726  96.4794158  74.8865223
 102.2411610  95.5927049  74.5660686 102.8801156  96.9593620  74.6884251
  18.5035527  18.1431901  36.4508915  18.4615695  17.9682887  35.5107450
  17.5885940  18.2209456  36.7211413  11.5008771  34.1638899  33.1016684
  12.0658386  33.7230754  33.7362814  11.7193866  33.7570119  32.2632551
 107.1021374  25.4012966  50.1838875 106.7846592  25.1096082  49.3292761
 106.3821413  25.2099872  50.7849169 101.2425233  94.5445036  13.6169958
 102.0727898  94.8111283  13.2222784 100.5742861  94.9691104  13.0790365
 103.1411601  98.5465383  40.2070522 103.9601589  98.0511796  40.2165365
 102.9856230  98.7344825  39.2814589  19.8987043  26.3779712   6.8577045
  19.0069091  26.6299129   6.6180015  20.4369831  26.6755033   6.1242443
  77.8870239  14.9370408  21.0848665  78.2592930  15.0641501  20.2122307
  77.3475136  14.1506338  21.0028839 106.3437844  89.4439244   2.9251555
 106.6801263  90.2586936   3.2983258 106.8663765  89.3088674   2.1346563
 109.5304670  38.0135536  21.2296510 109.8627075  37.3247290  21.8052959
 108.7549277  37.6300764  20.8201218  29.6411037  23.5805488  38.8851380
  29.2280102  24.4249654  38.7047315  30.4652786  23.6084080  38.3991432
  18.4112167  38.8868904  17.6546550  18.1115484  39.5093203  16.9920778
  19.3442774  38.7744474  17.4730384  99.9478317 106.8010669  70.5055904
 100.9047342 106.7877861  70.5253506  99.7230435 106.5389659  69.6128368
  14.2650235   0.5998424   5.1987994  13.5058200   1.1211410   5.4597378
  14.2693210   0.6449082   4.2426705 115.1995352  47.3894882  28.1224108
 114.5790041  46.9654131  28.7151480 116.0497376  47.2820759  28.5488510
  22.9082251  45.8248711  19.5471072  22.1160150  45.4258251  19.1873872
  23.4334946  45.0840092  19.8494983 114.2605211  44.0653688  87.6518392
 114.5260860  43.2299132  88.0361843 114.5887758  44.0307814  86.7533499
  46.9568802 106.5168848  40.7630968  46.0297061 106.4177551  40.5468750
  47.0161034 106.2653708  41.6847610 109.2648395  19.5727694  27.7846670
 110.0726827  20.0861216  27.7941680 108.6317005  20.1137877  28.2565403
 113.1220985  82.8023338   0.6303125 113.9888264  82.6035547   0.2760506
 113.0554582  82.2620010   1.4176066  12.5159216  46.2541294  29.8366666
  12.9700398  47.0198345  30.1883864  12.9427600  45.5080795  30.2579093
 105.9117247  66.4571761  53.5129356 105.4061438  66.7155408  54.2835617
 105.2773357  66.0179233  52.9465055   5.3551519  33.7076163  20.5644393
   4.9109027  34.0710926  21.3304424   4.8286140  32.9461932  20.3210783
   4.9813733   2.7189845  50.4765749   5.3014517   3.5898000  50.2410698
   4.2954534   2.5343183  49.8349810  10.9430873  39.8509169  20.6957030
  11.0584044  38.9015460  20.7360411  10.3718054  40.0544786  21.4362621
  23.1585264  35.2934718  71.6269970  22.7247930  35.9893250  72.1208572
  23.4087443  34.6496630  72.2896671  19.9125111  12.1223378  84.5955372
  20.0764990  11.1803985  84.6412563  19.0119314  12.1935833  84.2791271
 103.8719989 100.3426056  23.7381291 103.3597327 101.1501526  23.7791634
 103.2511331  99.6802830  23.4346724  14.7385597  53.5355473  22.4063897
  15.0968599  53.4696770  23.2915545  15.4993904  53.4449148  21.8326712
  85.6792469 105.4623231   2.9194102  85.9451801 106.3774889   2.8300625
  86.0544688 105.0279891   2.1533853  39.4901562  15.8912587  49.7627449
  38.7769485  16.1967146  50.3233385  39.5576620  14.9549520  49.9498415
  83.9988913  11.6560781  36.0615563  84.6786322  11.1421204  36.4974809
  83.9681711  12.4775052  36.5520096 106.1454464 104.6276557  39.6355534
 106.8825770 104.7440361  39.0361166 105.4744960 104.1935574  39.1086578
  95.8467712   4.8312601   3.8148919  95.2047386   5.0475115   3.1386811
  96.6947832   4.9644887   3.3913857  55.9157873 105.8349489  38.4089327
  55.8841468 105.7768258  39.3638420  56.1482883 104.9516066  38.1227851
  25.6511617  37.0736337  23.7537146  26.6043830  37.0854092  23.8401103
  25.3712940  37.9322886  24.0709162 115.0199293  36.9245911  22.1614528
 114.3193617  37.3184538  21.6415405 114.8681349  35.9819937  22.0928812
  29.7904682  24.0326381  50.9144306  29.6362066  23.2201409  51.3963890
  29.0752745  24.0740180  50.2795935   5.1876134   0.9521557  34.6600485
   5.7256508   1.5259260  34.1145802   4.5727706   1.5428030  35.0951767
 112.2932496  36.8243814  63.5169744 112.0731973  36.7848182  62.5862551
 112.7275600  35.9903955  63.6960649  41.8885177  75.3616781  66.2629396
  42.2886005  74.9429960  67.0250898  41.0515912  75.6962056  66.5852386
  27.0915914   0.3790917  32.7566743  27.0611644   1.2526110  33.1468940
  27.9299951   0.3517970  32.2956276  71.9876232  43.9222002  19.6553326
  72.3173084  43.0304241  19.7661126  71.0929765  43.8906336  19.9942172
   4.9178326  29.4828606  31.4652610   5.2481806  28.8186502  30.8603454
   5.5803931  30.1734710  31.4477825  23.7814140  36.1618137  46.4680052
  23.3353209  36.4200854  47.2745562  23.1390381  36.3228822  45.7768917
  30.7963824  13.3659661  31.4218545  31.0970116  14.2561436  31.6047120
  30.8367014  12.9209208  32.2683406  21.9164681  22.7477121  59.8302555
  21.8488812  23.3396149  60.5794621  22.1463203  23.3165860  59.0955544
  74.2961127  92.3605978   6.5967375  75.1981331  92.5948285   6.8152016
  73.9371009  92.0058071   7.4100429 106.5103902   0.3984657  36.8502188
 106.1068143   1.0005397  37.4754119 107.2805329   0.8674464  36.5290189
  30.7404709  28.4448528  63.2035065  31.1726880  27.7882481  62.6573467
  29.8189592  28.1859159  63.2053089 112.8893979  16.9242775  37.0910597
 112.7618354  16.2110543  37.7165771 113.5442468  16.5907145  36.4777565
   5.8906913  20.1227069  32.0862460   5.7708728  20.9158564  31.5639520
   6.5128613  19.5967484  31.5837479  39.1948462  34.7163582  31.5145946
  38.5247612  34.0568185  31.6941118  39.0946484  35.3573322  32.2184014
  10.2240503  20.2114606  33.1015563   9.9031150  19.6578526  32.3896933
  10.6196547  20.9632969  32.6605678 108.4999896 109.3656137  43.4056568
 108.5969783 110.3146345  43.3270168 107.7203680 109.2487024  43.9485693
  38.3224416  35.8288670  37.8107119  37.9237628  35.7342243  38.6757731
  38.7379527  36.6909289  37.8314996  68.0031528  11.2944400  16.1408925
  67.9489793  12.1946871  16.4615977  68.2440271  11.3827872  15.2187192
  15.6592083  12.0894480  58.6273289  15.0993741  12.8411472  58.8216639
  16.3864017  12.4560797  58.1243324  25.9676886  10.4912126  45.3709078
  25.6928492   9.7429860  44.8409510  25.1493382  10.8756554  45.6851339
  13.4479749  14.5990455  69.5497465  14.2483759  14.4047272  69.0620661
  12.9193127  15.1194537  68.9448309 100.8002808  30.7859731  33.8627672
 100.8491101  31.0718942  34.7749615 100.9249653  29.8377371  33.9019847
 112.3817681  18.7402773  28.3927727 112.8322344  17.9863429  28.0121207
 111.8974750  18.3799398  29.1356397  15.3957021   4.0037018  30.8050776
  14.4527948   4.0248138  30.6416464  15.5845988   3.0856779  30.9994555
  31.6597462   3.7599456  56.1392355  32.5776720   3.9690551  55.9662628
  31.3686943   3.2932046  55.3558588  41.9084644   3.6695263  35.7778430
  42.0838928   3.0670640  36.5006804  42.1642160   4.5283365  36.1143947
  26.3385916  13.7434578  34.3076396  25.5904722  14.3312573  34.2025614
  26.1020589  12.9628348  33.8067293 112.3574178  43.8021469  40.7689953
 111.5162601  43.3755922  40.6054831 112.2633665  44.6730280  40.3830528
  25.5823885 104.3589222  23.7949800  25.0263296 104.0254670  23.0908227
  25.4000222 103.7828647  24.5373631  13.7078272 101.8477934  32.6692319
  14.1531454 101.1074459  32.2571516  12.7908932 101.5777790  32.7197981
  44.8408651  30.2155614  33.3051062  44.8476553  29.5499301  33.9929438
  44.3836784  29.7998929  32.5740600  95.1118852 102.5260531  25.2023840
  94.8960198 102.8647535  24.3335247  95.8951295 103.0117338  25.4609823
  63.2673168   0.2690987  66.8363476  62.6411057   0.4229428  66.1289406
  63.7009239  -0.5504061  66.5983725 111.7691184  92.1493303  34.5218182
 110.9118558  92.5214671  34.7288108 112.2933818  92.8984677  34.2386723
  94.9315835 106.2080350  43.7186384  94.7706450 107.1262174  43.9360619
  95.8299077 106.0474011  44.0075016  97.7945925  91.3292205  33.4499884
  97.5809396  92.2617971  33.4202242  97.8634334  91.1289489  34.3834686
  21.1747169  37.4551797  39.8247361  21.0263133  36.9413686  39.0308809
  21.5560293  36.8334556  40.4446507  84.3478532  96.9303142  14.5066416
  83.7057705  97.5671124  14.1928756  84.9718053  97.4494242  15.0140274
  19.0996337  22.5354052  20.2098298  18.5279071  23.1883049  19.8059916
  18.8985074  21.7219543  19.7471428  49.3642999  95.7785403   6.8330932
  49.6676112  95.5020642   5.9683412  49.0216995  96.6617023   6.6956818
 111.2308670 100.9688001  41.5380192 111.5523172 101.8054055  41.8741608
 111.9251944 100.6623399  40.9547329  31.4043307   9.1756940  27.3053575
  31.2161064   9.9473286  26.7711449  30.5617619   8.7286276  27.3856258
 107.3159673  15.0269449  34.2752910 107.3923918  14.9594188  35.2270436
 107.9829594  14.4287276  33.9384079 110.1703950   2.2298956  22.5472140
 109.7985401   2.7770102  21.8553901 109.4344082   2.0505433  23.1323528
   2.8699976  14.2879713  37.9237390   2.4708176  14.4102764  37.0623851
   3.3869937  13.4871268  37.8365946  46.3755989  32.7610183  61.9826508
  46.5739107  33.5013819  61.4092636  45.6561899  32.3054576  61.5454483
  19.8308837  19.3503630  24.8297739  20.5935431  19.8802197  25.0617957
  19.2836726  19.9349654  24.3053412  99.0019884  54.0668821   5.1285452
  98.1462671  54.4506836   5.3200382  99.2416265  54.4293690   4.2756632
  20.1754928  64.5987892  60.6730127  21.0500956  64.4794321  61.0432243
  19.6651900  63.8689804  61.0240078  37.1921706  36.8281865  41.0201931
  36.9479394  37.7536798  41.0268116  36.5645623  36.4106250  41.6100931
  16.9736266  46.5923262  23.8358569  17.7758384  46.6863537  23.3221960
  17.1619284  45.8789587  24.4456768  15.2340758  28.5574269  33.7900639
  14.3015099  28.6696196  33.9743638  15.5518007  27.9948235  34.4962907
  43.4266376  56.3675880  35.8306003  43.7171412  55.9456348  36.6391778
  43.4576702  57.3043728  36.0247707  19.9456239   5.4575646  35.0601125
  19.3664753   4.7310591  34.8298788  19.3651271   6.2160832  35.1226020
   1.1321585  67.6440334  59.8999500   0.4472133  68.0031681  59.3359470
   0.6617813  67.0984125  60.5302477 112.5984200  29.6815300  46.2898731
 112.7275448  28.7468266  46.4507723 112.8115093  29.7968364  45.3638411
  24.5299721  48.0357981  19.0119147  25.2406073  47.6383495  18.5086620
  23.9646959  47.3008442  19.2496896  27.9717994  44.3158007  50.1239634
  27.0292091  44.1545963  50.1660109  28.0658627  45.0209236  49.4835091
  28.1394172  42.7449226  19.2426062  27.4805427  43.0498123  19.8664308
  28.9744520  42.8823328  19.6898937  24.4017696  49.2939329  24.5601273
  24.6265435  48.4673738  24.1329074  24.2242026  49.8963642  23.8377857
  13.3151412  54.2814922  32.6655769  12.9057157  53.6788702  32.0447326
  14.1262054  54.5533848  32.2360682 100.4851510  46.1352634  18.7431169
 100.7258465  47.0360899  18.5267639 101.1725809  45.8405447  19.3404555
  56.5907001   9.5265830  35.3684640  56.3553762   8.5989445  35.3499722
  55.8397055   9.9720573  34.9763036  51.2509227  43.9015705  88.0117321
  50.8433950  43.8390536  88.8755864  52.0782685  44.3563468  88.1695556
  24.7168136  60.2098942  12.2429490  24.5144129  60.0864887  11.3155675
  25.5170488  60.7351065  12.2456241   3.7976670  21.1644316  14.4617164
   4.4133326  21.8313026  14.7658062   3.0137557  21.3018584  14.9935317
  52.1962452  40.0775671  30.1305556  51.8124151  39.2030549  30.1948977
  51.4660263  40.6727123  30.3003001   2.5482702  39.1307759  29.2423701
   2.6514611  40.0469065  28.9849019   2.2170505  39.1699862  30.1395822
 104.5476546  25.2601171  11.3601136 104.7792627  26.1423230  11.6504610
 104.9311199  25.1872158  10.4861164  41.0729361  59.4314575  32.1838713
  41.5007830  58.6638784  32.5633526  41.0879374  60.0844383  32.8836036
  95.8169355  50.8690071  42.9255962  96.3202943  51.5505457  42.4802113
  96.3467707  50.6403780  43.6892939  29.5839477  13.3296728  48.6577225
  29.1566658  13.9352822  48.0520010  29.6392775  13.8140440  49.4814682
  23.7505245  14.7075629  46.1042261  23.7059116  15.5995584  46.4485884
  24.3315172  14.7722161  45.3462696  41.8276834  50.6256390  28.6190844
  41.3794279  49.7868156  28.7271142  42.1268368  50.6219864  27.7098393
  43.4165764  57.6029730  41.7706776  42.5684929  57.7844858  41.3656616
  44.0545654  57.7762175  41.0784483  19.6389115  34.0856123  52.4451065
  18.8154531  33.6751866  52.1811008  20.2177167  33.3512354  52.6498222
  35.4024363  43.2612658  44.8598385  34.4895601  43.5435295  44.9165201
  35.7826686  43.8156033  44.1783953  52.0223236  23.2271361  25.6156349
  52.6375151  23.9472628  25.4771018  51.2723970  23.6330724  26.0504389
  35.9366298  31.1803818  42.6568127  35.2855968  31.1103249  41.9586134
  36.5095186  31.8952179  42.3792553  91.8740978  38.0521083  56.7833233
  92.5243177  38.5204315  57.3068905  91.7087569  37.2458220  57.2719908
   8.9675885  16.3267195  65.7115698   8.4190428  16.8990767  65.1751614
   9.2270327  16.8713248  66.4547586  11.8327725  34.5919442  36.4872837
  11.2011933  33.9968371  36.0833216  12.5284576  34.6810389  35.8358860
  25.2777553  15.0997078  73.0411100  25.5431700  15.4606307  73.8869953
  24.9506927  14.2238569  73.2464123  12.7756810  67.5407410  50.0883675
  13.3264208  67.9833698  49.4426155  13.3838320  67.2689390  50.7757616
  41.0657215  30.1667666  33.4753466  40.4782104  29.6119142  32.9623175
  41.2350368  30.9217429  32.9118061  83.4229476  89.4486355  17.4149072
  82.8999997  90.2501201  17.3953736  83.5656382  89.2332291  16.4932394
  19.4927287   4.0245098  41.9340372  19.2357337   3.9812383  42.8550768
  19.2972207   3.1530795  41.5896273 102.6263251  50.9881401  23.3750629
 102.7349927  51.3865900  24.2385793 103.1160774  51.5600348  22.7840424
  41.8196297  22.3210430  40.0517416  42.7116346  22.6156998  40.2354193
  41.7589998  21.4637828  40.4732418  20.2657008  56.7965269  53.1919050
  20.3739500  55.9228706  52.8160906  19.6818876  57.2486162  52.5828028
  17.9274070  12.8201139   2.2614646  17.0793760  13.1430161   1.9568181
  17.9761648  13.1004286   3.1754002   1.3515364   2.4257226  94.0707793
   0.9313475   1.5955014  93.8462661   1.8255650   2.2425933  94.8819468
  27.2297049  19.6783483   4.9691230  27.2601366  19.1316712   5.7542664
  27.8916907  19.3017983   4.3892828   8.1853640  24.8041272  45.6591749
   8.1009918  25.7251000  45.4123545   7.7569067  24.7447872  46.5130711
 113.7880026  77.5962639  47.2938347 113.3815454  78.3077335  46.7990208
 114.3661795  77.1661568  46.6637993  83.5480721  93.9803981  25.2105498
  83.5857941  93.2540619  24.5882607  82.7492143  93.8232898  25.7139158
  13.2411432   8.6379641  64.3484592  13.5468149   8.1494236  65.1127386
  12.7109969   9.3464744  64.7134113 115.2682568 101.7479485  52.6034641
 115.9854699 101.2752389  53.0258179 115.1539732 101.3072478  51.7614698
   4.4097462  40.0521755   3.2758954   4.2415732  40.8067036   2.7114192
   5.3579193  39.9280310   3.2336134   6.4060378  35.2932048  34.6271396
   5.5682814  34.9610877  34.9497747   7.0452857  34.6343160  34.8981738
 115.1117522  43.2738829  43.9111328 114.2578282  42.9601383  43.6134529
 115.0711784  43.2097197  44.8653173  96.7064417 108.6002874  26.1364579
  97.1140374 109.3774229  26.5187645  95.9765745 108.3998286  26.7224097
  69.2455245 107.4183253  41.2819433  68.3593417 107.4270222  41.6436577
  69.1345806 107.6867030  40.3698635   3.8766798  21.1275172  42.7175903
   4.3219250  20.8516121  41.9164228   3.4558421  20.3320861  43.0437994
  49.0387320  89.4871921  92.6505053  49.8190057  89.1865558  92.1846485
  48.4843933  88.7095970  92.7159728  23.8783479  51.7193890  33.0756760
  22.9691815  51.8906927  33.3212447  24.3683171  51.8098545  33.8929749
  11.4679134  29.9225163  50.0818682  11.2906575  29.1537094  50.6238556
  11.1735559  30.6627297  50.6125927  67.9371834  20.5222106  44.6839285
  67.5146151  21.3223529  44.3717813  67.9764605  19.9557924  43.9133072
  65.5443811  36.9925261  21.8991494  65.5570316  36.4041615  21.1442304
  64.6150160  37.1555209  22.0602274   0.8279578  40.7424498  41.6008997
   0.1403859  40.9021473  40.9543943   1.3395604  40.0217342  41.2333870
  26.8936396  27.6863933  36.4295220  26.5913129  28.2644415  37.1300149
  27.6605701  27.2464561  36.7962718  23.9652705  20.8328485   8.2031000
  24.6742320  21.1343646   7.6350403  23.4470963  21.6186357   8.3770686
 113.0659820  99.0910601   6.0047638 113.7718392  99.4708096   5.4815161
 112.2883845  99.5912134   5.7569313  14.2365110  13.1600189  20.1577711
  13.5355735  13.7874758  19.9810863  13.7823689  12.3336029  20.3221560
 110.8762153  61.1028576  48.0984783 110.3375020  60.5985785  47.4887896
 110.6770273  62.0166540  47.8946972  39.6380925  42.5629520  22.6040959
  39.1953230  41.9920778  21.9761753  39.7994280  42.0036411  23.3639455
  28.8870406  31.8928838  44.1453314  29.0209389  31.0214543  43.7726212
  29.0903211  31.7895985  45.0749731  30.8242369  49.8609781   4.3899944
  30.1404142  49.3181849   3.9975724  30.4760098  50.1013041   5.2486056
  75.9798252  74.2194170  90.4234162  76.9331634  74.1415388  90.4596364
  75.7861030  74.3608541  89.4967562  35.1983690  36.1995602  27.6078010
  35.5466223  35.3725815  27.9410529  34.9836946  36.0176945  26.6928864
  25.4848253 101.2999148  92.1504628  25.4621267 100.5862374  92.7879420
  26.1098146 101.0083575  91.4866739  10.6831658  61.7562199  52.1848202
  10.5633700  62.4131775  52.8705931  11.6325176  61.6812468  52.0881701
  57.1242416  68.0888480  89.4307571  57.5833595  68.9201052  89.3105310
  56.2529611  68.2413596  89.0649110  43.9616108  45.6864548  35.0521421
  44.0867090  44.7394466  34.9908853  43.1607819  45.8548737  34.5556116
  82.9251947  48.2337332   7.5978190  82.5420990  48.0283785   6.7450017
  82.1911063  48.5611773   8.1175578  44.8291492  38.2081819  32.4325562
  44.1039324  37.8284359  31.9364882  44.9944592  37.5789857  33.1347060
  26.2193894   0.7123893  43.8966703  25.9956121   1.1607601  44.7122192
  26.8878245   0.0754550  44.1491413  48.6478329  37.1322417  39.8380780
  48.6311579  36.4074802  39.2130375  48.3297443  37.8853106  39.3401456
  14.2876196  21.7563605  59.5458174  14.9002409  22.4293804  59.2492199
  13.7026763  22.2142100  60.1495123   1.3243839   7.2806746  32.7839470
   0.6917615   7.4220967  32.0796585   1.1951617   8.0227751  33.3745575
  39.0926337  27.6999974  60.6604099  39.5468950  27.8697848  59.8351526
  39.6076512  27.0107889  61.0799074  20.5834699  29.4105029  76.0336590
  19.6810079  29.6346307  76.2607336  20.9568286  29.0681124  76.8458176
  22.0282030  36.7327070  44.1480064  22.2177601  36.3617921  43.2861948
  22.7278256  37.3694897  44.2938471  37.0605469  51.4315033  38.1876254
  37.7163577  50.9492302  38.6911654  36.2402987  51.2825918  38.6579967
  42.8883171  35.0737691  22.4339056  42.3141956  35.3484607  23.1488609
  42.3506689  34.4803333  21.9095016  24.3511796  48.9938736  41.3834381
  24.1719174  48.5831451  42.2292519  25.2141500  49.3941593  41.4896631
  27.0898414  34.0240312  34.3215156  27.0509028  33.4853888  35.1118183
  26.6267896  33.5112000  33.6590815  36.2026787  59.3618965  14.3693495
  37.0619750  59.5976257  14.0196753  36.3876295  58.6929274  15.0285172
  11.8138337  40.6306362  48.4788990  10.8745289  40.4690123  48.5673141
  11.8723953  41.3958359  47.9068279  91.2351145  46.9150877  36.5434909
  92.0038762  46.7075205  37.0746732  91.5184750  47.6386023  35.9845066
 113.3683532  44.4003391  59.0077496 112.7202078  44.4177628  59.7119093
 113.0863141  43.6829090  58.4403181  43.4855700  56.2122631  44.1382933
  42.6598692  55.7524395  44.2900038  43.3658981  56.6471958  43.2940531
  21.7945790  60.3085423  22.2649193  22.2782016  60.8119822  21.6100264
  21.4524651  60.9675694  22.8689694 112.2125401  14.3485618   5.2900261
 112.6484968  13.5551882   4.9790096 111.3841780  14.3701816   4.8108804
  23.4491467  13.1764126  42.5012112  23.8186359  12.2944498  42.5442600
  23.9986992  13.6355865  41.8660879  36.8014050   5.2391785  61.0903072
  36.2586856   4.7668821  61.7216730  37.6847863   4.8988900  61.2319899
  25.1095915  62.4685860  38.3194137  25.8023906  62.2014046  37.7153683
  25.0135636  61.7269278  38.9168692  41.9004536  32.9169726  53.7141848
  41.4712763  33.7204313  53.4200907  41.3239336  32.2140288  53.4146452
  27.4554324  29.8394847  49.9196339  27.1456885  29.7894478  49.0153170
  27.6971650  30.7578635  50.0395393  47.2191429  47.0627594  50.2249241
  47.2339678  47.5052929  51.0735559  46.7822933  47.6815653  49.6397161
  32.2308755  25.0068426  28.5916400  32.4413681  25.7638407  28.0449390
  32.8074527  25.0920272  29.3509388 103.8687172  22.1328020  33.7475991
 103.7695303  21.2018394  33.9468622 104.7840860  22.2249746  33.4833384
  35.5429173  14.0932882  39.7679877  35.2928686  14.5414686  38.9600015
  36.3691616  14.5034564  40.0235510 110.5734452  84.9958515  39.8420143
 109.6990718  84.8492527  40.2028608 110.9902914  84.1345406  39.8668218
  24.3228793  32.6540017  33.3830142  23.9417791  32.5379515  32.5126529
  24.2070150  33.5849714  33.5730243  18.2434201   6.1191976  60.0806379
  18.0684972   5.3989017  60.6862831  17.3770666   6.4007014  59.7866678
  32.7723622  29.0056777  41.7807436  32.7828240  29.5003867  42.6001263
  31.9765043  28.4762096  41.8307829  27.5682926  49.2260313  41.1155796
  27.8292441  49.2318535  42.0365047  27.9061723  50.0504303  40.7656813
  36.6116142  21.5128970  43.5348940  35.7631016  21.5950704  43.0995750
  37.2517943  21.5806031  42.8264999   9.8391420  33.6047888  29.0342808
   9.8661906  33.7077284  28.0830169   9.7015673  34.4915700  29.3673372
 101.7495646  39.1071630   5.2023613 102.6923694  39.1804671   5.0541085
 101.3547947  39.5943832   4.4791692  37.3113155  43.6801672  54.7897482
  37.8202534  44.4908142  54.7812796  37.3284698  43.3961344  55.7036734
  29.7038198  48.2937622  67.2169352  30.3007984  47.8919029  67.8480911
  30.1669741  49.0741825  66.9125175  80.9149123 102.2790372  24.7814488
  81.1786721 103.1520968  24.4908834  81.7389626 101.8059241  24.8969340
  29.5952082  25.4606533  34.8677564  29.1497636  24.6247387  35.0058055
  28.9680028  25.9873223  34.3723154  55.7497120  47.9003525  17.7304828
  55.7456779  47.1548891  17.1300673  54.8239851  48.0918074  17.8808296
   3.9904898  61.9247675  68.0805492   3.5053578  62.7037573  67.8084278
   3.3167565  61.2588215  68.2177925  31.8085265  35.8331704  41.1761236
  31.0634947  36.0269141  41.7449999  31.4808393  35.9900212  40.2905416
  15.9807503   0.0244731  42.4081135  16.6627288  -0.1845117  41.7697859
  15.9122574   0.9788522  42.3816395  24.4154954  50.6279612  51.9222450
  23.6460567  50.0611162  51.8685627  25.1307845  50.0942469  51.5762138
   3.4958693  26.8079519   8.5990268   3.4650186  26.7929411   9.5556116
   3.7928250  25.9312582   8.3551806   0.6724550  49.6284246  20.9351134
   1.5393895  49.9541569  21.1770916   0.0677725  50.3008080  21.2489438
  47.4000216  48.4233332  52.7098370  47.6897049  49.1053391  53.3157921
  47.2807980  47.6490927  53.2599020  33.6244440  36.5342689  30.7073975
  32.9573059  36.9076061  30.1313972  34.4398618  36.6135716  30.2123857
 103.1710841  20.4654241  43.3889103 103.2368102  21.3704038  43.0840778
 102.4535741  20.0918388  42.8771973  78.2123840  93.8413805  93.4445908
  78.0776870  93.5106510  92.5564992  78.4027993  93.0606431  93.9646105
  46.9454241  25.4710245  80.7476330  46.2629557  25.0346446  81.2575817
  47.7162504  25.4537368  81.3148785  26.6135263  28.8556099  72.2015190
  27.3116159  28.9877796  71.5600872  26.2038136  28.0300784  71.9429350
  32.2380471  17.8167427  38.9116311  31.3753581  18.0848098  39.2280793
  32.6855326  18.6387157  38.7107611  39.4589877  12.8943896  46.2661886
  38.6146045  13.3153963  46.4274311  39.2640090  12.1996629  45.6372452
  24.5385551  26.2128782  31.7423558  25.4764438  26.1682868  31.5563202
  24.1326475  25.6847763  31.0549116  94.3869414  60.9119940  36.3484645
  93.8852181  60.3047514  35.8046269  94.0763631  61.7792034  36.0882330
  44.4626981  80.6864995  74.8975831  43.5776174  81.0445542  74.9658543
  44.6830225  80.4206080  75.7903272  40.3605604  36.6294670  10.2447987
  40.8825445  36.0360932   9.7047323  39.4960880  36.6294384   9.8338062
  17.1884000  18.7480438  28.4803581  17.0257688  17.9986370  29.0532207
  16.3193381  19.0108037  28.1771708  31.2958598   2.2323428  54.0348482
  31.3754058   2.4704328  53.1111479  31.1721134   1.2832022  54.0277433
  14.6144283  43.7222672  57.5215530  14.6921635  44.6306610  57.8131199
  13.6759627  43.5378075  57.5601435  41.0241556   5.9544307  28.3430529
  40.6723642   6.4420527  29.0878367  40.2818489   5.4447746  28.0182958
  29.2963457  24.9276209  54.1937399  29.9092388  24.3508768  53.7377119
  28.4390569  24.6972179  53.8356876  31.5703464  29.7094369  49.2689562
  31.6381979  28.9535427  48.6856461  31.3070560  29.3390083  50.1113892
  82.9118790  30.4302979  70.2085447  82.6708092  30.7606864  71.0739708
  83.5040083  31.0941625  69.8551369 109.8535152  91.1265278  38.9237428
 109.0104016  90.6752872  38.8816667 110.5020960  90.4225636  38.9259768
   2.9183327  90.0158941  41.4935780   3.5114800  90.2133810  42.2184277
   2.0430075  90.0853740  41.8746424  49.0062380  18.6391985  34.3663740
  48.2108641  19.0284932  34.0029716  49.5419979  18.4305346  33.6010957
 107.9896356 100.6716316  20.7366514 107.6044084 101.5061110  20.4693031
 107.8778935 100.6498002  21.6870570  53.5811269 106.8379635  95.0215008
  53.0032086 106.3175387  94.4634662  54.4611990 106.6523642  94.6939970
   4.7689423  17.3112297   9.0569347   5.3951049  16.7008555   8.6675817
   4.7431320  18.0490196   8.4476465 108.2188686   9.7241920  53.5519361
 108.5332199  10.6059587  53.7516928 107.9174425   9.3810773  54.3931532
  27.2566175  33.1344604  28.3341765  26.7170119  33.8480687  27.9938531
  26.8066287  32.3382330  28.0517507 110.6130989  50.7902670   7.4148732
 110.4859771  50.6363773   6.4787161 111.4413073  51.2671137   7.4689204
  27.3168159   6.8071896  37.6442599  27.6237535   7.0482695  36.7702460
  27.3385382   5.8502549  37.6502442   6.7205560  36.7395759  16.5215170
   5.9876591  36.8967438  17.1168256   7.4120903  36.3861513  17.0810747
  17.7414536  31.1173630  15.1949620  17.3242581  30.2876806  14.9630058
  17.0270562  31.6592622  15.5299449  96.0449018  54.3082857  50.7939911
  95.4409542  54.4365215  51.5254498  95.6165304  54.7351599  50.0520277
  41.3351536  32.4203873  31.1964154  40.6951189  31.9639683  30.6502748
  40.9352255  33.2718611  31.3732910  21.8021822  44.2162752  48.0549717
  22.5583339  44.0279675  47.4990892  21.7855787  43.4984589  48.6879778
  23.9921021  52.5162554  50.1259756  24.1738558  51.7688942  50.6957531
  23.1103921  52.7961111  50.3719378  54.2618370  48.4658289  54.6599340
  54.9486685  48.3018064  55.3061485  54.6100187  49.1707993  54.1140223
  38.4837580  43.3463955  10.3975654  38.9869213  44.1438389  10.2328277
  38.3787394  42.9467916   9.5341283  18.5555589  44.3391562  61.4133835
  19.1628861  43.8268042  61.9471264  18.2300258  43.7200499  60.7599592
  20.6063938  16.5633774  88.9760017  20.0465226  17.1908116  88.5187244
  21.0140467  17.0723963  89.6766758  59.6539450  58.7648678  25.9274054
  59.0447378  58.2995510  25.3541875  59.9447441  58.1034327  26.5552354
   4.6934435  41.9057941  35.3607225   3.7769687  41.8544865  35.0892949
   4.7746626  42.7681541  35.7681203  11.9738853  47.5971127   3.0614686
  12.8465700  47.3206377   2.7817965  12.1073091  47.9629755   3.9358675
 106.0322309 106.9718327  46.5623093 105.8873130 106.2226980  47.1402597
 105.4385901 107.6466946  46.8915272  10.5630338  29.7031283  38.1953955
  10.1027131  29.0937471  37.6183438  11.2288821  29.1677284  38.6269355
  23.0012751  14.4216180  24.3120575  23.6676884  13.9176524  24.7791171
  22.9079652  15.2260613  24.8223448 106.7738177  77.3510456  41.5815973
 105.8487215  77.5967979  41.5756989 107.0794197  77.5472784  40.6959724
  22.2728586  13.6840725   4.9604496  22.8349018  13.3948922   4.2416215
  22.4071646  13.0309117   5.6471622  42.1670866  22.6459217  56.9277763
  42.6534414  22.7431846  57.7464533  42.1029949  23.5354543  56.5801334
  73.5928809 106.1763758  89.6261436  73.7921822 105.2862448  89.3360090
  74.1953695 106.7305416  89.1300207  21.5542126  17.6712060  19.6815312
  21.6772795  18.4931922  19.2067420  20.7899165  17.8271604  20.2362919
  18.8614762  17.3505867  42.0922899  18.6096084  17.8051019  42.8961611
  19.3182266  16.5654147  42.3941422 101.2060644  14.7754991   5.8783931
 100.8720853  13.9272916   6.1703426 100.4422798  15.2198744   5.5104321
   6.5863550  15.9031737  27.2370934   7.1273750  16.4878166  27.7678680
   6.2348199  15.2690172  27.8619933 104.5493461 107.6924244  40.8617496
 103.9009238 107.1245556  40.4454517 104.8781038 108.2421845  40.1504755
  61.4946938  54.0809536  11.6937399  62.0329905  53.5297346  12.2617388
  61.0585785  54.6875668  12.2921169  44.9028349  35.1164317  38.7646723
  45.1590204  35.9701037  38.4156132  45.7282686  34.6435213  38.8707185
 100.9977355  13.1846702  29.5503402 101.2753608  13.4689176  28.6795020
 101.2565376  13.9011133  30.1299620  82.5735761  86.7219757  48.3474636
  82.1175266  87.1556210  47.6262140  83.4825511  87.0100664  48.2637930
  26.7757845  25.4065585   0.4000660  26.2184000  26.0377431   0.8552134
  26.3065553  24.5755553   0.4741374 105.9826303  91.5878391  53.9257812
 105.8330108  90.6568360  54.0903378 105.1874996  91.8835055  53.4824038
  38.2395554  25.3319097  41.2146187  37.4388242  25.2359557  41.7302227
  38.2186151  26.2377644  40.9060335  17.2961879  33.1628990  51.6335630
  17.0158589  32.2828770  51.3821459  16.4802384  33.6458588  51.7647362
  98.6004843  44.1493654  39.5841742  97.7327206  43.8181067  39.3528986
  98.9362838  44.5287848  38.7720704  22.3864651   4.9199933  25.3662252
  22.9222131   5.4004449  24.7350574  22.4034548   4.0149727  25.0549698
  14.9673176   4.1350350  13.6107445  14.8715055   5.0866979  13.6480200
  14.5821404   3.8232729  14.4296908  32.1562815  25.0459123  25.3966689
  31.3808632  24.9030137  25.9393811  31.8133068  25.4072857  24.5793509
  25.0816274  41.1328030  50.3000879  25.2116942  40.2106237  50.5212259
  25.9534621  41.4468765  50.0603008  90.1471986  21.6697574  46.8813372
  89.8707332  21.6028595  45.9673738  89.4022669  22.0719099  47.3280811
  16.8631744  59.2712116  49.3848801  16.2410080  59.9180508  49.0521002
  17.1192551  58.7660789  48.6131954  11.2220991  23.4885979  14.5051003
  12.1101415  23.4954119  14.1479373  10.8737779  22.6300859  14.2645586
  19.9976717 100.4378723  28.9099884  19.3909918  99.7142755  29.0667558
  20.0565516 100.8879202  29.7527361  21.5641928  21.7229700  56.3938618
  21.3094926  21.1244416  57.0960903  21.2138200  22.5718451  56.6638231
 103.5912695  35.4846358  14.8396325 103.1111099  36.2265205  15.2074444
 104.4187023  35.8602738  14.5388269  32.8386593  49.5383549  20.7537293
  32.0350099  49.3850374  20.2568674  32.6520538  50.3183126  21.2762976
  50.2983236  28.7321711  11.7563951  49.5174980  28.1790638  11.7316341
  50.0139093  29.5650291  11.3799834  74.3280220   9.5109928  37.7894139
  74.4407225   8.6626148  37.3607111  74.2238426  10.1317799  37.0683026
  62.4000645  39.1023159   9.6150219  61.9257545  39.4710994  10.3601789
  61.7384958  39.0168476   8.9285451  12.8848851  53.1291342  25.9204507
  12.6600504  52.9743958  26.8379116  13.6325121  52.5542355  25.7568169
  59.0670967  26.2359095  29.2074060  59.0289974  25.8211327  28.3455801
  59.2241859  25.5127454  29.8145199  61.2635469  32.7289057  52.8649282
  61.1631346  31.7815113  52.9576349  60.9352541  32.9197145  51.9862652
 106.1270096   7.3638344  77.7106285 106.8654569   6.8873155  78.0899143
 106.4678707   8.2432711  77.5474215  33.3226132  26.6604495  52.5932312
  32.8357220  26.5107489  53.4036398  33.3983946  25.7930374  52.1956348
 100.2626183  30.7212639  36.8395948 101.1252310  30.9606576  37.1784472
  99.6477975  31.0522032  37.4943542  24.9784470  29.2615223  34.9157906
  24.2297673  28.8767338  34.4601083  25.4961157  28.5095048  35.2034044
 110.8611489  22.0103259  85.8051353 110.1509429  21.4500089  85.4922777
 110.9799982  21.7576356  86.7206979  92.3935617 104.6304780  54.6107626
  91.9641841 104.7042536  55.4630661  93.2453085 104.2391568  54.8047400
  35.9085202  54.5656586  38.3082962  35.1490211  54.0724897  37.9981661
  35.7452559  54.6943998  39.2426419  22.9814529  45.1965523  43.3534098
  22.5835252  44.6044493  43.9916086  23.8045979  45.4682016  43.7594509
  38.1537080  41.9978094  27.0163536  38.2986355  42.6988125  26.3808846
  38.6496925  42.2685909  27.7889514  46.4310122  44.6776581  24.3682694
  46.0687160  44.9726248  23.5328221  47.1955729  44.1549206  24.1265702
  47.6007986  49.9989843  36.3618875  47.2151995  49.1581535  36.1158299
  46.8494749  50.5756617  36.5004039  38.3342671  52.7526522  31.0662150
  38.6058688  52.9663467  30.1735806  39.1449308  52.7737045  31.5747523
  52.8747940  28.0493641  58.5164356  53.2397842  27.3293829  58.0020094
  52.8522921  27.7155900  59.4132757  51.4002275  38.4681487   9.7683573
  52.0730495  37.8479481   9.4874710  50.9206772  38.0061483  10.4559755
  16.2420404  24.6274400  29.8045206  17.0552015  24.5347738  30.3009224
  16.0781395  23.7542939  29.4481683  38.7865686  53.4797955  39.0378499
  39.1715741  52.9404068  39.7285461  37.9495740  53.0581570  38.8432002
  65.7070875  38.4230614  24.3948007  65.3118896  37.9538989  23.6599994
  66.6492844  38.3680177  24.2352080  48.0514288  66.9954491  29.3762136
  48.5338736  66.9275093  30.2001452  48.4232521  66.3080215  28.8235617
  36.7488925  78.3926362  67.8970486  36.7444336  79.3298883  67.7027088
  36.3542923  78.3264536  68.7666136  22.9357338  48.7025213  16.7629886
  23.5659218  48.6551905  17.4819160  23.0557942  47.8820372  16.2848389
 107.9438067 100.3309023  25.7675529 108.0607367  99.3844020  25.8493900
 108.5704757 100.5922031  25.0928354  45.4533911  55.3359413  46.7199039
  45.2438021  55.7028866  47.5787735  44.7834539  55.6930590  46.1369085
  26.5928292  36.8810201  47.9682493  25.6529307  36.7319942  48.0712652
  26.6589332  37.7801061  47.6465273  56.4661837  10.5435324  44.6883345
  55.9250259  10.6942248  45.4633665  56.6394663   9.6021837  44.6965504
  47.1723032  40.5914736  16.8136954  47.7219915  39.8403597  17.0370805
  46.7967844  40.8702660  17.6488566  45.4213572  36.3489938  34.3518233
  46.1040735  35.7473969  34.0548205  44.8270369  35.8020353  34.8654890
 103.7610317 106.4778113  36.2853575 102.9134870 106.1243629  36.0152149
 104.0032698 107.0819774  35.5835485  42.6820135  36.5017581  31.1774254
  42.1314859  36.8304682  31.8881345  42.7835321  35.5686355  31.3650632
  26.3571119  50.8122015  25.9852195  25.6169295  50.2203131  25.8509517
  26.0500216  51.6577578  25.6581569  34.8169160  50.8673334  35.4347086
  34.3109488  50.3206158  36.0358119  35.6597948  50.4205084  35.3563857
   8.7412483  28.9713073  19.0325010   8.0322236  29.5310736  19.3490088
   8.5641813  28.8660049  18.0977321  41.6479635  65.4971027  23.5004377
  42.3718119  64.8769379  23.4128809  42.0342112  66.3472891  23.2901335
  32.1692824  46.4980841  38.0289221  31.7835665  46.9491863  37.2779489
  31.5552354  45.7903051  38.2244372  15.8021104  39.4919872  10.6402993
  15.7011938  39.1744089  11.5376234  16.7448592  39.4567990  10.4783762
  42.7698469  44.0388155  22.3599172  42.6244974  43.2833052  21.7904353
  42.1031761  44.6717072  22.0930219  27.2882962  43.9949179  68.8194942
  28.1110287  43.8945770  69.2983246  26.6202736  43.6619091  69.4187307
  59.4922018  42.5459862   8.7839246  59.6108913  43.0016232   9.6173131
  58.5645962  42.6613712   8.5778540   8.0374557  40.2518272  39.1728354
   7.4659538  41.0165358  39.1032934   7.4385393  39.5051956  39.1812372
  62.3173046  28.2517767  47.6313257  62.8868771  28.9078236  48.0330992
  62.4078941  27.4807477  48.1912708  31.9135976  20.0843024  26.8622684
  31.5996242  19.3820822  26.2925863  32.6006484  20.5157208  26.3542604
  33.7095642  37.4843144  54.7812796  33.2971358  36.7406392  55.2206898
  34.2197251  37.0912528  54.0731335  37.6579928  49.3990564  34.6506119
  37.4630761  49.0371752  33.7861586  38.3824778  50.0058508  34.4984484
  17.4150169  51.6282845  21.8135500  17.4724138  51.9262218  20.9057117
  17.6004541  52.4097538  22.3342705  37.9111052  41.8531513  41.4314795
  37.1931195  41.7279291  40.8109570  37.9511118  41.0312748  41.9205046
 103.7944176  55.6528759  54.9853134 104.4380846  55.0868130  54.5592833
 103.3660605  55.0872421  55.6278133  28.7961006  40.2457285  52.2235155
  29.5125389  40.1269388  51.5999508  28.9210415  39.5486712  52.8675127
  50.3904629  41.0442352  18.6402130  50.0943327  40.8284044  19.5244956
  49.9227333  41.8500900  18.4210014  45.4039764  43.3543634  34.4599223
  46.1884928  43.0497122  34.9159336  45.0275040  42.5625372  34.0758443
  21.9800639  27.8175521  21.5928721  22.4192929  28.2537937  20.8628035
  21.2684798  28.4108949  21.8333387  47.6262856   1.8171775  36.8291306
  47.2849321   1.1424100  36.2422752  48.3719015   2.1893349  36.3581824
  32.1719551  45.8967924  22.5712490  31.9981170  45.6324768  21.6678381
  32.9230809  46.4867306  22.5078845  37.4984527  46.7895174  16.2093580
  38.3996677  47.1003008  16.2957191  37.2806859  46.9389772  15.2893186
  37.4840086  80.1750535  92.4353921  37.1530887  80.6578130  93.1927998
  37.0154713  80.5494279  91.6893708   9.1862786  39.6365047  22.9349113
   8.3649033  39.1451740  22.9479432   9.3474495  39.8580050  23.8520789
  20.0250649  57.0037985  66.6295671  20.4926538  57.4160337  67.3559666
  20.6979132  56.8552017  65.9651661  35.3617668  42.7068615  25.8245969
  35.2581882  43.6572742  25.7775068  35.9266281  42.5648355  26.5841961
  35.4499078  30.8051848  12.7930224  36.1349082  31.4691854  12.8711843
  35.4801583  30.3308988  13.6239064  56.1884975  31.6762877  55.4851437
  56.4704561  30.7644701  55.5580854  56.3426685  31.9020128  54.5678043
  51.7130947  34.4041228  47.8018951  51.2985849  35.1200366  48.2834339
  52.5390148  34.7728181  47.4886036   8.2584876  43.1890821  80.7746315
   7.5541466  43.8207102  80.6290913   8.9804077  43.5060883  80.2318859
  21.7162395  61.9533825  35.7762671  21.4577031  62.5763941  35.0971127
  20.9334803  61.8505955  36.3175201  28.4933090  40.3001976  38.4324121
  28.9218688  39.6042061  38.9305711  29.1429400  41.0021544  38.3940530
  72.9287148  28.9046144  47.4991894  73.6707735  28.3833885  47.1927500
  72.9214668  29.6711564  46.9259596  23.5188818  43.7251234   4.0827268
  23.3156300  44.6528625   3.9634919  23.4428716  43.5826111   5.0262016
  45.0145149  33.9542627  56.5855265  45.3379297  33.1374407  56.9655752
  44.1270924  33.7472415  56.2925243 109.4583388  32.4104714  43.7157440
 108.8099553  33.0899024  43.5308027 108.9389737  31.6399407  43.9454699
  53.9194441  37.8735614  31.7949677  53.7109947  37.5758457  32.6804876
  53.0789232  37.8699374  31.3369918  43.0948830  25.1434827   1.3060017
  43.3054209  24.9859858   2.2263825  43.6512041  24.5309377   0.8248302
  36.1206985  32.8086305  22.5481343  35.4667163  33.4947157  22.4146318
  35.6656504  31.9970131  22.3235416   9.5872426  56.2733889   5.8517665
   9.7505349  56.6384459   6.7214227   9.2597455  55.3899240   6.0204893
   7.2401077  20.8688521   2.8644675   7.4097085  21.0173845   3.7947392
   6.2901258  20.7662249   2.8076029  51.2335205  67.1290588  22.7957916
  51.5328789  67.1833086  23.7033558  50.3590918  67.5182295  22.8083444
  18.7251818  28.1571698  56.4917421  19.3062544  27.6047564  55.9688425
  19.2322433  28.9528418  56.6530752  47.6206112  54.9732065  44.7856855
  47.1207333  55.1399660  45.5847740  47.6980066  54.0199614  44.7461224
  18.7229764  35.0016069  36.2038207  17.8659284  35.4154921  36.3057971
  19.1405904  35.1016736  37.0592833  94.4122709 104.3071609   6.0407430
  93.6069239 104.4253670   6.5444040  94.7461236 105.1948287   5.9110498
  28.8238311  31.5261388  24.6656132  28.9136767  32.0352483  25.4711986
  28.3638716  32.1105385  24.0629959  34.8689365  52.4267960  44.8173904
  35.0629735  53.2316351  45.2978230  35.3598356  52.5115013  44.0000343
   8.2056326  32.1876359   7.6683432   8.3312261  31.4816856   7.0342344
   7.8057820  32.8953171   7.1628368   4.5398536  45.7668400  33.4719515
   4.2476946  46.4378357  34.0889096   5.3851414  46.0848379  33.1547832
  23.7418652  23.7598896  53.3780241  23.5914350  22.9554272  52.8815889
  23.3734155  24.4523335  52.8293896  37.0060301  48.4522104  50.9274054
  37.8068590  48.0417585  51.2536383  36.3090348  47.8416014  51.1673784
  37.9981422   9.3021768   1.2765674  38.2315493   9.4353521   0.3578633
  37.8700757  10.1857710   1.6216652  31.9102836  52.5823879  14.7470772
  32.1505785  53.3970451  15.1884675  31.6781688  52.8510571  13.8581610
  28.4501648  42.6080561  32.2050118  29.3797469  42.7997065  32.3290229
  27.9973006  43.2717800  32.7252245  33.6925936  32.9404783   5.5994737
  33.6297536  33.3792019   4.7510600  33.8190961  32.0167756   5.3826720
  24.8649907  38.3845258  16.1774659  25.7668781  38.6867356  16.0702193
  24.8832941  37.8539395  16.9739425  35.7005477  58.8535500  21.8232775
  35.0681281  59.5482016  21.6396117  35.3697443  58.4320688  22.6164699
  52.6235628  41.6074467  22.1744275  53.3637238  41.5690851  22.7801704
  52.4514723  42.5427198  22.0654583  37.4367857  26.9667745  54.1606236
  36.8970966  26.1946607  53.9909029  37.8405213  26.7945194  55.0112486
   9.3292904  15.5500638  18.7358594   9.7372454  14.7878706  19.1467905
   8.7368971  15.8941936  19.4043469  48.4457302  42.7621222  34.9502754
  48.0790567  42.5908279  34.0828395  49.0385056  42.0275211  35.1090622
  26.0466480  41.9892168  54.9969482  25.4376268  41.4055014  54.5446157
  26.7877865  42.0735502  54.3970871  55.3100348   4.1848290  46.9683266
  56.1614513   4.5871893  46.7967892  54.8420334   4.8308772  47.4973154
  78.4984732  38.6113930  55.1909351  79.0140963  37.9611969  54.7138500
  78.9563894  39.4382119  55.0395584  10.1131487  41.3756514  13.8818598
  10.8914173  41.0004425  13.4698534  10.2832818  42.3173952  13.9020586
  49.5613766  50.3885269  16.4778328  49.4465637  49.4388485  16.4437366
  49.6821880  50.6481218  15.5644619  29.4890690  50.5152798  26.3517308
  29.8419213  50.2864981  27.2116089  28.6613655  50.9567022  26.5422058
  58.2804251  35.7581830  22.1374178  58.0984592  34.8856521  22.4864268
  58.3533096  36.3156223  22.9121327  51.1424923  48.3484507  22.7630639
  50.9771538  48.9136505  23.5176778  51.7853022  47.7122641  23.0765915
  28.6723495  46.9683456  55.5704069  29.1149259  47.0437860  54.7250271
  28.1164455  46.1942005  55.4814863  57.0015311  95.4016728  93.9012385
  57.5527084  96.1818261  93.9628563  56.4909267  95.4046053  94.7108719
  13.7069213  47.8746700  79.1408539  12.9898798  47.2478724  79.0448856
  13.6868572  48.3871317  78.3326387  57.1926165  46.4372158  57.7215099
  56.8758821  45.6332779  57.3096848  58.0425310  46.1981297  58.0912590
  13.9149904  42.7376938  46.7856121  14.7002220  42.3718643  47.1928167
  14.2447889  43.4151173  46.1952209   7.6038420  29.5576978  27.7479339
   8.0329520  30.0636673  28.4379268   6.7551666  29.9845290  27.6304698
  51.7073536  55.6503010  30.2737761  51.6977167  56.6021490  30.1731944
  51.3287449  55.3195333  29.4592309   4.7541305  61.1720324  42.1908951
   4.8875022  61.7715693  41.4567280   3.9055237  60.7649565  42.0165777
  33.6150432  51.1651897  32.3853874  34.5246625  51.4630890  32.3764801
  33.1263304  51.8989992  32.7580953  40.5174923  46.6264057  61.4626551
  40.1089144  46.1199617  62.1646595  40.1725435  47.5122690  61.5743971
  49.2238569  50.7292747  33.8357687  48.6415100  50.3393984  34.4877672
  49.8832226  51.1940527  34.3509889  38.3929181  30.8374619  64.8468447
  37.6974487  30.6064963  64.2310429  38.5814452  31.7573667  64.6611977
  46.0303402  52.9759073  30.0558805  46.1737251  53.8142490  30.4950285
  46.7050409  52.3992682  30.4143405 111.2177189  37.9622507  45.3894281
 110.8376684  38.4928989  46.0895729 111.0591330  37.0582104  45.6610775
  16.8201673  26.9155145   9.6870476  16.5108466  26.9017529   8.7813091
  17.2772062  26.0816598   9.7967517  59.1377926  26.7026377  51.0294867
  59.4217062  26.1301517  51.7421484  58.4384441  26.2148237  50.5945396
  28.5994220  54.1770744   3.9345881  29.2696762  54.7102547   4.3620315
  29.0818024  53.6539507   3.2943654  47.1554375  38.4001923  68.2504129
  46.3923502  37.8958774  68.5325336  47.2186804  38.2330418  67.3100424
  59.8775291  28.3528018   8.5969299  60.6295204  27.9715657   9.0501446
  59.2307901  27.6476192   8.5709828  37.1506476  56.8923330  37.5749183
  36.5658355  57.2895336  38.2202554  37.3175526  56.0123444  37.9125404
  49.4579649  46.9666719  20.4090691  50.2976179  47.3243141  20.6976938
  48.8814831  47.7283621  20.3479862  38.2250714  54.9186277   5.7571667
  38.8860655  54.5687819   5.1597345  38.7295747  55.3015184   6.4748734
   8.3604294  46.6322184   9.1551828   8.6034089  45.7067299   9.1809869
   7.9997218  46.8094587  10.0239217  29.3652320  38.9244080  41.0739613
  30.2566195  38.7497401  40.7720423  29.3334961  38.5518861  41.9551229
  37.3978527 103.4095234  76.7157823  36.5828714 103.1223006  76.3040274
  37.9807342 102.6534457  76.6462821  21.0593224  46.0569715  60.7222176
  20.1177144  45.9874773  60.5648088  21.4010906  45.1863527  60.5186319
  24.8543525   8.0171472  44.9091768  24.6056175   7.8145289  44.0073395
  25.4027152   7.2799975  45.1777649  34.1451526  14.3903041  35.5138731
  34.5327783  13.7252927  36.0828543  34.2892647  15.2154315  35.9771538
  49.3305349  33.9846659  35.2934289  49.0717554  33.0697703  35.1828289
  49.7534990  34.2155957  34.4663835   5.4979515  60.1304388  19.4635260
   5.0552547  59.4951487  20.0262451   4.8027879  60.7238150  19.1791189
  20.8998179  46.6550875  42.1887302  21.7644691  46.5027237  42.5700378
  20.4484844  45.8154392  42.2754145  49.1068602  53.8303757  20.0390458
  49.5019722  53.3713722  20.7802820  48.8728714  53.1352329  19.4240177
  13.5398602  18.7897372  35.9816027  13.5952020  19.6788466  35.6313825
  13.8015938  18.2281840  35.2519560   8.4502220  45.9932280  34.9752688
   8.8516653  46.0983276  34.1126966   9.1892958  45.8601284  35.5688047
  35.3640440 109.5042080  93.9482051  35.3715548 110.4445834  93.7696932
  35.9575176 109.1318602  93.2959941  37.8094578  48.1735992  10.3466499
  38.3643174  47.4568176  10.0390947  38.2312274  48.4746075  11.1514699
  31.8408966  35.2123260  35.8630943  31.2396908  34.6844292  35.3376317
  32.7095795  34.9920630  35.5267787  46.0142899  41.2473297  25.9204769
  46.2073612  41.3401365  26.8533993  46.4427900  40.4296684  25.6673980
  64.4138157  90.0321216  93.7622529  64.6472895  90.4309601  94.6004949
  64.3644917  90.7681507  93.1522842  34.7574830  43.7730408  13.4847724
  34.6030164  42.9300785  13.9111328  34.2430520  43.7315416  12.6786280
  14.7002852  38.5540724  32.0730591  14.2523718  37.8855562  31.5547061
  15.4000735  38.8709426  31.5019894  55.4592943  34.7262359  44.1284227
  54.9136877  33.9408898  44.1705894  55.6313086  34.8485303  43.1947851
  15.7758451  25.6986380  71.4319706  16.0957563  25.1563001  70.7110310
  16.5530586  25.8751273  71.9620895  48.7174416  45.4836941  28.2925105
  49.4350910  44.8503113  28.2870340  49.0480137  46.2157106  28.8131857
  23.6091948  73.8847876  62.9004431  23.8889313  73.3181143  63.6193705
  22.6532006  73.8776588  62.9479122  40.6893063  39.5844913  60.7139969
  41.0140991  38.8057947  61.1660719  39.7651696  39.6352220  60.9581900
  68.5856676  43.1459618  46.9530153  69.0971661  42.3395109  46.8879128
  67.7179337  42.9061317  46.6278172  32.6592302  64.1690063  10.0821388
  32.4549770  63.8172436  10.9486127  33.1533742  64.9694920  10.2590036
  54.8238802  29.7728872  19.8173666  54.4865799  29.2608500  19.0823317
  54.6481133  30.6824160  19.5763350  16.2120831  36.1757827  35.1461887
  16.5156376  35.9887934  34.2578626  15.6055212  35.4630566  35.3470254
  42.3621464  24.2036653  31.7588830  42.7067518  24.7511125  31.0533476
  42.8325081  23.3747149  31.6703582  61.7598057  70.8085871  22.5126815
  62.4249744  70.5614662  23.1551075  61.0025835  70.2652121  22.7308202
  50.5582988  86.6044897  79.5066696  49.7628498  87.0897288  79.7258407
  51.1496782  86.7698044  80.2409535 112.7635105  46.4514208  39.9221706
 112.1752818  47.1403790  40.2312899 113.0611162  46.7571926  39.0653348
 107.5776204  20.5032325  38.3723998 107.4922891  20.7763481  39.2858338
 106.8866160  19.8519635  38.2515883  47.7899265  28.7563705  82.8881454
  48.1108665  28.3172464  83.6757946  47.0344925  28.2359695  82.6147652
  13.9730525  43.4645224  37.7433133  14.0033650  43.5904026  38.6917162
  14.8890483  43.4993362  37.4676847  41.5726042  49.5556211  56.9118690
  40.9425640  48.9859962  56.4704990  41.9622040  49.0025043  57.5890017
  29.2750382  63.1781626  11.4406288  30.0959826  62.8570318  11.8136644
  29.3140459  62.9215479  10.5192935  45.8936691  49.1022635  48.9096498
  45.2027988  49.0866852  48.2473135  46.2290287  49.9984550  48.8849020
 115.4765054  64.1560507  50.9411430 116.1753480  63.5199881  51.0937214
 115.0050070  64.1980219  51.7731047  43.0302334  47.8029537  18.5606992
  42.2682905  47.2334433  18.6671519  42.6635981  48.6852789  18.5031402
  62.3655510  59.5582962  33.2789731  61.9275141  59.6849489  34.1205883
  62.1123934  58.6759758  33.0075836  15.0237060  51.1930180  14.5173025
  14.9603713  51.6227627  15.3702641  15.1116657  51.9127607  13.8924289
  47.4349689  45.6312943  43.9425278  47.9841518  46.3080502  44.3382883
  46.8621206  45.3420591  44.6527529  37.1733665  25.6602335  34.6607590
  37.5318146  25.5606937  33.7788057  37.2975922  26.5867424  34.8666263
  12.5984013  45.2054119  35.7510471  13.1068301  44.5612526  36.2437820
  12.6636624  44.9165630  34.8408079  39.7537708  52.2620058  41.1950684
  39.5960140  52.9559374  41.8352270  40.7059097  52.2353649  41.1004496
   2.9197261  47.4065828  62.6310158   3.8382861  47.4947596  62.3766470
   2.8477985  47.9046774  63.4452343  41.9507027  35.7064748  45.7692003
  41.9606256  34.7535086  45.6798363  41.2670946  35.9965682  45.1652479
  60.3699207  46.2405539  30.5979705  61.1190891  46.5035439  31.1325836
  60.0330496  47.0608759  30.2376604  51.8280315  34.2203331  11.9333506
  52.3750734  34.8906970  11.5239704  52.4160051  33.4756327  12.0596039
  41.4765167  20.7883501   6.6811895  41.7168617  21.6808224   6.9301003
  41.8313026  20.6820941   5.7985407  30.4922867  50.5176640  31.6383266
  30.4527521  51.4564180  31.8211055  29.8878121  50.1253223  32.2683334
  23.6195564  42.5814009  23.3409929  22.8582907  42.3621225  23.8782287
  23.6679578  41.8765783  22.6951528  52.0238209   5.8756739  48.4564543
  52.8758574   6.2641484  48.6548281  51.5886688   6.5231603  47.9018068
  55.9009933  39.7574973  33.3219862  55.8254337  38.9654708  32.7898049
  55.9401846  39.4376063  34.2232990  22.6510358  18.5153115  46.6856909
  22.3246622  18.5360801  45.7860899  23.4917545  18.9712191  46.6460514
  27.0242143  52.7868748  22.8281450  27.9350710  52.5022745  22.9027987
  26.9608402  53.1588459  21.9484544  19.6967041  26.0738516  11.8136668
  18.7948155  25.8231091  12.0135570  19.6149898  26.8937898  11.3265777
   8.2306206  43.3707047  37.2221112   7.7568722  43.9461708  36.6215849
   8.7735891  42.8253269  36.6529155  40.2256966  45.2904272  21.7617369
  39.5156813  45.5945253  21.1963749  39.9839139  44.3922710  21.9877863
  37.4258709  47.9591084  23.5350108  38.0834818  47.4751711  24.0345955
  36.7436314  48.1653643  24.1739464  10.7039893   9.7898704  37.5025725
  10.6240571   8.8363051  37.4789834   9.8144567  10.1006949  37.6709509
  27.7916718  12.1464908  57.6484919  27.0022583  11.6498113  57.4331522
  27.4902129  12.8255522  58.2520056  76.4081514  89.4535870  90.0188005
  76.6843521  88.6254401  90.4113802  77.0129859  90.1025624  90.3782943
 112.6718583  69.3737173  45.1141357 112.8267028  68.4591627  44.8778248
 112.2122472  69.7416019  44.3593788  51.7574072  31.1743832   7.6598930
  51.7034292  31.1590528   8.6154467  50.9910488  31.6775942   7.3847502
  21.2847710  50.1870108  28.0505443  20.8836508  49.3349171  27.8794503
  22.1367264  49.9780893  28.4336305  59.9822092  47.8467798  25.5654502
  60.9110212  47.7019691  25.3849697  59.9519825  48.0795383  26.4934278
  25.2324581  34.3775439  26.8087721  25.5581999  34.3731713  25.9087133
  24.4265914  34.8925734  26.7693353 109.7146299  80.4032612  70.3730536
 108.9598574  80.3534031  69.7864866 109.4751944  81.0715103  71.0151958
  68.1427717  34.4634509  50.5094814  68.0360126  33.6514902  51.0050154
  69.0852690  34.6300340  50.5228281  52.8192234  44.0217447  15.2722037
  52.5504398  43.2404137  15.7554293  52.7396154  44.7345686  15.9060597
  84.1763592  47.4720907  10.3098297  83.5493851  47.7021885   9.6241254
  84.9942684  47.3067808   9.8408514  58.2377243  41.0791826  28.3338952
  57.6795244  41.7075968  27.8759241  57.9956293  41.1708975  29.2554212
  25.7459188  82.0143414  20.9730721  26.0776949  81.1221409  20.8724070
  24.8065019  81.9052982  21.1208463  45.4713392  50.7773590  24.1951752
  44.7926807  50.2272558  23.8039684  45.6746149  51.4239740  23.5193086
  42.6560307  52.8313303  31.2080836  42.0818853  53.5131264  31.5570021
  43.2262945  53.2907534  30.5916739  49.9202108  37.2817302  66.9778252
  50.1617098  38.0648637  67.4724102  49.0150595  37.4381256  66.7086172
   8.4385031  68.5842705  45.7065535   9.1929507  68.9675903  45.2592230
   7.6806343  68.9156294  45.2248192  86.0353482 103.6147971  94.7925151
  85.8980286 102.8709740  94.2059134  86.8804610 103.9769406  94.5262975
   2.9601275  16.8217607  93.9725081   2.9415356  15.8659406  94.0204888
   2.1539580  17.0541663  93.5117340  40.1554632  31.7994094  49.2110825
  40.8876514  32.1941471  49.6846962  39.5846772  31.4538813  49.8974085
  31.3461041  54.9194813  29.9116707  31.1973810  54.5094061  29.0596437
  32.0605612  55.5377913  29.7584486  12.5665247  49.9257421  27.7629161
  13.3896899  49.4505596  27.8761983  12.1115458  49.4537687  27.0654440
 114.8173060  66.8997145  36.4108372 115.6324012  67.3459911  36.1812949
 114.2797238  67.5780869  36.8195581  25.7715702  24.9371839  40.9854221
  24.8649907  24.9251795  41.2923527  26.0605907  24.0274382  41.0565710
  30.6431413   8.5514081  42.9962826  31.0893679   7.7419621  43.2451010
  29.8095322   8.2612556  42.6259518  19.2265487  23.0546212  11.3372922
  18.7146974  23.1248593  10.5314970  19.9460781  23.6746764  11.2188005
  39.7604775  43.6071014  32.9696369  40.5801821  43.1681061  32.7424812
  39.3653870  43.0462265  33.6371350  47.4494076  53.0450058  14.3901408
  46.9581795  53.8664341  14.3766475  46.9860840  52.4992657  15.0255406
  28.5901451  51.9294119  33.3852887  28.2281685  51.7747688  32.5127673
  27.8576565  51.7692804  33.9803076  53.8886356  56.1294985   9.4571698
  53.6888552  56.9040918   9.9828368  54.4185114  56.4618969   8.7326181
  17.2840762  39.2802072  13.4241605  16.9567490  39.5060730  14.2948341
  16.7207050  38.5622954  13.1352878  16.0659671  53.2613468  44.1855288
  16.1954117  53.9004421  44.8862648  15.6698751  53.7636137  43.4734392
  35.4509878  44.9404001  22.3574901  35.1263165  44.8638201  23.2546830
  34.8662305  45.5758524  21.9445872  30.3513622  50.2688599  45.9585047
  30.8096409  50.4438353  45.1365614  30.3101754  51.1194658  46.3955450
 113.1524325  22.6576180  81.3664490 112.6237870  22.1377416  80.7610637
 112.5147415  23.0621476  81.9546157  46.8375158  43.1335306   8.4895587
  46.2591171  43.6357975   9.0635020  46.9038916  42.2752476   8.9081061
  33.7073493  27.0974874  69.7300720  32.9860997  27.2011781  70.3507853
  33.2946515  27.1684074  68.8693285  46.3607836  58.9753437  27.6825523
  46.1323023  58.5252285  26.8692708  46.0863733  58.3736324  28.3745599
  96.6336119  95.2368492  93.2825291  97.2120630  95.9740538  93.4778701
  96.3571274  94.9154133  94.1407049  51.5839529  51.4044714  31.7310381
  51.4501667  50.4718924  31.9002271  51.3265467  51.8351221  32.5462151
  57.1176243  43.2483673  31.2471151  57.3807859  42.3814058  30.9383225
  56.3174677  43.4436321  30.7594109  54.5641422  35.3648019  10.6616724
  54.8174191  34.5802641  10.1752770  55.3573275  35.6215239  11.1319697
  45.6333256  59.2954969  42.4435043  45.1914549  60.0950336  42.7293777
  44.9287939  58.6554146  42.3427439  86.8356133  58.0059624  54.3579817
  86.6806698  58.8363695  54.8081446  87.5393772  58.1972742  53.7380219
  54.9871683  66.1782932  21.1377811  54.8174047  65.4242611  21.7024493
  55.5606985  65.8387327  20.4507637  47.6694441  34.5116448  24.5583272
  48.1926203  33.9791131  23.9592195  47.2196293  35.1380968  23.9913583
  50.1199293  59.7816801  45.7711363  49.4617510  59.1273737  45.5368042
  50.4008532  59.5339966  46.6520262  44.3499517  51.6518259  44.7031116
  45.2293777  52.0262575  44.6516466  43.7752342  52.3446321  44.3776083
  52.3352003  10.7417011  30.9458661  51.9797087  10.2517366  31.6873431
  53.1129837  11.1757672  31.2963986  47.4934435  64.4156027  38.3551121
  47.5646877  63.5716534  38.8011003  48.3830214  64.7687864  38.3673048
  43.2639313  57.9180908  27.4447680  43.8018179  57.1679020  27.6980066
  43.1175518  58.3945847  28.2619309  33.7402511  61.8685246   9.0936470
  33.7435484  62.7129316   9.5444202  32.8622675  61.8007469   8.7184364
  17.8235805  57.4466753  28.6047411  18.7666750  57.5973415  28.6688066
  17.6413512  57.4651814  27.6652312  49.3300247  33.3403492  64.9270773
  49.5598984  34.0115643  64.2845392  49.8105049  32.5626183  64.6433401
  49.4222975  68.4834957  37.1964097  49.0563917  68.6318684  38.0683780
  49.0947962  69.2140436  36.6717434  38.0930924  62.9270840  31.5061378
  38.7441468  62.4416733  30.9994483  38.1648064  62.5711012  32.3917842
  48.5111618  58.3588362  39.9406958  48.8101149  57.5075722  39.6209955
  48.1900787  58.8088608  39.1592789  78.0813885  27.7719498  12.2681129
  77.6648092  26.9546986  11.9946325  77.3512650  28.3610940  12.4580169
  41.2917042  39.8404002   6.5093350  42.2122860  40.0294352   6.3276047
  41.3110685  39.2769980   7.2829199  32.7758265  48.6352396  26.1135197
  32.5143123  49.5421267  26.2728834  32.2609735  48.3677626  25.3521943
  27.4021244  42.5885010  43.3013678  28.2791710  42.4219894  42.9559708
  26.8518567  42.6804018  42.5235558  37.7094841  57.8313923  24.6113276
  36.9017982  57.9630136  25.1078629  38.0038977  56.9553995  24.8607183
  41.2948847  53.2899189  12.8150058  40.9322834  54.0642643  12.3847198
  41.7367792  52.8111172  12.1137834  82.6586628  69.0659189   8.6858928
  83.0441666  68.4511852   9.3101704  81.8368912  68.6534071   8.4199053
  22.1559525  31.1454678  45.0426626  22.4761748  31.9602275  45.4297733
  22.1908259  30.5104709  45.7580614  40.8940220  28.6601710  22.6105309
  40.2230549  28.2469630  22.0671177  41.0073996  28.0608010  23.3481836
  30.7934237  45.7173920  19.9178922  29.9813223  46.2070847  20.0479937
  30.7748652  45.4635954  18.9951384  33.5508418  75.4289579   9.0391904
  33.8767481  74.7239876   9.5986855  33.0443072  75.9877634   9.6285868
   6.4403343  54.6322298  37.5942540   6.7895025  53.9921761  38.2144499
   5.6174934  54.2481709  37.2914934  48.4532928  59.0282393  42.5055647
  47.4988699  59.0438747  42.5767517  48.6216164  58.7836361  41.5955830
  32.7204227  18.7512541  56.9537354  33.6396313  19.0182519  56.9542170
  32.3889136  19.0323615  57.8065586  62.0728922   8.6914355  39.8908615
  61.6025066   7.9381067  40.2478886  62.4077559   9.1514671  40.6605816
  59.1520643  29.7021675  42.8256845  59.2285919  30.3870320  43.4900141
  58.6625862  30.1132488  42.1131802  68.1444263  74.5668554   8.2274050
  68.6445189  73.8481998   8.6142844  67.2308302  74.3504715   8.4138179
  98.7642634 108.3407444  65.5099851  98.1739056 108.2046885  66.2510615
  98.3946192 107.8053755  64.8078638  35.6665778  49.2216206  16.8193078
  35.6650686  49.6397495  15.9582651  36.1950326  48.4322834  16.7013323
   8.5702298  65.9578044  93.2012641   9.3737004  66.4621074  93.3291033
   8.6265538  65.2505774  93.8438296  39.9970317  37.2895885  44.5903301
  39.0868974  36.9990706  44.5313072  40.0138998  37.8715277  45.3501272
  32.0135164  33.1501031  62.9519653  32.0700288  32.1947646  62.9328346
  32.3263526  33.4258389  62.0903778  39.4796133  53.4239149  16.9189358
  38.7274480  53.3393621  17.5048804  39.9525142  52.5973034  17.0154381
  46.7281818  32.2015071  37.1803045  47.1820354  33.0003786  37.4487305
  47.1050072  31.9871974  36.3268948  42.9635191  38.3411741  48.3843613
  43.3591938  37.9851317  47.5888109  43.2612991  39.2504001  48.4137297
  97.8263474  51.8817902  16.3878715  98.2681370  52.6405001  16.7692053
  96.9002438  52.1235991  16.3784933 115.9718611  30.0680637  21.4877462
 116.3542822  30.0429511  20.6106162 115.0504564  29.8460460  21.3537526
  54.7666597  75.0064087  14.0130591  55.1631165  74.7170639  13.1912708
  55.0845575  75.9016466  14.1301942  25.0590873  34.3204427  30.4275298
  25.4745293  34.8989630  29.7880340  25.7072735  33.6342502  30.5863595
  51.0358763  77.9231691  31.9103742  50.7709599  78.0287075  30.9966373
  50.3547525  78.3726311  32.4106646  86.0264683  45.3328180  41.3400698
  85.7166767  45.3506947  42.2455788  86.4336300  46.1891747  41.2092781
  82.8769112  75.7213068  25.3959823  82.5558376  75.1686525  24.6834397
  83.0716705  76.5606070  24.9790049  55.1280880  81.8514061  28.8547826
  54.9577379  82.7811813  29.0056038  54.2595100  81.4500618  28.8278341
  58.1591988  81.9661045  36.5312386  58.8091516  81.9923210  37.2334528
  57.8295135  82.8630638  36.4764214  59.8219442  77.6146698  32.6398849
  60.6421471  77.3630667  32.2153878  59.5259333  76.8179798  33.0802178
  68.0814409  69.9637890  12.0877802  68.4664488  70.5825138  12.7084076
  67.6481485  70.5158281  11.4368248  80.5255508  64.7890949  12.4514294
  80.4795265  64.7809219  13.4074867  79.7381544  64.3233776  12.1697474
  61.8391609  79.6220493   8.5066605  62.6183844  79.2975378   8.0552936
  61.4930153  78.8573790   8.9667684  98.5998440  90.2927780  25.3659749
  98.3977985  89.3762016  25.5538487  99.1570282  90.5692101  26.0935473
  46.2395906  58.9451981  10.5062330  46.6768837  58.6362028  11.2996614
  45.3130579  58.9846754  10.7433105  65.3721714  96.4820957  32.2229028
  64.7205734  96.1445999  32.8375173  64.9071836  97.1559143  31.7269278
  42.5234842  34.6678686  28.6793637  42.6630592  34.5924115  27.7354050
  41.5779400  34.7835398  28.7731814  60.1424313  47.6921368   4.0820983
  59.3364000  47.9265547   4.5420963  60.3790903  46.8345833   4.4354084
  82.8643894  64.2530298  44.2192316  83.5366821  64.8820448  43.9573288
  82.5594521  64.5686626  45.0698900  65.5025005  82.4802589  43.7853622
  65.4758215  81.9934750  44.6091127  66.4258003  82.7046299  43.6695385
  84.4022083  94.4848728  54.8214340  83.9694595  93.6633301  54.5889759
  83.9023972  95.1579285  54.3594599  56.6141844 101.6367912  19.3871987
  55.9273243 101.3401222  18.7901688  57.3119116 100.9886646  19.2905533
  65.7033825  62.4298143  21.4073157  65.8740759  61.5218449  21.6576791
  64.8725653  62.6432467  21.8320751  50.9208775  76.2207556  28.8780689
  51.0431528  77.1272945  29.1599798  50.0489521  76.2082195  28.4833264
  80.6380272  86.6489601  51.2506723  80.4925537  87.1722317  50.4624748
  80.4152679  85.7554436  50.9894657  60.9632158  30.4727840  11.2640607
  60.3385735  29.8577189  11.6484475  60.7683182  31.3084888  11.6881454
  68.8225794  87.0174885  42.3611927  68.0209351  87.0169163  41.8381262
  68.9980173  86.0920620  42.5316334  34.3638444  45.9455585  46.6363239
  33.7324619  45.2374554  46.5091276  34.7580886  45.7645273  47.4895716
  54.3095541  51.8290472  32.8990316  54.4824028  52.7701950  32.9234385
  53.4262657  51.7570543  32.5372934  30.7574081  58.2456875  29.8716974
  31.6031075  57.8363037  30.0545192  30.2519870  58.1202841  30.6748486
  77.6145792  82.4119949  66.9431734  77.2748375  82.6845360  67.7955389
  77.6116180  83.2117844  66.4172888  46.0783768  80.7342243  10.4199135
  45.1429462  80.5554008  10.3238440  46.1999989  80.8756828  11.3587582
  68.6548042  85.2776623   6.0643095  69.0756369  86.0136795   5.6199968
  68.1947947  85.6754303   6.8035030  93.1390953 106.5829849  40.0417137
  92.4012852 106.9720078  40.5113173  93.4249020 105.8606243  40.6009579
  72.1017170  73.8637638  37.3067093  72.7725554  73.5114527  36.7218280
  71.3132572  73.9108038  36.7660165  68.3029079  63.3732843  21.4276648
  68.2697964  64.0296698  22.1235776  67.4549675  62.9316473  21.4744306
  36.3916945  97.1960258  35.4109216  36.7817116  97.9738426  35.8098221
  37.0824337  96.8422890  34.8505831  76.6107702 108.5251713  14.4778466
  77.3748350 108.8370514  13.9929104  76.7550230 108.8297272  15.3737640
 112.7927876  95.2748013  28.9395142 112.0842552  95.6049061  29.4920063
 112.3604393  95.0126266  28.1267548  40.1961136  80.7071590  10.8974802
  40.7331371  81.3986301  11.2843978  39.3726373  81.1405849  10.6733000
  25.4981112  90.2837849  41.2209082  25.4518795  89.3906689  41.5621567
  24.6834850  90.3954029  40.7308531   6.9280123  33.9751673  30.9813857
   6.2964796  34.1588641  31.6768312   7.6642298  34.5583010  31.1662579
  90.1064504   1.1931945  57.8476095  89.7869123   0.9840155  56.9699001
  89.3699135   0.9920073  58.4249067  71.7273903  81.6780186   6.2225151
  72.2603750  82.4386978   5.9911638  71.0247898  82.0342922   6.7662597
  69.1262293 106.4110470  80.6390476  68.7934017 107.2925568  80.8076000
  68.9001513 106.2404346  79.7247124  70.1502085  94.7942543  26.2398958
  70.8734798  94.6481323  25.6301785  70.0087166  93.9421177  26.6522932
  78.1873226 101.4430332  57.2163248  77.4425602 101.7236900  57.7481079
  78.2944345 100.5150127  57.4249935  85.8760929  96.6438484  70.4811907
  86.2646961  96.5494537  69.6115255  85.2771664  95.9011173  70.5578041
  75.8047915  74.7441673  37.0962906  75.6314373  74.6380901  38.0316663
  75.5251312  75.6384802  36.9007778  11.2877808  69.8185539  10.7971048
  10.6282196  69.3784714  11.3333273  11.9655190  70.0821543  11.4195311
  85.5719662  79.0200233  22.4011302  85.4023647  79.5932198  21.6535258
  86.2208939  78.3937311  22.0803905  63.5124588  88.8385010  40.1015186
  63.2829285  89.6784306  39.7039342  62.7203751  88.5692787  40.5666590
 110.4697050   9.0982199  44.6772146 110.5243362   8.2513476  44.2344427
 111.0645212   9.0174914  45.4228067  90.3140926  59.5200062  33.0967522
  89.6090698  59.2372227  33.6791730  89.9864578  60.3261232  32.6979232
 101.2351418  47.0852995  36.9584537 101.0952377  47.1001911  36.0116506
 100.3745556  46.8813658  37.3245525  87.7636814  67.3103094  25.9853649
  87.6288795  66.4043045  26.2632537  87.3455238  67.3619509  25.1258850
  35.3164851  42.6871438  91.8739712  35.7476269  42.2773213  91.1240434
  35.5746781  42.1489377  92.6222402  39.2364441  12.9205794  85.9407866
  40.1106821  12.7384753  85.5961484  39.3879877  13.1959958  86.8448955
  94.9188137  55.5312586  48.6116266  94.0449619  55.8168030  48.3450270
  95.0659370  54.7218132  48.1223583  58.1037903 103.5039997  37.1701145
  57.6794958 103.7331486  36.3432550  59.0327978 103.6781216  37.0189238
  70.9675646  67.2535515  42.6077604  71.3222933  67.7691317  43.3320332
  70.1418591  67.6851845  42.3883629  62.1266985  61.1348438   3.1302568
  62.6402426  60.4681969   3.5864210  62.6915836  61.9075346   3.1209493
  66.3992405  88.6971283  41.1512375  65.5290890  88.8045597  40.7671404
  66.9833755  89.1673183  40.5563068  89.2209911  44.4490528  38.8073754
  90.0449848  44.0724182  38.4985042  88.5443020  43.8879299  38.4286070
  49.7435141  97.3111439  34.7744799  50.6729555  97.1443081  34.9311376
  49.5797348  96.9534969  33.9018440  27.9729795  95.8821201  30.3206754
  27.2688961  95.2855778  30.5749321  28.3987951  95.4486179  29.5810866
  80.6883335  77.5275564  49.3470287  80.9882545  76.8558598  48.7345695
  79.9955273  77.1002722  49.8506927  31.4812409  50.7253499  87.2353035
  30.6150328  50.7019849  86.8286407  31.7285191  49.8050351  87.3252517
  79.5915699  96.8639278  33.2441068  79.1179514  97.4218559  33.8610673
  80.1636887  96.3295937  33.7949133  67.7464437  88.0419254  49.0882301
  67.6803923  87.1659184  49.4683504  68.5409260  88.0124187  48.5551643
  33.5665690  33.2114644  91.4235040  33.7918841  32.4128480  91.9006556
  32.7224671  33.0170198  91.0161793  34.2873465  21.2961478  90.0173002
  34.3938814  20.5288930  90.5796230  34.0316616  21.9980664  90.6157639
  46.8244076  84.1459370  68.6062002  47.7231693  84.0229321  68.9116907
  46.5196085  84.9275112  69.0671444  82.3411859   0.4524565  27.4778152
  82.6046003  -0.3740835  27.8823876  83.1185116   0.7445002  27.0016694
  62.4895048  82.1936512   0.6589824  63.2148504  81.5691948   0.6716146
  62.0350170  82.0496655   1.4890073   6.3382250  70.0594568  32.1038866
   6.1129880  69.1356087  32.2134519   6.2038833  70.4431438  32.9704690
  66.3974953  73.6191082   4.9104658  67.3204470  73.5993958   4.6574676
  65.9968901  74.2443800   4.3064928   1.3051592   8.3611770  80.5817657
   0.3810035   8.1155725  80.5387836   1.4274918   8.9628263  79.8474043
  82.1732616  64.6052313   4.2018753  82.9948044  65.0429296   4.4248489
  81.9399548  64.9569845   3.3427644  61.8891859  91.7424011   8.9151168
  61.2474108  91.5872955   8.2220829  62.7357817  91.5845871   8.4972614
  63.5722446  90.4455853  30.4038668  64.2699337  90.9946251  30.0460792
  62.9058790  91.0665512  30.6981277  89.1409969  89.0272808  46.0176277
  88.7327385  89.0749168  46.8820858  89.2518520  89.9408913  45.7544374
  67.1466017  82.7854347  37.6771545  67.2048712  83.7335205  37.7954030
  66.2421274  82.5707531  37.9053426  66.0719347  68.7341499  33.9307404
  66.2455893  68.8844728  34.8599768  65.7870150  69.5858145  33.5994959
  56.8309498  93.8618374  19.8582232  55.8758879  93.9001942  19.9093115
  57.1138906  94.7681808  19.9795485  78.5154819  73.6291075  23.0656695
  79.2043209  74.0449095  23.5841680  78.9862299  73.1327534  22.3961473
  55.4424047  73.8295317  27.8987312  55.3047228  73.4189558  27.0450902
  56.3794708  73.7274790  28.0652452  68.3892298  60.7215405   6.8063587
  68.7069511  59.8225784   6.7218369  69.0436363  61.1564636   7.3530030
  62.0200682  92.5462341  31.4315224  61.7287350  92.9107285  30.5957580
  61.2654257  92.0535469  31.7540193  67.8328562  95.4737949  25.0712514
  68.6167622  95.1460838  25.5120802  67.2142267  95.6478310  25.7806444
  95.6703281 104.9092007  18.9451182  95.3216648 105.7197952  19.3160617
  96.3521671 105.1973724  18.3382475  41.4695311 100.6631851   4.6915671
  41.5618229 100.5768108   3.7427500  41.8191385 101.5323162   4.8880771
 109.9691582 105.4579258  55.9526014 109.3882084 105.2645874  55.2168369
 109.3958282 105.8419228  56.6159868  58.3522593  19.9998565  92.0041850
  58.3688341  19.2784209  91.3753074  57.4335181  20.0707145  92.2632521
  54.3713903  92.9378319  12.8960979  53.9898777  92.2638988  13.4586728
  55.0015831  93.3897018  13.4572589  58.5498524  70.5333424   9.5664161
  57.9959393  70.8945370   8.8743526  59.1890097  69.9917126   9.1034383
  94.5528793  94.6865273  18.9776361  94.2733479  93.8930130  18.5210967
  94.3229389  95.3993607  18.3816218 104.3439865  78.0216312  41.6628933
 103.9685822  78.6951590  42.2300482 103.7004662  77.9120874  40.9628057
  47.6671791  87.3997879  44.6154213  47.2682810  86.9394493  45.3537989
  47.3272848  88.2924366  44.6778202  44.8328304 102.8233528  39.2183828
  45.4017162 102.1171474  39.5247793  43.9493132 102.5364590  39.4493055
  57.6183414  94.4859409   1.2082728  58.0730295  94.8574924   0.4523367
  57.4141836  95.2410889   1.7599136  70.2696514  86.1736107  20.8289695
  70.6167698  87.0568943  20.7042384  70.1869154  85.8214283  19.9427688
  14.5982718  82.1755886  35.9924197  15.1608944  81.4393997  36.2326670
  13.7337399  81.9349861  36.3254762  94.4296551  99.0210819  44.7014380
  95.3579807  99.1438103  44.5029831  94.2428970  99.6671391  45.3825903
  55.9933901  79.1075420   9.0114719  55.3110838  79.6811438   8.6626571
  55.6778908  78.8613319   9.8809958  74.0971565  96.3886166  28.3033633
  73.9650965  95.8764362  29.1011500  73.7482262  97.2546577  28.5142279
  92.2925663  64.7333288  27.1683955  92.5153828  65.2779818  27.9233360
  91.3570404  64.5569658  27.2680640  32.1175228  11.9872899  92.4946651
  32.1150194  11.6372581  91.6037661  31.1958348  12.1600194  92.6867267
  79.1727829 103.3082199  45.8287811  79.4245577 104.0031719  46.4369631
  78.5330534 102.7862644  46.3130808  98.1596279  95.0066757  28.5330725
  97.8656578  94.1028595  28.4193468  97.4814320  95.4130363  29.0726566
  25.4218888 105.9624863  61.5245676  24.9092555 105.6262684  60.7894516
  25.7355523 105.1789188  61.9760847 102.0762695   5.1014472  61.2678051
 102.3247160   4.3116332  60.7874966 102.6774324   5.7746745  60.9490490
  65.5810881  81.4555550   4.1967869  65.3128099  82.1381569   3.5817078
  66.4299488  81.1582184   3.8692936  75.9543800  74.3646717  15.9247530
  75.7805490  74.9408436  15.1804113  76.2475729  73.5439253  15.5289745
  61.5041161 108.4897995  24.7969604  61.6933107 108.6385250  23.8705039
  61.7036867 107.5641060  24.9365759  31.2114882 104.9600983  53.8320112
  31.2377858 104.5686626  52.9589033  30.4662442 104.5393658  54.2607641
  26.0876298 100.4088783  42.7418137  26.3187289 100.8260441  43.5717535
  25.6462717 101.0963154  42.2429371  86.3859463  79.3062305  12.1661782
  86.1537743  78.5567474  11.6178989  85.6461811  79.9069834  12.0763695
  77.3406935  89.9985600  45.3812408  77.0909452  90.6306744  44.7072268
  78.2773685  89.8582554  45.2427292 114.7325195  23.6319781  59.5793295
 114.8375477  24.3890238  60.1555920 114.7021307  24.0042258  58.6980009
  90.9230484   3.6665965  35.9601831  90.3037037   4.1615821  35.4238629
  90.8889259   2.7777148  35.6066847  45.4324865  89.5606422  18.4855294
  45.0045633  88.7158775  18.6250913  44.7171593  90.1965427  18.4985650
  70.5929852  81.4158630  34.3264174  69.9354172  81.9990826  34.7054935
  70.9888935  81.9276333  33.6210251  55.3259922   5.5900622  67.4059582
  56.0073150   5.8668566  66.7932463  54.5802571   6.1560679  67.2065783
  20.4806779  99.5162863  95.3799749  20.7624505  99.2809624  94.4959749
  19.7092316 100.0670761  95.2467980  80.9291458  67.4174690  54.1207838
  80.5171585  67.7427101  54.9212313  80.5434322  66.5515947  53.9876747
  75.0080442  85.8257389  55.5623293  75.5062580  85.3880405  56.2525702
  75.6044197  85.8481979  54.8139572  95.3420162  88.1632900  16.5886915
  95.6448746  88.9907360  16.9626451  96.1352253  87.7499771  16.2477589
  56.2907587  33.4888501  80.0910300  56.9151579  32.7887006  80.2811807
  56.3364970  34.0644307  80.8544761  24.9897432  88.7496471  66.8686819
  24.6123624  88.3345318  66.0931206  25.4119444  88.0330181  67.3424196
  66.5363836  76.2974310  15.3057015  65.9678936  75.5292463  15.3599262
  66.1424255  76.9298363  15.9066129 109.3032278   9.3568946  57.6003885
 108.4962333   9.1558600  57.1265030 109.5541967   8.5281611  58.0083609
  81.0965919  78.6308575  35.9483480  82.0379257  78.7552357  36.0694170
  81.0118294  77.7283144  35.6410027  64.7276878 100.3196430   2.9468605
  65.6252623 100.5781937   2.7377212  64.6386862 100.4990387   3.8828769
   5.3602385   2.9884387  24.5742869   5.4326128   3.5007430  23.7689710
   4.7568678   3.4891940  25.1233053  75.8091688  71.9002819  28.6352301
  75.9302807  71.1992788  27.9947925  75.5065775  71.4530087  29.4255567
  73.9314318  77.6877356  33.6314559  74.7493649  78.1699085  33.7528300
  73.5456514  77.6464128  34.5064950  90.4348946  59.4839430  37.0086050
  91.2083054  59.7251129  36.4987969  89.7732162  60.1293325  36.7598152
  58.8414478  94.8049259  41.6038561  58.4645891  95.4724789  42.1770763
  59.5144749  95.2689838  41.1059475 103.7398529  93.6944199   7.5457454
 103.4437943  94.5576286   7.2568518 102.9797554  93.3160591   7.9877037
  59.8594618  70.6335497  33.0013919  59.2491961  70.8028507  32.2836542
  59.3545008  70.8173466  33.7935162  74.8259211  67.7013063  38.4355640
  75.5379152  68.3314705  38.3251595  74.1632652  68.1743813  38.9388752
  71.7647934  76.2499142  62.3209858  71.1864567  76.1135530  63.0714273
  71.3832235  75.7157278  61.6243601  50.1760292  95.5422306  46.9411564
  50.1193810  96.1313438  47.6934671  49.3890190  95.7303619  46.4298296
  89.1616917  85.0958920  22.3722625  88.3758545  84.5494366  22.3814440
  88.8729286  85.9366608  22.7271628  80.2554607  44.9775648  24.9699926
  80.4963207  44.2064238  25.4833698  80.8905315  45.6454134  25.2286315
  48.3740187 104.5306969  45.2920389  48.2256222 103.9653111  44.5340443
  49.2855215 104.3698502  45.5360174 105.6051649   4.8445941  28.5956645
 106.1425127   5.5071212  29.0298915 104.8165191   4.7848178  29.1348314
  64.4159460  75.2860641  25.2067113  63.5950422  74.8737049  24.9378061
  65.0929880  74.8035765  24.7323108  72.8312206  75.2924633   2.0893292
  72.9739380  74.8941851   2.9479542  73.2329702  76.1586046   2.1573097
  78.4177780  81.7741966  52.7864122  78.0773592  82.6063633  52.4580097
  78.8793945  81.3928223  52.0396185  98.5471630  87.3976612   8.7347353
  97.6327801  87.2593689   8.9817339  99.0459824  87.1446514   9.5115185
  70.4540504   6.7388488  29.0986705  70.4906143   6.3537837  28.2231021
  71.3709487   6.8560935  29.3472385  85.5189050  11.9470645  42.3338318
  85.2391447  11.6614962  43.2035542  85.2386488  12.8607321  42.2800732
 109.1478920  60.8990479  43.5489845 108.9272213  61.2984848  42.7075624
 109.2881012  61.6412163  44.1369963  63.8219643  58.2707977  16.3413906
  63.5306644  57.5526857  15.7795274  64.7011232  58.4801817  16.0260093
  81.6284145   5.9879542  27.7413583  82.2663082   5.8565188  28.4428167
  80.8707012   5.4662657  28.0058289  86.4852810  87.7211952  32.0804858
  87.0156670  88.2245064  32.6982331  86.8613052  87.9214859  31.2233281
  87.9935932  68.7516594  20.2437425  88.7148571  68.2091045  20.5625653
  87.2054195  68.2531452  20.4593611 114.2763771   1.9241954  45.6714869
 114.9739660   2.4380542  45.2646065 114.7351516   1.2309027  46.1459255
  95.6669712  71.4232302   4.7549883  96.1544323  70.7923746   5.2847385
  95.3633499  70.9184599   4.0004987  69.0278244  40.5643559  12.5697148
  68.7409544  40.8797598  11.7127109  68.4709549  39.8056674  12.7444112
  63.1799603  94.3345451  11.4062548  62.5717640  95.0162601  11.6918874
  63.1665230  94.3866825  10.4505706  30.8298336   3.4745498  95.0881053
  30.1970898   2.8013129  94.8378587  31.2653338   3.7102599  94.2689540
   7.1967493  28.8267560  92.2651222   7.3413597  29.5284410  91.6303268
   6.2607800  28.8700147  92.4608704  98.8858856  18.1061507  13.9094520
  98.0503000  18.2412291  13.4624815  99.3728174  17.5163985  13.3338547
  92.3700012   6.5026904   9.4537950  92.5531019   7.2333194   8.8631278
  92.6053585   5.7231475   8.9506423  60.4280281  88.9039803   0.6264235
  61.1752081  88.5572910   1.1140323  59.7132492  88.9199352   1.2628728
   6.9661783  11.0109664  18.4356976   7.7890467  11.4542342  18.2292306
   6.3355898  11.3749266  17.8143072  73.1941605  64.7659683  22.3559809
  73.9626598  65.3360510  22.3306036  72.7050829  65.0573730  23.1254745
  86.9803333  73.1824207  26.1801243  87.0760822  74.0390539  26.5963459
  86.3147640  72.7351999  26.7028594  96.0752010  68.1661415  50.8672380
  95.2978420  68.0634356  50.3182316  96.7668629  67.7062225  50.3915262
  17.6178442  36.6938062  89.3327635  18.3726250  36.1126847  89.2387354
  17.7475010  37.1196122  90.1801777   2.2336124   3.9600421  17.5951719
   1.6891884   3.3141375  18.0453372   1.9280457   4.8041201  17.9274273
 106.5131820   4.4948531  54.1596556 106.7884124   4.5935775  53.2482052
 106.6269506   3.5625983  54.3445635  32.3609281  90.7684135  20.3734827
  31.5159440  91.2181091  20.3757834  32.8682756  91.2153816  19.6959507
  37.7491951  59.3713331  34.0301585  37.4892187  58.5838032  33.5522056
  38.2221937  59.0423918  34.7945547  95.5787182  85.2965164  56.5805387
  95.2179909  84.4892120  56.9471169  96.5257359  85.2049637  56.6854334
  51.2253618  50.3556347  24.6755385  50.7740211  51.0494804  25.1562643
  51.6891670  50.8129025  23.9740944  56.2158585  82.3569489  51.5814495
  55.5793571  82.3633099  52.2963333  56.7643690  83.1247425  51.7422915
  91.2064457  75.2418566  16.5135765  91.0177231  76.1657524  16.3491607
  91.9799137  75.0569057  15.9808648  80.2261353 105.7125378  42.6062679
  79.9028063 105.9833050  43.4655571  81.1639309 105.5719090  42.7366447
  14.4056546  40.7682176  79.5712358  15.1453673  40.2738328  79.2181915
  14.6880518  41.0283418  80.4480582  54.2624331  70.6526852  13.9052713
  53.5338783  71.1936855  13.6007106  55.0361919  71.2031937  13.7849522
  71.1190748  80.0972748  43.5283184  71.8242025  79.4981718  43.7734842
  70.4675293  79.5392990  43.1036043  93.1838226  68.1956530   1.7900987
  93.1685829  68.4426355   0.8654375  93.7755585  68.8283396   2.1972784
  62.4421597  98.1296158  16.0485125  62.5238800  97.2982883  15.5811274
  63.0222464  98.7274837  15.5770397  57.2125769  84.7082329  35.7614923
  57.5145292  84.9989033  34.9009275  57.1388483  85.5133247  36.2739587
  79.3061781  75.5305910   6.0542691  78.3747482  75.3642750   6.1992264
  79.3283081  76.3394403   5.5428952  31.0305761   2.5388003  51.4210701
  31.1369585   1.6601229  51.0565996  30.1107382   2.7529574  51.2653017
  61.7517996  73.7113762  20.7627726  61.7255020  74.2265749  19.9564767
  61.8132448  72.8037071  20.4651380  59.7943115  81.1772537  10.8088195
  60.7429457  81.3041878  10.8233857  59.6795177  80.2556038  10.5772626
  78.4894896 106.2522697  40.6077766  77.7915144 105.5988693  40.6539822
  79.0330601 106.0767937  41.3758755   2.6395283  40.0695658  18.8659418
   3.4378586  39.5835829  19.0726388   2.9388581  40.8065939  18.3335638
  79.1705656  89.5838165  58.2491684  78.7541866  88.7416267  58.0659294
  78.7168837  89.9113655  59.0257740  73.6192846  87.9052830  13.0387533
  72.9820585  87.2056103  12.8950989  73.4523678  88.5298920  12.3328972
  55.4554749 104.0850353  15.6175637  54.5727634 104.0272331  15.2518988
  56.0232592 104.2005634  14.8556519  68.7708998  73.2810974  26.6194272
  69.5032358  72.9396343  26.1062741  68.1379414  72.5633574  26.6404796
  45.9753180  71.6685343  31.0911012  46.3656473  72.5383091  31.1769152
  45.4913807  71.5416145  31.9071436  71.7635584  98.3293247  23.3285642
  71.4171791  98.1102848  24.1935921  71.8502092  99.2825317  23.3395958
 114.3425668  27.6981402  22.8386617 113.5290111  28.1981135  22.9049158
 114.4379915  27.2813845  23.6950707  35.6217909 103.7279320  44.9497271
  34.9352241 103.5371304  45.5888319  35.9885168 102.8716755  44.7293425
 108.7144149  32.8617049  57.4097919 108.2546676  32.6548053  56.5961218
 108.8987936  33.7990046  57.3490334  88.2283974  95.7773590  31.7528272
  88.1506729  94.8397827  31.5763760  88.5952568  95.8253288  32.6356316
  60.2833843  91.7207050  53.9089918  60.1069021  91.9932365  53.0085421
  60.5197191  90.7959080  53.8373804 111.1813892  11.7640639  48.4763527
 111.8638910  12.3969794  48.2531023 110.5200781  11.8739558  47.7931070
  69.8710918  92.3260117  43.1574249  69.9472570  93.1271839  42.6391935
  70.7221699  91.8981552  43.0634403  37.4431419  96.9436455  25.3977871
  36.8125176  97.5210953  24.9675679  37.3930740  96.1246777  24.9048185
  57.1307707  92.3968887  26.7900968  56.3497829  92.9502296  26.7998600
  56.8620443  91.5953636  27.2390795  76.0424460   2.4979926  29.0548468
  76.2083329   1.9395686  28.2953238  75.7220067   3.3195925  28.6826491
  60.5395412  83.7172318  13.1479752  59.9658012  84.4599819  12.9598880
  61.4177561  84.0331173  12.9353857  66.9599104 100.0360394  30.7410884
  66.8301487 100.9292507  31.0597777  67.9010630  99.9743462  30.5778289
  79.1478838  30.7095767  32.7668786  78.3448614  30.8070040  33.2786322
  79.4650139  31.6046000  32.6461124 101.3509369  95.4816246  22.8543115
 102.1542835  95.4168224  22.3379064 100.6587601  95.6088734  22.2055221
 103.8629150 100.3805351  59.2186117 104.1662502 101.2789631  59.3492079
 104.3548298  99.8662281  59.8587132 115.8804499  64.3549676  81.7548936
 115.4261957  64.2280717  82.5878280 116.8068205  64.3997331  81.9916802
   5.1441180  61.3259645  90.6359017   4.8397147  62.2207589  90.4845527
   4.3578373  60.7872911  90.5474332  36.4786506  91.3636684  53.1472778
  36.5497541  92.1179676  53.7322569  36.7082739  90.6131458  53.6952066
  98.7234367   0.8656264  40.6803322  98.5797752   0.5304003  41.5653276
  97.9060949   0.6796599  40.2181625  92.6797295  66.8774700  84.7470093
  92.2275543  66.7116070  83.9198017  91.9760418  67.0028305  85.3836727
  55.9250736 108.5376835  28.3187342  55.4162455 108.2149220  29.0624714
  55.4361963 108.2457447  27.5493169  24.2094301  27.0304728  10.8129799
  23.7232660  26.9542647  11.6339982  24.1071676  27.9474879  10.5583036
  12.1000361   6.5211917  34.7049904  11.4740728   6.0446406  35.2502465
  12.8146242   6.7455912  35.3010082  87.7450848  69.2935038   4.2138851
  88.5906410  68.8671494   4.0743008  87.1482563  68.5769415   4.4296876
  11.9695639   2.0198680   5.2057141  11.4757322   2.2549201   5.9912789
  12.1944689   2.8591395   4.8041311  69.3132019  98.6583233  33.5277081
  69.1031790  98.2252789  34.3551111  69.3993425  99.5837021  33.7568116
  77.2311592 101.2569332  18.8036430  78.1111097 101.1651039  19.1690016
  76.7556858 100.4926300  19.1292179  78.9521313  96.8146992  39.7579312
  78.8541079  96.5258884  38.8506222  78.5857487  97.6989365  39.7687244
 100.9598160  86.9933605  10.2645302 101.5230656  86.2206364  10.2213299
 100.7235718  87.0661545  11.1892593  59.7485625  30.6554074  92.5036010
  60.3029429  31.2310643  91.9768029  60.3330885  29.9514527  92.7846840
  17.9723047  14.2374469  14.1274762  18.2217001  13.8970328  13.2683218
  17.5628637  15.0822688  13.9407265  68.5323858  79.5323133   4.1376141
  68.7947559  80.4227352   3.9040604  68.2205868  79.1513920   3.3166948
  75.5410767  92.6844311  32.6035476  74.7799778  93.0250835  33.0735612
  75.8827686  93.4382820  32.1227145   9.9061655   6.2494040  31.6230869
  10.8231138   6.1812640  31.3570380   9.7111582   7.1851874  31.5730309
  98.8965238  12.9731513  61.8037319  99.3434871  13.7612010  61.4947987
  99.5546163  12.5133086  62.3249769  74.5341587  95.7609081  42.9372883
  74.2302465  96.0710049  43.7903452  75.4885626  95.8113670  42.9902124
 104.0804399   4.8442412  51.7141867 104.7436966   5.1902152  51.1170006
 103.2539142   5.1968241  51.3843870  48.7944841 101.2043953  32.4909329
  48.5854435 100.6604767  31.7315340  47.9766941 101.6593647  32.6920724
   2.7790318  92.2385502  36.3887930   2.9977570  92.9945850  35.8439994
   3.3574925  92.3147583  37.1476173  59.7816181  92.9722595  26.0624528
  59.5804310  93.8528442  25.7457232  59.0202522  92.7270603  26.5882182
 104.9087251  27.8892470  27.8181553 105.8472265  27.9178191  27.6320457
 104.4973291  27.7877665  26.9598532  79.9373068   3.2459594  13.2261372
  79.4444479   3.5355521  13.9938951  80.7404627   3.7662841  13.2468450
   2.8331337  77.8327131  57.5911140   2.2105656  78.0589294  58.2821083
   3.4680710  77.2585297  58.0193615  45.9980536 105.2609158  92.7854443
  46.5508938 105.9728622  93.1075096  45.4683828 105.6619263  92.0963383
  32.2461772  81.5283108  75.8364868  32.6684666  82.2159004  75.3215837
  31.3434744  81.8285656  75.9423590  85.4611588  88.5479164  12.1968257
  85.2000237  88.7220669  11.2925506  85.8950710  87.6954746  12.1608865
   3.9045118   2.9299403  41.6485214   4.0841555   2.4325038  42.4463415
   4.7682165   3.0993891  41.2723303  76.8037128  81.8140793  70.7216072
  76.0510635  81.9530201  70.1467657  77.1449566  80.9569454  70.4664612
  43.2610976  63.4292455  88.5977906  42.4748122  63.2886643  89.1252631
  43.2147299  64.3497319  88.3393621  12.2781729  16.1677027  49.7120190
  11.4393877  16.6223765  49.7891331  12.8436159  16.7852736  49.2482042
  74.2724276 102.1589947  14.4496119  74.7567463 101.5044689  14.9528575
  73.9737749 102.7910328  15.1035011  73.4959555 107.6071930  14.2327452
  73.9572144 107.2851849  15.0072026  73.4575224 106.8521404  13.6456692
  24.3625807  26.6428233  34.4002485  24.8579954  25.8940459  34.7321177
  24.4462179  26.5825606  33.4486151  81.3604641  92.6872253  41.5381193
  82.1281719  92.7677059  40.9720945  80.7496643  93.3463669  41.2084436
  59.4793367  92.3638344  17.6116753  60.4152441  92.1672153  17.5709999
  59.1891003  91.9773865  18.4379029  60.1598740  95.4731464  22.4205422
  60.6548643  96.2879086  22.5065041  59.3501139  95.6325626  22.9054213
  84.6303654  50.6537104  65.4761887  85.2102184  50.3943443  66.1922455
  85.1464462  50.5043173  64.6839952  61.2352133  97.5764847  23.8128114
  61.1671734  97.6946163  24.7602534  61.3666964  98.4604836  23.4700465
  68.1938791  73.5664892  16.3725340  68.3053207  72.7722883  16.8950844
  67.2574711  73.7579775  16.4245403  19.8349260  12.6582003  28.9209771
  19.2876410  11.9377566  29.2335176  19.4761824  13.4350444  29.3499780
  89.9023533 106.0481071  32.3750472  90.7341290 105.9140491  32.8293824
  89.8829937 106.9855404  32.1824789  46.8744421  88.2124615  26.3335538
  45.9745073  88.2462978  26.6578984  47.1078777  87.2849178  26.3711715
  97.8094673  79.5481110  47.7994156  98.5850620  79.0911865  47.4739933
  97.6875782  80.2765846  47.1905613   0.2785550  65.3126860   6.4882499
  -0.1560630  64.4648123   6.3963056   0.6034527  65.3189039   7.3886013
 108.7822832  13.9973403  20.7348585 109.4115223  13.7765265  21.4215374
 108.2502521  13.2079554  20.6346750  82.6377392 103.5852528  27.1460247
  82.9488087 104.3058777  26.5981483  82.9656696 102.7967739  26.7135882
  69.9976015  85.9713554  66.1571980  70.7473421  86.5446949  65.9978104
  69.2595053  86.4228821  65.7478380  99.3040909   1.5246154  16.2958121
  98.3689178   1.4951373  16.4978337  99.3451275   1.4607764  15.3416252
  99.9243736  79.0209770  16.6994345  99.3636417  78.7674856  15.9662557
  99.3288136  79.0827751  17.4462438  80.5519485  63.7932444   8.8914293
  79.8229074  64.3763542   8.6799872  80.1675224  63.1253004   9.4591427
  60.8843184 107.4912453  14.8325431  60.0110674 107.2840023  15.1652825
  61.0486364 106.8283463  14.1618776 103.6386408   0.9879447  22.9446173
 103.9594186   1.3629389  22.1244264 103.5171951   1.7421103  23.5214424
  85.1203537  60.8016872  34.3459678  84.8861122  61.1064386  33.4693313
  85.6579781  60.0245142  34.1936636  55.3961992 100.9139919  77.3353958
  56.1271572 101.0262871  77.9431152  55.6987762 101.3142681  76.5202522
  23.8261866   4.4632483  30.3392553  23.7025045   3.7456942  30.9605765
  24.3267511   4.0750838  29.6216202  89.4298172  94.4165611  28.3128452
  88.8793278  94.5447254  29.0853548  88.9933300  94.9153900  27.6222801
  95.6548942  22.5860453  30.1075745  96.0281290  22.4172450  29.2424536
  94.7142137  22.6681662  29.9507213  99.7282995   8.0385638   6.4326215
  98.8185800   7.7722121   6.5656906  99.9951709   8.4082938   7.2742325
  58.5336161 104.0859127  75.7408428  58.9030457 103.4583569  76.3620663
  57.5906181 104.0560246  75.9023809 114.0541662  19.0427638  48.1511641
 114.3154396  19.9634696  48.1345844 113.1090702  19.0592433  48.0003309
 106.7946972  33.6426402  29.0732765 106.7686619  34.1278125  29.8979974
 105.9020675  33.7011767  28.7326694 107.4547733   3.7673712  32.2332072
 107.2692836   4.3831778  31.5242577 106.9739879   2.9749728  31.9940853
  49.8582125 101.3709450  15.1546812  50.3574085 101.2789345  15.9662044
  48.9711666 101.5869236  15.4423153  78.4481764  93.5360241  13.0232501
  78.6436415  93.4116364  13.9519882  79.1969109  94.0268517  12.6845527
  95.4714693  35.6748248  48.0240583  95.0438894  35.6282283  48.8791847
  94.7911514  35.4176284  47.4017668  53.4242535 107.6398945  62.4004078
  54.2175150 107.2056770  62.7141333  52.9076385 107.7953625  63.1910849
  72.6570225 106.3397980   1.7676507  73.3237362 106.3752842   1.0817443
  72.7536726 107.1674728   2.2386575  90.8930792   0.9433699  35.2614427
  91.5877021   0.5506373  34.7327685  90.0827469   0.5974532  34.8873711
 101.7727531   0.7350398  10.8223855 100.8688892   0.6074763  10.5343020
 101.9595207  -0.0275659  11.3699079  85.1086807  91.1345291   7.4343741
  86.0446930  91.0688019   7.2452074  85.0649548  91.6064358   8.2660151
  92.8974915 105.8249664  27.4723458  93.1317329 105.7436085  28.3968687
  92.2701359 106.5474701  27.4469042  98.4962047  27.3752738  28.5959387
  97.9871906  26.6052771  28.3424687  99.4081415  27.1077586  28.4817553
  97.5560249  10.1783229  26.9999051  98.2616247   9.5334578  26.9498277
  97.8858913  10.8482695  27.5987220  85.5332756  92.3290634  26.6463089
  84.9459362  93.0790615  26.7399311  84.9489498  91.5733051  26.5860844
  30.7141148  76.9719167  57.7311951  30.6975542  77.9016919  57.9581100
  31.5940462  76.8257661  57.3839360 112.9761947   5.3443766   7.9705578
 113.0319561   4.9016524   8.8173848 112.9394592   6.2755824   8.1890839
   0.9354364  68.0730577  93.3512056   0.9810721  67.4053426  92.6668770
   0.3197728  67.7174802  93.9921089 112.9013122  19.6231223  37.3486495
 112.9186214  18.6660910  37.3435044 112.0572723  19.8452998  37.7416730
  85.1255703  87.7600956  48.0565310  85.3273678  88.4377956  48.7016916
  85.8409119  87.1295547  48.1397676 100.8638824   2.8182746  72.8115892
 101.0882820   2.8139163  71.8810701 100.1186098   3.4155322  72.8754473
  98.5497189 103.4390259  42.7761412  98.1938171 102.6827812  42.3096132
  99.2409420 103.7704945  42.2029257 116.1551155   8.5370303  30.1883245
 116.0517133   7.6824713  29.7696733 116.8329920   8.9753104  29.6738982
 108.7976646  83.5497570  23.1540942 109.5658970  83.0078602  22.9740906
 108.2620430  83.0179596  23.7427592  91.3287163 105.1281738  49.3162966
  90.5143166 104.6697617  49.5232630  91.6790009 105.3903580  50.1676464
  79.4726623   0.2653647  31.2154675  80.1566089   0.8654166  30.9181690
  79.4864143   0.3403617  32.1696258  67.0874262  88.9148235  51.4159298
  67.6437473  89.6789265  51.5672159  67.1734571  88.7376118  50.4792213
 109.3361092  89.4247437  49.5420694 109.3959427  88.5613441  49.1331673
 109.9944496  89.4069290  50.2366924  95.3651441  13.7070037  26.5597653
  95.7619871  13.0390406  26.0006785  95.9232391  13.7311984  27.3370552
  70.5740547  96.8881989  40.3408813  71.4646292  97.1239567  40.6007433
  70.2012825  97.7008152  39.9989390   1.1688971  16.7169619  43.3083963
   1.7557692  16.3852645  42.6288414   0.5324864  16.0140372  43.4392452
   8.8069700  14.3902827   8.9355886   8.0096602  14.4963504   9.4545013
   9.5185446  14.4697905   9.5708644   2.2955202   6.1319400  23.7506175
   2.2256970   6.0130835  22.8033948   1.5153669   5.7043505  24.1038179
  84.8073292  78.1205750  30.9988999  85.0865650  77.8251696  31.8654990
  84.7374439  79.0716743  31.0810733 111.4668083  81.8995380  26.1336303
 110.6013107  81.6417503  26.4509487 111.5781689  82.7978992  26.4447093
  10.9603916  39.0799851  89.9695188  10.5354821  38.3215184  89.5690006
  11.4348875  39.4963784  89.2500043  51.4688193  65.8078809  91.6961494
  51.5627753  65.5657239  90.7748654  50.6490694  65.3962083  91.9695973
  72.2615957  63.1809235  17.8389883  72.3716307  64.1017008  18.0762494
  71.3265038  63.0134344  17.9563749  92.4833202  55.9965086  47.6757479
  91.7397213  55.7683945  48.2336521  92.1886253  55.7918119  46.7883444
  45.9181379  35.1875830  63.8453293  45.9702372  35.1447249  64.8001480
  45.7395815  34.2870188  63.5745382  72.6007318  93.0206871  34.7011971
  72.0066643  92.8511524  33.9700460  72.5420713  92.2348881  35.2446222
 101.5815033  24.4743109  85.9640217 101.6300644  24.6745444  86.8987846
 100.8917631  23.8141108  85.8960152 113.3086218   4.0207434  30.1907301
 113.2288898   3.3174849  29.5462918 114.2319692   4.0110255  30.4428482
 100.1584352  13.3283187  32.4339461  99.7457136  13.4895755  31.5854859
  99.5194687  13.6410094  33.0744004  46.5826559  95.1073074   9.7988957
  45.6425810  95.2855110   9.7717607  46.9697428  95.9144211  10.1379681
 116.3705267  10.2580405  34.6131492 116.6331972  11.1095095  34.2635393
 115.4591716  10.1571227  34.3384099  47.6719713  92.2566700   2.4803817
  47.5738668  91.6808701   3.2387036  47.6266766  93.1410694   2.8437337
 111.1834396   3.8989211  56.2643480 110.8345617   3.8785887  55.3732252
 110.4350675   3.6801482  56.8196011  73.9263916  96.2620831  24.5130324
  74.2527533  96.6360092  25.3315067  73.8229275  97.0144844  23.9304399
  30.1299464  16.3416762  74.7610336  29.7017037  15.5079789  74.9554211
  30.5789744  16.1920257  73.9290410  15.0693869   2.2866965  68.1347895
  15.1898645   1.7668009  68.9294100  14.3780016   1.8320513  67.6536322
   5.8556723   0.9087611  46.0127497   6.3600802   1.1606551  45.2392101
   6.5161108   0.6506301  46.6557264  13.7133478   4.9818660  46.4560318
  14.4309401   4.6381427  46.9881487  12.9224276   4.6299411  46.8644762
   0.9659348  71.1296177  63.0842495   0.0196896  71.2657118  63.0358887
   1.3387356  71.8633795  62.5955296  16.5628599   1.3899184  31.6491628
  15.9414648   0.7521010  32.0002913  17.4045157   0.9341098  31.6577435
   4.2380690  35.9299231  60.7352543   4.9202894  36.4940406  61.0993624
   4.6252607  35.0545359  60.7363939   1.3453220   5.2872515  68.1149197
   0.9406542   4.4806529  67.7957296   2.0615791   4.9900771  68.6760759
 107.2196497   1.2641001  51.6421032 107.5848736   1.8389655  52.3146868
 106.4650072   1.7439891  51.3008499  94.7011961  23.6273051  34.0286350
  94.4645609  23.8046218  34.9390173  94.0164055  24.0560103  33.5153103
 103.3171940  78.2167006  10.0991797 103.8735962  77.5620317   9.6772033
 102.5599289  77.7217340  10.4119015  83.7344837  61.9205761  29.2992926
  84.2006683  62.6404905  29.7242880  83.5829830  61.2864780  30.0001478
  41.6956888  18.6369700  90.7447457  42.1426569  19.2236943  90.1346621
  40.7823311  18.6443229  90.4584479  69.8645496  77.3751545  27.6682234
  70.1096821  76.5825415  28.1456232  69.3769598  77.0561838  26.9087839
  81.0482979  79.9495935  39.5729685  81.3838482  80.3635311  38.7777972
  80.8712959  80.6793976  40.1665020 107.9176712  37.4691892  15.5875063
 108.1278133  37.3859143  16.5176332 108.7674999  37.5650692  15.1576018
  29.7762715  46.9128652  93.1261994  30.4190193  46.2407632  93.3528760
  29.0657126  46.4315076  92.7023706  63.5412312  85.2120304  34.0874052
  63.3408546  85.7557869  34.8492479  63.3751631  84.3165398  34.3819499
 112.3295416   7.2309924  40.0788784 112.7742161   7.7489711  39.4079089
 111.3976635   7.3553420  39.8989654  95.2649975  84.7491837  27.9002595
  95.4679966  83.9332581  28.3577466  94.3196011  84.8546410  28.0067253
 106.7378616 107.0206165  24.6016717 107.6542187 107.2573376  24.4585657
 106.7706394 106.3171387  25.2499580  73.2069016  99.5149326  38.2938623
  73.6927652  99.1213703  37.5691032  73.6029100  99.1387653  39.0799332
  48.6881911  27.1101804  93.6594210  47.8086745  26.7557855  93.5286751
  49.1107642  26.4893956  94.2529658  32.2948622  21.8942309  73.4279537
  32.3381399  21.3302661  72.6557493  32.5916456  21.3376761  74.1479492
  66.7801189 102.7740097  26.9463968  66.4221430 103.5141468  27.4365878
  66.4578152 102.8994942  26.0538673 110.5062832  17.7950335  35.8842683
 110.9836258  17.0139838  36.1641455 110.2105535  18.1999922  36.6996121
  61.2868500  93.0287075  38.3488607  60.5415630  93.3768177  38.8383555
  60.9325504  92.8304863  37.4820209  89.7350944   3.2691336  51.4264107
  89.1839470   2.8340769  52.0769453  89.7434295   4.1877318  51.6953707
  31.1221479  15.8452273  28.1374741  30.7615160  14.9614096  28.2084990
  31.6806006  15.9387732  28.9092302  71.9265604  92.8664684  39.9574924
  71.4692163  93.2735920  40.6932354  71.2834787  92.8621960  39.2485070
  90.0512886 108.7791157  38.8912296  90.9585381 109.0527534  38.7561226
  89.5760250 109.1499043  38.1476760  44.7670507  78.4476757   2.4129435
  43.9417410  78.8840437   2.2015610  45.1451111  78.9773607   3.1148964
  94.5826877  14.2796279  36.5737295  94.8031152  14.5551825  37.4635124
  93.8498224  14.8421908  36.3234019  97.2494234   0.3481055  12.2804356
  97.0015396   0.0934268  13.1692135  96.7754949  -0.2621412  11.7154396
  74.3714476  87.7805996  40.7573271  74.7950697  88.6219215  40.9275198
  74.2660284  87.3860550  41.6230345  64.1773033  96.7195225  66.8396807
  64.3112421  95.8616066  66.4368486  64.3897629  97.3451328  66.1470747
  38.3041548  18.3680869  57.3151684  39.2365145  18.5683585  57.3978233
  38.0811476  17.9239226  58.1332254 101.0061325   7.7649642  40.7461691
 101.1133588   8.3544017  39.9996424 101.8148006   7.2531844  40.7653332
  94.0830612  87.1513462  57.9202414  93.4675503  87.5736141  57.3210144
  94.4707489  86.4433956  57.4057293   5.9040426   6.1053515  12.2193635
   6.4677500   6.0895968  12.9928112   6.4699244   5.8136225  11.5045834
  58.1184292  75.8865595  36.1941028  58.1040239  75.6023073  35.2801967
  58.8954115  76.4417028  36.2600470  53.4959031  24.6123648  10.8164871
  53.6826540  23.6776877  10.7284927  54.3566848  25.0211001  10.9071422
  68.4166002  87.8334808  22.2792268  69.0040731  87.1476269  21.9618821
  67.6279020  87.7393436  21.7450666  94.9474157  10.5612994  34.2550540
  94.9280800   9.7543860  34.7695971  95.8735622  10.6945182  34.0532160
  90.4282093 101.0444355   0.6833906  89.6296597 100.5615234   0.8963305
  90.4316425 101.7823410   1.2930697 113.6680044   9.4444323   0.9255343
 112.9113353   9.4449759   1.5117800 113.3422960   9.8331500   0.1137188
 114.0270424  84.8562622  12.9132414 114.4706726  85.3562832  13.5983777
 113.7367249  84.0559101  13.3507085 105.2981663  80.1325893  20.1454163
 104.8896408  79.4745922  19.5829439 105.5747509  79.6456861  20.9217238
 107.1195698 107.9787159  29.3549991 106.3713074 108.4311581  28.9655972
 107.8049088 108.0321217  28.6888957  77.9445028  84.5116043  33.9995003
  78.1755400  83.9453793  33.2631230  77.0123053  84.3488216  34.1435242
 110.2055849  24.7722102  42.7920532 110.8242382  25.0925208  43.4484863
 109.7898878  24.0148402  43.2041311 101.5872253   1.5640307   6.9322550
 101.3429226   2.4872924   6.9964814 100.7668031   1.0893393   7.0657021
  94.7893680   8.1192542  49.9299383  94.3314565   8.7834788  50.4450607
  94.9877466   8.5540534  49.1005802  60.4313898  99.3920040   6.1161751
  59.7746229  98.9926529   5.5457300  60.0512648  99.3386936   6.9930416
  97.6712894  74.0394497  42.2825718  97.6759148  73.1099367  42.0540571
  97.4197292  74.0578413  43.2059431  58.3797026  80.0298214  27.0553088
  58.8114643  80.1555157  27.9003024  59.0509796  80.2475357  26.4086103
 102.6647772   5.5334426  17.7232051 102.8088583   4.5982600  17.8677726
 103.3705200   5.7959700  17.1322358  61.2461519  63.0747271   6.3172626
  61.9383907  63.1785536   6.9701475  61.5753222  63.5332441   5.5441892
  12.7109884  50.9123183  17.9237413  12.3673128  51.0586501  18.8050520
  11.9391226  50.7047797  17.3970747  28.8357519  11.1263896  21.8304372
  27.9888414  10.7884360  22.1215749  28.6218046  11.9241763  21.3466954
  90.3035545 104.0882969  26.8481874  91.1521626 103.8469791  26.4768982
  90.5174160 104.6779919  27.5712061  84.2982006  72.1846342   5.4660553
  85.2337360  72.2784710   5.2866155  83.9002132  72.0614386   4.6042803
  87.5998497 102.9181862  44.2898655  86.8105412 103.0500603  44.8150587
  87.3762989 102.2001648  43.6976576  97.1950020   4.8364020  35.9840631
  97.6125969   3.9803267  36.0788822  97.4935211   5.3341342  36.7452335
  80.4133606  90.4379082  32.3819709  80.0952625  91.0624790  33.0338526
  80.9397507  89.8153877  32.8835797 109.7585869  80.1918697  42.5389481
 108.8363838  80.2275658  42.2849703 110.2316570  80.5046177  41.7678308
   5.9781527  26.9195605  18.0077350   5.6097387  27.3726607  18.7661576
   5.6684374  27.4225283  17.2545183  87.9127026  54.8691845   2.5714043
  88.1822681  53.9584112   2.4528325  87.9695988  55.0148010   3.5157508
 110.9679998  16.0905123  16.2170017 110.3897680  16.8503047  16.1492121
 110.5042185  15.4876567  16.7981243  51.9133269  11.6961427  95.0987519
  52.3045241  12.4128957  94.5992807  51.0442816  11.5824504  94.7139606
  98.9296341  69.1665173  63.5849476  99.6308994  69.6195984  64.0531015
  99.3821812  68.5208845  63.0421877  80.2937412  98.0964756  19.9333334
  80.7880306  98.3834648  20.7011533  80.9188271  97.5788498  19.4258249
 107.9581642  93.4855270  32.3850822 108.3408451  93.4492970  33.2617092
 107.2924328  92.7977562  32.3857546  86.7312908  88.1363106  16.3098872
  87.2173977  88.6430264  16.9604015  86.0901928  88.7528801  15.9562528
  91.8611813 107.9953194  73.9969063  91.5629196 107.7793121  74.8804331
  92.1527004 107.1599674  73.6316061  90.0601673 104.3588924  20.4342175
  90.5457592 103.6570454  20.0008059  90.7330704 104.9824810  20.7072973
 108.1582226  13.8335181  49.9887657 108.0706514  13.0873061  50.5818367
 107.7750314  13.5312796  49.1653347  93.7291969   0.1952601   4.3409649
  93.7272896  -0.3386640   5.1354218  94.0618385   1.0465670   4.6253112
  88.5247148  44.3622924  25.9154940  88.9443506  43.5454131  25.6455827
  88.7883438  44.9981452  25.2503490  84.2660427  79.6036148  34.8784971
  84.4984627  79.1385651  35.6822014  84.5488071  79.0204906  34.1740537
  69.1167164  80.3361797  15.0575209  69.4019127  79.9438858  14.2322922
  69.4512033  81.2324429  15.0248718   7.7879213  21.0167266  14.7780263
   7.3699164  20.8213568  15.6166804   7.5189470  21.9136668  14.5795572
  13.6433767  37.2094680  25.4760432  14.2863630  36.7953253  24.9004602
  13.2147955  37.8640414  24.9246049  95.5314840   3.7797023  62.2645044
  94.9481119   3.6048556  63.0029774  95.4414238   3.0112315  61.7009640
  37.9546522  30.0260497  54.9167299  37.5542139  29.2570925  54.5110369
  37.8673719  29.8732424  55.8576155  37.0234465  34.5172072  24.1783738
  36.2386965  34.9155570  24.5548129  36.6901850  33.8270045  23.6049747
   5.6303763   5.3458548   5.8372456   5.7512735   5.3122760   6.7861861
   5.7119917   4.4354773   5.5530322 113.9975799   6.6732550  32.5484776
 114.2272628   6.8457652  33.4615588 113.7059892   7.5200988  32.2107506
 110.3262247  37.5836707  14.4921923 110.7138408  36.7382384  14.2658401
 111.0764517  38.1531573  14.6627009   2.0785259   2.8780413  84.4301987
   2.2150158   3.5728217  85.0743198   2.3579477   3.2631732  83.5996437
  36.1624025  32.5799037  39.0291142  35.5011438  31.9957114  39.4001794
  35.6655096  33.1851531  38.4786630  64.4493376  73.1062360  82.8791791
  63.9184653  73.2313867  83.6657804  63.8626372  72.6703401  82.2611111
 103.9958000 106.5688133  29.4271207 103.7998772 106.8148327  30.3311801
 104.7302818 105.9591770  29.4985986  84.1410065 107.4304676  24.7999167
  84.1587067 107.7571774  23.9003706  83.2108879 107.3930359  25.0228739
  24.8994803  11.1241770  68.7846565  24.9328875  11.7451525  68.0569839
  24.6896051  10.2853060  68.3742046 110.9585476 108.6120892  30.2911854
 110.2037811 108.2997608  29.7921753 111.6191673 107.9285049  30.1792860
 103.7275232  11.3697386  29.0492034 102.9194082  11.1510325  29.5132613
 104.2203678  11.9091082  29.6676064  23.0666899  40.7931472  21.1618710
  22.7125715  39.9319602  20.9400630  22.4966501  41.4114905  20.7047701
  88.6114597 105.3304482   2.7833769  87.8376293 105.4824448   2.2408618
  88.2600975 105.1288033   3.6506271   8.6886667   6.1795760  26.2146401
   7.7926706   5.8436537  26.2389278   8.6837935   6.8238688  25.5067611
  81.7976345   0.7792330  18.9847481  82.5296749   0.7312251  19.5996046
  81.8518413   1.6609717  18.6161876  73.7457418 104.1969204  47.3091698
  72.8780556 104.2179108  47.7127934  73.8337994 105.0509930  46.8860435
 106.6415119  43.9975262  19.2273271 105.7132721  43.8447285  19.0505528
 107.0047474  44.2672205  18.3837867  77.2685719 102.0181751  -0.1595397
  77.3989439 102.4904728   0.6627570  77.2929955 101.0940170   0.0885846
  80.5298771  20.4106189  38.1980276  80.9872450  20.5210257  37.3644447
  80.4761661  21.2948275  38.5606956   7.6593279  32.2520591  25.7342768
   6.8632864  32.0948268  26.2420392   8.0049299  33.0752421  26.0794759
  71.8131399  84.7867107  37.7083087  72.6824617  85.1185513  37.9327893
  71.2166023  85.2744198  38.2762146  10.1699041   8.4041739  70.9336376
  10.7685064   7.7071524  70.6651688  10.6642698   9.2117167  70.7932758
 107.1412624  18.0118418  23.4264541 107.3362936  17.6098586  22.5799274
 107.5593914  17.4363185  24.0669012 113.7103571  11.0508109  32.5783324
 113.4038128  10.7409239  33.4305286 113.1649841  10.5856276  31.9439793
 114.7199596   8.5845328  42.1513557 114.5838560   8.2051230  43.0195475
 114.0291752   8.2006884  41.6112518  81.4827728  88.8250828  26.1625743
  81.0736465  88.0139732  26.4641523  81.8213463  88.6134911  25.2926135
  87.8141594 105.0799274  42.2981977  88.3312988 105.3379917  41.5351820
  87.3937988 105.8897114  42.5876379 104.4532980  30.7232333  11.7689204
 105.0781215  30.9746123  12.4490917 104.8726047  30.9860087  10.9495521
  99.0750885  95.5154705  24.2553520  99.1302586  95.8736706  25.1412868
  99.9787998  95.5165768  23.9398479  90.9945072  13.0615092   1.7488733
  91.8757976  12.9010726   2.0862433  90.4267324  12.9839183   2.5155845
  91.4954866   9.2408610  40.9883595  90.8805097   8.5535193  41.2444592
  91.4290441   9.8935557  41.6853619  18.3098196  39.0288306  62.9785156
  17.4433016  38.9246321  63.3716249  18.9166330  38.7186766  63.6506891
  42.2222519 104.1740227   8.0563974  43.0087900 104.3592930   8.5694903
  41.7781782 105.0189781   7.9852068  27.2264360  26.9700766  59.7605085
  28.1250452  26.6445590  59.8130989  27.1363424  27.2800780  58.8593912
  51.6150093 107.2990704  30.3923512  50.7522821 107.0262718  30.0800729
  52.1644545 107.2990799  29.6085525  81.6649723  86.5384483   0.4840771
  81.6216755  87.0041656   1.3192213  82.2257614  87.0851612  -0.0662410
 106.0706199   3.6530543  63.2682133 105.6765951   2.9023028  62.8239775
 106.5561546   3.2709838  63.9993191  84.5146097  28.5911513  52.6891708
  83.7600149  28.0543185  52.9312992  85.0395168  28.0251075  52.1232176
  93.6501182  27.9737998   7.6281965  94.0718473  28.1940127   6.7976040
  94.3049301  27.4594641   8.1003344  83.7604904  79.1947603  88.5780048
  84.4272995  78.8336515  87.9938793  83.1095886  78.4975624  88.6584663
  20.0076078   3.4028674   6.6489607  19.3327784   3.9049388   7.1058637
  20.0828432   2.5910140   7.1504211  87.6549911  85.7075214  47.7435780
  87.3548222  84.8941135  48.1491470  87.5512123  85.5590343  46.8036795
   7.8774904  11.0203028  29.2482233   7.5801252  11.8906165  29.5134687
   8.4662890  11.1826754  28.5112166  94.1175747  91.3956261  22.8406930
  95.0728798  91.4068317  22.7815413  93.9348030  91.4644909  23.7777567
 115.4725136  51.7484236  16.3784289 115.9725107  51.1382628  16.9206011
 115.5992140  52.5999022  16.7969608 101.8616022   6.0349894  36.5753460
 101.1643757   5.4288054  36.3250327 102.3869194   5.5470896  37.2095585
  98.0758728   3.4356070  67.9023266  98.9222492   2.9921103  67.8458261
  98.2689298   4.2653800  68.3387089 114.5035709  20.6382704  57.7289820
 114.8767675  20.9780646  56.9156551 113.8406862  21.2830592  57.9760790
  32.9244494  41.0077239  28.0772114  33.8229250  41.2698413  28.2779002
  33.0005812  40.4815818  27.2812176  12.5147986   0.6446982  51.6620636
  11.8230414   1.1092139  51.1909676  13.3279966   1.0227633  51.3273859
  72.2143459 102.2186947   0.5718586  72.9309845 102.6742363   0.1301036
  72.4116373 101.2896347   0.4528489 115.4333318  47.6664592  20.1172614
 115.9775509  48.3702899  20.4703593 115.6280483  46.9115496  20.6726265
  97.8692150  86.9406605  16.9161642  98.2932949  86.6919422  16.0948730
  98.3305454  87.7320480  17.1938610  18.2723593  15.1376963  29.7872686
  17.7341055  15.8191157  30.1899886  19.0761828  15.1290751  30.3069162
  89.6319866 102.0675755   5.2813524  88.8117313 101.8838501   4.8234719
  90.3110409 101.7110825   4.7086152   8.7978911   0.6314135  22.1719480
   9.0637564   1.3596011  22.7334452   7.8457522   0.7099105  22.1126628
   7.4261736  25.6389762  42.7646160   8.0511641  26.0168696  42.1458960
   7.2375559  24.7688342  42.4131727 103.4712124  92.7804947  35.4437065
 102.6474285  92.4178410  35.7694292 104.1471004  92.2211552  35.8265138
  98.6320877  63.6287642  57.0062590  98.5052681  64.4917488  56.6120386
  97.9821777  63.0718231  56.5776920  34.2828214  50.5730730   7.3351401
  33.4982145  51.0596471   7.0824069  35.0086248  51.1544138   7.1082515
  23.0236601  47.4525500  37.4177265  23.9086317  47.0971633  37.3354411
  22.9878210  47.8022624  38.3080339  93.5553468  15.9499312  18.2710600
  94.4238199  15.7827998  17.9049361  93.7218441  16.4812804  19.0496361
  87.3073591  16.9253588  15.5859625  87.6877893  16.0987712  15.2888644
  87.9336275  17.5921965  15.3042936  56.5095949  92.1376324  38.2955813
  57.1139383  92.6845169  37.7936721  56.4746094  92.5494480  39.1589546
  14.3682550  14.6662760  58.7978745  13.7564539  14.9713565  58.1279039
  15.1937841  15.1011229  58.5842276  88.5417379  29.7633124  58.3392048
  88.2907976  30.3325892  59.0666533  89.2832149  29.2592002  58.6743307
  26.4833235  39.0858317  40.2906847  26.3410544  38.1765795  40.5538321
  27.4029230  39.2536784  40.4965782  76.4380741 107.9641438  28.4800124
  76.1257029 108.2969093  27.6386309  75.9998798 108.5114861  29.1316533
  21.9197344  21.0842467  37.4687910  22.5715040  21.7123938  37.7800202
  22.3412489  20.6491042  36.7277002   7.8137278  22.3941088  20.9784722
   8.6199259  22.8779364  21.1578512   8.0608152  21.4740420  21.0715032
  25.3437304  46.5395690  32.3993421  25.9902643  45.9724093  32.8195333
  25.8157419  46.9415713  31.6700768 101.8341064  97.0798779  53.6054802
 102.0330811  97.1327496  54.5402765 101.5577030  97.9652596  53.3689785
   4.4391512  39.7055293  23.5750580   4.5599054  38.9123107  23.0530930
   5.0463938  40.3388167  23.1923866   3.1303858  22.1402407  30.7934499
   3.6039042  22.8019286  31.2976003   2.9434275  21.4460517  31.4254165
  66.7894506 105.3708553  38.2593417  66.6625452 106.2979221  38.0576944
  67.5820398 105.1279545  37.7807617  34.2685103  31.2469817  32.9957032
  34.3297075  30.3268386  33.2522678  33.9902281  31.6996241  33.7918782
  99.3249906  23.8868857  65.8566093  98.6439146  24.0175963  65.1968479
  99.8347915  24.6968222  65.8382797 112.9022802   6.1676932  25.3549170
 112.1436323   6.1162425  25.9363317 112.5503887   6.5055228  24.5313430
 108.2091201   9.6763659  24.9014926 107.7091039   8.9142371  24.6093154
 108.1610693  10.2898074  24.1682673 107.3325456  16.2226535  21.0574389
 107.8323282  15.4115153  20.9652901 106.7205108  16.2117911  20.3215528
  59.8439789 103.7142563  41.8083286  60.0078535 103.4423065  40.9053230
  60.0122833 104.6565437  41.8089676 103.9453983 107.3096752  21.3469267
 103.0323124 107.0247746  21.3102794 104.2544651 107.2400284  20.4436803
 100.9145737 103.7163448  41.3198185 101.1223602 104.6209240  41.5538788
 101.5023136 103.5164165  40.5912352  10.6144117   8.7250567  33.5546708
   9.8325895   8.4929324  34.0557742  11.2506556   8.0445719  33.7746167
  57.0366335 107.8898716  11.3276410  56.6686296 107.4826813  12.1118641
  57.2803688 107.1531868  10.7671738  35.9868336  14.8736417   8.1765050
  36.2741947  15.4071164   7.4355197  35.1190948  14.5590746   7.9229134
  18.3316743  66.6391897  46.4523172  19.2589712  66.6309786  46.6895628
  18.2970703  67.1421385  45.6386375  24.0539861  26.3323426  22.9159474
  24.8124361  26.6313648  23.4175158  23.3962965  27.0155263  23.0460930
  26.0942483   9.0109092  11.0825133  25.3615737   9.4785714  10.6816256
  25.7838774   8.7863874  11.9597208  16.5326655  27.5042844  29.1049576
  17.3520684  27.9915977  29.0192986  16.8041193  26.5886068  29.1688132
  46.7928886  26.3247705  75.1310110  46.0479498  26.0383654  75.6594753
  47.0335150  25.5531740  74.6182108  50.2624369   7.9452217  37.2811794
  49.5787907   8.2956058  37.8522253  49.8952246   7.1295083  36.9405913
  52.2775412   2.8190458  21.0954142  53.0348873   3.0050936  21.6504288
  52.2978306   3.5024995  20.4255557  88.3067047  74.4905466  70.7958108
  89.1480696  74.0477950  70.6848913  87.7949345  74.2274648  70.0308853
  85.6926949 107.4299886   8.7029487  85.4741294 107.1820777   7.8046167
  85.7940913 106.5969487   9.1633785  33.0558872  23.2230854  18.4744990
  32.9127169  24.1676545  18.5338521  32.9448271  22.9071903  19.3712187
  13.2353401  40.0371218  19.5188546  13.1183517  39.4904447  18.7418818
  12.3748624  40.0448036  19.9380815 116.4861848  23.3997130   0.7917874
 115.5742807  23.1697965   0.6134591 116.4652960  23.8086414   1.6569886
  54.3041134   4.9161106  28.4469700  53.5159111   5.2851999  28.0485392
  54.1210604   4.9182764  29.3865013  26.8976903  18.7467289  38.1512761
  27.0659256  17.8564703  38.4600925  26.4075160  18.6293447  37.3375297
  50.1923895  20.2371979  26.5329742  50.9249115  20.5779171  27.0463514
  50.6009102  19.6657133  25.8827829  36.9553135  64.7416658  81.7601293
  36.9090780  65.6276411  82.1194929  37.8891769  64.5910228  81.6137129
  25.4205728  17.9612279  61.0629606  26.0092187  17.2095633  60.9942102
  25.8441615  18.5399771  61.6968775   5.4606425  98.5365450   0.1689993
   6.0945879  99.2506420   0.1025827   4.6240269  98.9731204   0.3293254
  84.7989368  72.8605032   8.4534419  84.7295856  72.7631187   7.5037372
  85.5297089  72.2934008   8.6996269  44.4910145   5.0542831  45.0160742
  43.6890602   4.8444623  44.5374489  45.0031614   4.2459995  44.9912930
  35.3049302  25.7732582  30.0853014  35.8011270  25.5239892  29.3056321
  35.3510857  25.0049639  30.6543589  26.3675237  18.4202790   1.5506668
  26.6387033  17.7770162   2.2055764  25.8566284  19.0626907   2.0431358
  53.3212280  62.9300117   8.2203966  53.8924932  63.6975765   8.1934017
  53.9086246  62.1889353   8.0720645  34.9496555   6.2739450   3.4125209
  35.6135368   6.9576585   3.5021263  34.9311233   6.0794306   2.4754763
  46.4559698  21.4730573  43.5361576  46.4734888  20.6792736  44.0707874
  47.3424196  21.8276501  43.6047697  37.0156431  36.7102218  21.1831546
  37.7137280  36.9710279  21.7838955  36.9011736  35.7731533  21.3413620
  68.8020563  12.1960866  13.5027862  68.0433750  12.5632846  13.0491316
  69.4477844  12.0514297  12.8111637  10.7501923 101.2528490   6.8409055
  11.1971890 100.5156278   6.4250553  10.0761257 100.8474486   7.3863518
  37.7916169  14.7392154  25.6674981  37.3956132  14.0009677  26.1305356
  38.5913062  14.3798482  25.2833319  33.3049631  40.4942989  63.8646603
  32.5193334  41.0402870  63.8949966  33.5210609  40.3343010  64.7833204
  11.0003328  36.6929770  29.9995852  11.4811742  36.8275547  29.1829395
  11.1306107  37.5041842  30.4907107  38.6215830  58.9035130   7.9278553
  39.3199658  59.5520735   7.8391576  37.9284310  59.3614531   8.4033209
  37.1309209  18.2189476  23.4049702  36.2717986  18.5414028  23.1326461
  36.9439363  17.4054825  23.8735247  49.2908573  21.9808769  17.2825527
  48.5450554  22.1796679  17.8486729  48.9026451  21.5681005  16.5111005
  54.3248272  26.8826246  44.9157143  55.2526045  26.8371129  45.1467896
  53.9123774  27.3134112  45.6644058  95.1240313  87.6365537  94.2188246
  94.7201884  86.9466061  93.6924097  95.2280581  87.2459454  95.0864857
  89.7650827 102.9785913   2.5038886  89.3710614 103.8427030   2.3843482
  90.4120756 103.1043225   3.1980234  34.5139742  35.3547525  24.6753860
  34.0970922  35.9463358  24.0489101  33.8081527  34.7768092  24.9652672
 112.1117903 101.3806080  33.4216428 112.8942681 101.8461566  33.1263018
 111.7486716 101.9360774  34.1114473  61.0124111  21.8180466  38.5716772
  60.6326962  22.4479651  39.1842532  61.8918085  22.1535540  38.3975244
  86.2112629  78.1071085  94.6676508  86.9559157  78.1467957  95.2677767
  86.6023218  77.9300374  93.8121083  46.1674213   2.0331861  24.7307229
  45.9797716   2.9427686  24.4990349  46.8135786   2.0936596  25.4343200
  28.1976581   7.0889509  20.1414490  27.6035547   7.8017968  19.9066651
  28.1096458   7.0067453  21.0910416  66.2622452  26.3984442  39.6505737
  65.8406162  25.6361222  40.0472164  66.5537310  26.9251776  40.3947639
   8.2736188  38.3314991  11.0270739   7.6273727  37.6305008  10.9422386
   7.7571046  39.1371322  11.0071218  52.4853802  34.4911170  20.5346322
  52.0792961  33.6556149  20.7654262  53.4132719  34.3701982  20.7361817
  48.1021064  82.8093452  90.3303370  47.1625846  82.9055709  90.4861295
  48.4086066  82.2561259  91.0488349  43.4495687   3.9726451  17.9548073
  42.9332066   3.3840713  18.5054278  44.2353725   3.4706068  17.7387130
  37.0764160  47.7388048  13.2404494  37.4137855  46.8556547  13.0905831
  36.2534857  47.7668619  12.7523613  29.0226483  42.6073837  28.0816603
  28.6177850  43.3332586  27.6068687  29.7230792  43.0152655  28.5908365
  43.7008572  52.2655249  52.6135588  43.5483503  51.5324974  52.0171976
  42.8255177  52.5958300  52.8158379   1.9615227  20.7510090  18.7586796
   2.5459054  21.5073538  18.8103724   1.0952686  21.1032271  18.9630795
  54.6496964   9.7634804  21.8739939  55.0410986   9.6122462  22.7343225
  54.6597481   8.9044148  21.4519286  54.4533038 104.2007679  71.6762978
  53.7908637 104.4081826  72.3353773  54.0164911 103.5914893  71.0811502
  11.8932748  28.6281824  41.4059925  11.9826984  29.5810962  41.3921690
  11.0766029  28.4711075  41.8799210  33.6739635  50.3830957  10.5752599
  34.6300268  50.3366756  10.5706882  33.4521437  50.8335638   9.7603321
  50.2523899  27.3305535  27.2456598  50.0288010  26.4018250  27.1847820
  51.1910152  27.3391485  27.4331212  38.4722948  23.5121727  35.4866862
  37.9147434  24.2880988  35.4292059  38.3262515  23.0505919  34.6609473
 113.5582959  35.3739810  27.8676057 113.7092777  34.7208881  28.5509109
 112.7041640  35.7500863  28.0802894  15.0190735  23.3293915   9.6027267
  14.5611191  23.7350416   8.8665497  15.9242284  23.2431769   9.3035698
  38.8980770  36.8078947  23.3289003  39.6587038  37.1385360  23.8067651
  38.9165282  35.8619785  23.4742665 108.6092683   8.1907177  21.3906622
 108.5468151   7.2390205  21.4719296 108.3774020   8.3690012  20.4792428
  18.8144267  22.4223232   2.0798847  17.9489374  22.2849584   1.6947986
  19.4142497  21.9657493   1.4899829  31.0845494  26.9677782  49.2611790
  30.9453869  27.2162223  50.1750422  31.9510365  26.5611339  49.2528057
   4.9122548  35.4576278   8.7150651   5.1118928  35.7981157   7.8430307
   5.3147441  34.5893073   8.7310731  59.1728222 103.8812012  94.4298143
  58.2455921 103.6575455  94.3494917  59.1782534 104.8236365  94.5971920
 107.6508435  14.0433657  30.7121229 107.5145664  14.8486781  31.2112546
 107.0949860  14.1435933  29.9393296 110.6685830 109.3387295  17.8856325
 111.4104868 109.4149599  18.4856319 111.0656548 109.1386487  17.0379698
  20.0207829  13.2086635  32.8927803  19.0661263  13.2276726  32.9598761
  20.3235650  13.1546843  33.7992239  39.1910982  40.8174896  20.6442118
  39.3651962  40.9267092  19.7093368  39.9227881  40.2896929  20.9640431
  29.4768190  14.9425769  23.5256124  28.6610699  14.4460833  23.4601760
  29.2479372  15.7116020  24.0475750  55.3093338  27.6779604  13.8660359
  56.2542582  27.5352526  13.8113785  54.9400854  26.8006921  13.9674616
  25.8991385   9.7066909  35.4644704  26.2103748  10.5771804  35.7126880
  26.5619421   9.3798041  34.8561406  17.4079931  24.1014433  44.3654871
  17.6753163  23.3661056  43.8140821  16.7861068  23.7216926  44.9861956
  31.5970898  12.4705184  19.5677006  31.7004180  11.6070735  19.1676772
  30.6916451  12.4839747  19.8778939   9.1964889   9.7903758  14.9004209
   8.8509268  10.5753350  14.4753826   9.4055027   9.1988623  14.1774702
   0.5254142  42.3106384  22.1163201  -0.1809456  42.1474314  22.7413392
   1.0607345  41.5177345  22.1474552  34.0341949   5.9243309  33.6637020
  33.9011121   5.1380128  34.1930628  34.9196887   6.2139302  33.8834000
  77.2931147  47.0058298  19.0283501  77.3769283  46.1619949  18.5843313
  76.5754938  46.8796062  19.6490943  89.0508950  80.5855007  77.6044756
  88.7546646  80.1555938  78.4067601  89.5851195  81.3190383  77.9090363
  34.9431610  14.0370023  46.1450195  34.4283605  14.1563690  46.9431210
  34.8427582  14.8617291  45.6696510  31.2583399  24.8104024   3.3504370
  30.5418730  24.9525690   2.7318114  31.6638899  23.9922762   3.0633309
  38.5539579  30.9531736  30.8434534  38.4950972  30.0056434  30.9657359
  38.1920433  31.3216186  31.6493654  61.2858009  34.8295879  22.4416375
  62.1734333  34.5694184  22.1953464  60.7246780  34.4193554  21.7835498
  14.2690384  31.4786196  27.0964146  14.3937933  32.2477055  27.6524496
  13.5406065  31.0067940  27.5001478  94.4503700  41.9533641  94.3800334
  93.9439928  41.1900467  94.1022564  94.6756756  42.4010212  93.5645130
 107.3804236  74.9505710   7.6577747 106.5816213  74.4324421   7.7562064
 107.8723908  74.7874593   8.4625071  30.1528502  54.6090174  24.8358893
  30.9532189  55.1163769  24.7008896  29.7990179  54.9354553  25.6632161
  49.2365026  10.2331007  13.8764131  49.2771053   9.6340716  13.1309283
  49.6880436  11.0214674  13.5750520  40.6641436  17.4895918  10.7776153
  41.1878490  18.0150700  10.1727676  40.1640606  16.9009387  10.2122533
  71.5522623   9.8391300   2.5151101  71.1311150   9.7294277   3.3676547
  71.1525679   9.1676176   1.9623454  30.1731348  30.8838105  14.3822849
  29.7928715  30.0092840  14.2996085  30.9459066  30.8633113  13.8178074
  37.2440338  28.6900282  43.0907965  36.5567207  28.4856772  42.4567032
  37.0996737  29.6099758  43.3123541  60.4925871  31.0611963  38.9757347
  61.2069607  30.4243755  38.9566135  60.6648350  31.6368055  38.2305932
  96.0555708  82.6052255  86.9596982  95.9083760  83.4472675  86.5289658
  95.9366715  82.7888531  87.8915649 114.0428903  16.1377382  29.1143775
 113.1602888  15.7846463  29.0022469 114.5751846  15.6580329  28.4797287
 110.5121632  37.1052790  26.5538383 110.0237497  36.2905741  26.4357662
 110.8307352  37.0650125  27.4555731  44.3824720   5.5372518   8.5684347
  44.5903587   6.2930024   9.1178489  43.5950041   5.1631916   8.9636570
  26.8337250  12.0402408  41.8430758  27.1447301  11.4457870  42.5258160
  26.2508035  11.5038300  41.3057661  34.4979572   7.4712503  29.3689585
  35.4317236   7.5735718  29.1850019  34.1207528   8.3300722  29.1782379
  42.1134233   0.1692247  49.5067978  41.5225935   0.5656013  48.8664579
  42.9859400   0.2822641  49.1297436   8.1424797  17.5808442  16.8929636
   8.6379427  16.8648827  17.2906411   8.8112807  18.1701648  16.5441978
  20.3325677  10.1770186  36.4024687  20.8640170  10.0104260  35.6239820
  19.5656359  10.6456125  36.0731268  12.4519527  12.2418261  54.4956017
  13.2460332  12.6829886  54.7973347  12.2203064  11.6497195  55.2111292
  10.7172263  41.8769741   1.2005114  10.2771640  42.2305441   1.9735356
  10.0277436  41.4167595   0.7219251   2.8059517 109.5475085  25.3734875
   3.7401568 109.3483335  25.4353046   2.6962315 110.3447742  25.8917141
  70.2651787  43.6176062  17.1396160  69.9872255  44.4239426  16.7051089
  71.0288477  43.8748884  17.6561868  66.6991889  89.8984522  87.9025757
  66.0506713  89.6949262  88.5765445  67.5382745  89.8744768  88.3625674
  57.2451925  51.5149832  30.2677393  56.8213272  52.3627329  30.4014993
  57.2171926  51.0949135  31.1273837  23.0694699  33.3105254   5.2773386
  23.6352563  33.6752319   5.9578598  23.6740661  33.0101991   4.5987386
  33.4877992  30.5381370   1.3138054  33.7411427  29.6177268   1.3837729
  33.1067538  30.6158495   0.4391640  60.6681204  66.9560242  10.5270386
  60.9681702  66.5491486  11.3398421  61.3550234  67.5850391  10.3062797
  76.3299322  14.7850764  35.2155232  76.3605261  13.9180839  34.8110223
  75.8263540  14.6567047  36.0193610  19.9829674  55.3774929  14.9991906
  19.7791088  55.1891708  14.0831077  20.8814526  55.0677156  15.1131928
   1.9146798  90.5023999  92.3905104   1.6306708  89.5883054  92.3890847
   2.3484585  90.6197495  91.5453502  87.3434479   9.4747872  90.9770822
  86.8801791   8.9484067  91.6286480  86.6486169   9.9053664  90.4790434
  54.6242714  37.5729632   6.1047292  54.8407364  37.7186847   7.0256746
  54.0439177  38.2993746   5.8772564  75.5570376  97.6172728  76.1240548
  74.6327960  97.5283808  75.8914464  75.8036363  98.4831375  75.7989377
  44.3527508  39.4960618  24.4052315  44.2311239  40.2821016  24.9377561
  44.6975803  38.8442707  25.0155544 108.3451963   8.1475253  84.1641444
 108.4839893   8.3940549  85.0785798 107.5705601   8.6425920  83.8975364
  24.3746448  49.1916704  35.7656789  23.6070609  48.6994886  36.0568905
  24.0591264  49.7126341  35.0272512  30.3456831  57.5619221  27.1366668
  30.0325060  56.6581821  27.1741056  30.8119178  57.6882696  27.9630399
  80.2031576  68.7586850  90.5075139  79.7435629  69.3188233  89.8820138
  81.1306822  68.9372272  90.3524136  52.6974869  26.6739774   3.3380383
  52.7242088  27.1708512   2.5203371  51.8510485  26.2274122   3.3193976
   1.8237461  38.8825393   6.8392265   2.7440387  38.6634994   6.6932315
   1.6572194  38.6251521   7.7460074 109.5642019  97.5283348  48.4763718
 109.3675543  96.6975247  48.9091730 109.3273474  97.3831653  47.5603724
  37.6101732  59.1632271  19.7837150  38.2441425  58.4489775  19.7192061
  36.8890715  58.7978601  20.2963090  33.2260227  47.9548693   7.2335875
  33.7969565  47.5793552   7.9038554  33.5423470  48.8516855   7.1245337
  43.6337709  40.1832199  37.1083331  43.6468410  40.0654745  38.0581737
  44.5539904  40.2902555  36.8675709  20.2139449  37.1195436  47.7581930
  19.9102604  36.4164805  47.1839905  19.5698118  37.8181171  47.6427841
  56.8650103  43.7632751  39.6318793  57.2754717  44.6260357  39.6901202
  55.9622335  43.9079142  39.9152637  43.8039103  97.8959030  91.3002929
  43.8897073  98.8145155  91.0453009  44.6896797  97.6330180  91.5503621
  19.6956372  42.1341085  24.6953845  19.1210771  41.3726473  24.6160913
  19.3267596  42.6379871  25.4208302  35.5677438  63.2998371  25.0211310
  35.3541517  63.8555002  25.7706976  36.3291454  62.7948523  25.3065944
  41.2615728  29.7653127   0.6066712  41.9601393  29.4844627   1.1977381
  40.6201029  29.0556240   0.6397167  76.1873567 103.6605305  86.3653642
  76.9938957 104.0428490  86.7111391  76.1492812 103.9620966  85.4577076
  30.7385826  34.4056034  18.8946426  30.5415964  34.6182656  19.8068941
  30.3458667  33.5431862  18.7595761  48.7040710  28.8727021  28.7707257
  49.2825747  28.2870674  28.2822633  48.5581112  28.4249353  29.6040511
  27.6347804  28.1489062  56.9602060  27.3125505  27.9622006  56.0784245
  27.4025440  29.0651703  57.1110630  38.2667232  41.2470818  34.8550034
  37.3330879  41.4458466  34.7839189  38.3432746  40.3435659  34.5483661
  52.1178198  36.8249607  27.0863914  51.5058184  37.5175667  26.8374300
  51.6033602  36.2388682  27.6414204  54.0028334  43.8760471  40.2816057
  54.1114140  44.5123959  39.5748520  53.5257435  43.1502914  39.8792410
  45.4706669  42.3150063   6.1498088  45.1153660  43.1274748   5.7894093
  45.8581305  42.5732470   6.9861192  36.4753652  38.0962181   0.3458474
  37.4026942  38.3334804   0.3467124  36.1869597  38.2604313  -0.5519767
  61.7955720  92.0118326  92.1127102  61.2653243  92.5532765  91.5279808
  62.6913893  92.3215575  91.9792360 113.7899983 102.3683924  86.8715310
 113.1761276 103.0958695  86.9723660 114.4328558 102.6837630  86.2363082
  16.5958560  36.7534471  60.9088612  17.4489677  37.1779203  60.9997177
  16.1015284  37.0426846  61.6758156  20.7477593  12.6941383  41.2233400
  21.6786671  12.4747431  41.1844921  20.3440499  11.9477272  41.6661978
   8.4562981  63.1381798   1.7424120   9.0490669  63.1364489   0.9908439
   7.6119649  63.4077024   1.3809016   5.9439360 105.6719961  50.3183651
   6.0039746 106.3839161  50.9553862   5.7403361 104.8976963  50.8429956
  55.9476519  41.5626001  19.4731820  56.2246084  42.2899628  20.0303793
  55.1734257  41.2076044  19.9099720  33.6218715  22.9413009  57.5452566
  33.7583852  23.8631010  57.7640724  34.4872093  22.5426054  57.6372385
  69.0070069  89.5918245  89.3818342  68.5871970  89.9996371  90.1392513
  69.6445000  90.2404279  89.0832609  71.7185020  47.3849201  24.3012261
  72.4399662  47.0829630  23.7493706  71.8029451  46.8743181  25.1064491
  67.8483248  10.9422278   4.2443743  68.2144165  10.1159322   4.5597264
  68.4665012  11.2386179   3.5763568  34.2064810  49.1271019  59.6055794
  34.7002411  49.8080683  59.1487217  33.7096214  49.5990562  60.2738810
  56.8711996  46.3075924  30.3457785  57.3046446  47.1494198  30.2054906
  56.2398672  46.2409401  29.6293926  39.6123672  47.5524902  52.0165491
  40.1612282  47.6496410  51.2383795  39.6722865  46.6230440  52.2373867
  54.6092844  35.2678680  30.1686382  54.4107342  36.0302091  30.7123756
  54.1081095  34.5546103  30.5640101  64.8780680  43.8000202  34.2464018
  64.3125868  44.0061474  34.9906969  64.3062687  43.8770103  33.4826279
   9.9295555 101.0865950  13.2726502   9.8435103 101.7900985  13.9160085
  10.8407770 101.1363100  12.9838085  27.1824121  68.0839777   1.2873769
  27.0015812  67.1440125   1.2870553  28.1215429  68.1472683   1.1134282
  76.3880884 102.2182316  75.8925694  77.0341646 102.9070944  75.7367438
  76.9090950 101.4249939  76.0173088  50.4535627 104.5582814  84.5692366
  50.2987206 104.4636244  83.6293989  49.7064411 104.1232533  84.9800795
  44.8649311  13.2406306  30.5208373  45.2968121  12.4847782  30.9188271
  44.9129343  13.0755603  29.5792007 104.1833508  98.3460230  77.6068479
 104.5541298  99.2044110  77.8116077 104.5754921  98.1101031  76.7661327
  35.6587791  51.1929512  58.5106373  35.2542114  51.8590641  59.0663815
  35.8938861  51.6603231  57.7090645  45.3675461  13.4884250  41.9593096
  45.2599478  14.1337156  42.6580620  45.3267956  14.0007615  41.1517954
  47.8888178  55.5784512  24.9444461  48.2451344  55.5896807  25.8327842
  48.4350967  56.1969852  24.4594383  38.7275147  40.3407764  17.3310280
  38.3818173  39.4749427  17.1141112  38.0500937  40.7391214  17.8775215
  38.6697125  26.0149193  20.6050968  39.4489527  26.3859916  20.1911879
  38.2576680  26.7566156  21.0481954  19.8449681  77.4987144  70.7811433
  19.0581582  77.5026459  70.2360326  19.6731732  76.8307442  71.4448696
  47.1812081  66.6518063  71.5827161  46.6742599  65.9077770  71.9077641
  46.9747019  67.3647124  72.1871596  43.0590773  31.8715692  15.2343214
  42.5580263  31.0741019  15.0633657  42.5658941  32.5634265  14.7934842
  42.7904415  33.9123034  17.7887201  41.9964838  33.8136935  17.2632301
  43.4892464  34.0349197  17.1461713  69.9664914  74.7063643  75.2814942
  70.6604993  74.2800218  74.7786885  69.2809403  74.8867208  74.6382791
  24.0021205   6.1532825   1.2815574  24.0008926   6.0423040   0.3308135
  23.3645654   6.8489212   1.4423178  80.1457369  98.7603754  92.5712344
  79.3782913  99.2753167  92.8204086  79.8677170  97.8503842  92.6754436
  53.4231234  49.4134092   7.0043671  54.3591404  49.4880295   7.1902186
  53.3751154  48.8305616   6.2465942  95.5771924 104.8184627  30.4076505
  96.4834476 104.5770489  30.2162004  95.6108678 105.1982566  31.2856340
  55.1973438  71.9576550  16.5020037  55.6177473  72.4141264  15.7732213
  54.5810032  71.3561106  16.0842669  93.0395710  80.7483858  92.1023854
  93.9611637  80.9439296  91.9330913  92.6900637  81.5536208  92.4840599
  64.9902403  92.3664159  92.1480557  65.1830590  92.3797674  91.2105721
  65.3876006  93.1690950  92.4857628 103.6194802  16.8435950  89.7670889
 102.8831912  17.3577066  90.0984511 103.4496737  15.9542651  90.0777149
  44.9865818  54.2675734  14.3764162  44.5106125  54.7996664  15.0140357
  44.3626595  53.5896587  14.1168296  47.9996300  52.0956421  54.7966146
  48.5667419  52.4905348  55.4589415  48.4659052  51.3060904  54.5219755
  83.0839741  80.9109825  93.3469839  83.6304295  81.0296196  94.1238642
  83.5106194  80.2063937  92.8593769  52.4898434  43.4163094  18.1193292
  51.7576647  43.9726019  18.3852017  52.6607180  42.8643513  18.8824642
  59.0432453  35.0329733  10.2887022  59.3463421  34.6666837   9.4579214
  59.8445606  35.1869702  10.7891107  35.2349782  31.8217587  35.7547879
  36.1508155  32.0031905  35.9658790  34.9056768  31.3386273  36.5126634
  37.1932936  77.9317951  13.1654298  37.0457268  77.9592657  14.1107869
  37.0114279  78.8234568  12.8686190  17.4122654  11.8092198  83.0760032
  16.6122614  11.2975450  82.9559427  17.1437441  12.5493951  83.6203092
  63.7391174  80.0527090  72.2612935  63.0759084  80.3002614  72.9055768
  64.2676151  80.8424181  72.1460491  46.7773581  39.0045595  45.6593895
  46.1288929  39.0487790  46.3620758  46.3232994  38.5626483  44.9419117
  24.7036505  34.4258690   7.2664976  25.1048398  34.7710013   8.0640960
  25.3155160  33.7560987   6.9611120  25.7272649   4.9807656  75.5598831
  26.0776067   4.4306633  76.2605143  26.1305094   4.6383306  74.7621584
  59.0120029  37.1773243  24.3280411  59.9041319  37.0621943  24.6552801
  58.7261772  38.0116081  24.7002029  55.5605793  51.4209175  35.3481221
  55.2881432  51.4447117  34.4308209  54.7898865  51.1034250  35.8187151
  16.2014185 100.7775801  47.7553320  17.0742880 100.7752907  47.3624897
  16.0822951 101.6740417  48.0690193  48.5922050  55.9064198  27.6447535
  49.3085623  55.3741407  27.9908037  48.0510473  56.1055374  28.4087729
  11.9524992  20.5498457  23.8656020  11.6166270  20.0242424  24.5916653
  12.3369670  21.3196278  24.2849469  78.4813738  44.8953295  17.2133672
  78.9885378  44.3928814  16.5757442  77.8971672  45.4362392  16.6820049
  15.7918894  35.2813601   5.1165289  15.9621584  34.5148396   4.5690951
  15.2602422  35.8558416   4.5655695  22.6578021  53.8967276  15.1001740
  23.3496976  54.3835306  15.5479801  22.3753548  53.2408667  15.7375920
  47.2087717  22.2535110  18.8017488  47.0288229  21.9805169  19.7013724
  46.3509893  22.4849796  18.4455681   7.0948166  32.5145483  16.0588956
   7.0743012  32.8044510  16.9709098   6.3103569  32.8989911  15.6676686
  68.0753803  18.1266594  56.0665178  67.7485228  17.3764229  56.5630484
  68.9678907  17.8817356  55.8222485  27.8121519  32.5230145  37.2139072
  28.7371707  32.3481321  37.3870826  27.5871825  31.9322538  36.4951420
  79.3485212  50.4474926  15.5508316  79.3961477  50.7927608  16.4423215
  80.2620029  50.3625536  15.2777624  52.4555254  17.7618146  49.2500639
  52.5345278  17.2832966  50.0752974  52.5513124  17.0909333  48.5740614
  43.6919355  35.1609659  13.2565427  43.8840580  35.6581855  14.0515852
  44.4364309  35.3337002  12.6802433  41.1059523  51.1751127  44.3031359
  40.1731348  51.3886595  44.3250370  41.1788368  50.3677082  44.8120737
  47.1611166   7.3170769  22.0898485  48.0111885   6.8772280  22.1018076
  47.2040796   7.9007417  21.3324046  65.6129742  22.5194144   0.8407097
  66.0556984  22.8830552   0.0739033  66.0771179  21.7016721   1.0198715
  58.8162899  52.1576214  24.5265985  58.7426615  52.7122068  23.7499070
  59.1462374  51.3227606  24.1943765  50.4978561  87.9262752  95.1518859
  51.2391329  87.4985141  94.7232120  50.1284170  88.4971446  94.4781988
  63.8308668  33.7373519  22.3570704  63.8001919  32.7810526  22.3850632
  64.7463894  33.9529228  22.5347757  64.1381884  27.2410417  26.7443657
  65.0053501  27.1658874  27.1426296  63.6071682  26.5892100  27.2019339
  57.1766567  67.8641939   7.3287612  57.5073433  67.7321815   8.2172716
  56.4021063  67.3042822   7.2758144  63.5042620  32.3754287  47.6915216
  63.1364584  32.6387167  46.8479395  63.8567019  33.1845307  48.0621576
  81.2164223  97.6784510  71.8580037  81.5745175  98.0178160  72.6782661
  81.2462723  96.7270703  71.9590860  62.4627495  48.2448292  23.9844060
  63.0262613  47.7515125  23.3883166  62.5929260  49.1597271  23.7349129
  33.3924365   9.7888094  23.3765197  33.2052588   9.1365498  24.0516162
  32.7487350   9.6143574  22.6899004 109.2599880  96.6862482  76.3784688
 108.8966572  97.5645966  76.4913004 108.6132920  96.2265057  75.8430677
  27.9169393   5.6750441  17.7192307  28.7749100   5.6018054  17.3011959
  28.1065035   5.9980243  18.6001289  99.4389153  63.4388828  19.4726610
 100.0201893  62.6850367  19.5730090  99.6094608  63.7564707  18.5859346
  93.4729207  30.9189172  82.7554840  93.8837100  30.5023427  83.5130793
  92.7829171  31.4674516  83.1286257  47.5031900  25.4949021  22.8219485
  48.2020760  25.0992560  23.3427691  46.7116690  25.0274467  23.0887938
  28.6772180  43.3627415  57.2847223  29.6274018  43.2577515  57.2361231
  28.5296512  44.2920876  57.1093082  46.1021471  37.3744869  36.9841027
  46.2745571  38.3044577  37.1312737  45.4807949  37.3583555  36.2561607
  16.3668215  22.0171475   0.6145584  16.3388169  22.5328183  -0.1913771
  15.7504964  21.3008142   0.4621007  21.3658881  34.4718361  49.2648697
  21.3842654  35.2954841  49.7522068  20.4454231  34.2093277  49.2728043
  65.6194544  59.7504044  19.3799579  66.2140131  59.0930080  19.7412908
  64.8590136  59.2493534  19.0851498  27.2292066 101.0315609  35.7080102
  27.8502345 101.3726521  35.0644159  27.6420426 101.2043190  36.5541506
  42.7009773  59.3556690  25.4063177  42.8854370  58.7912989  26.1571097
  41.7550516  59.4981050  25.4404259   3.6029993  95.3642344  16.1154020
   4.3634163  94.8143970  15.9265268   3.8992773  95.9523081  16.8101096
  84.8728561  84.1650200  20.3575921  85.6327438  83.5974216  20.4865503
  84.7290993  84.1614723  19.4112563  43.3544827  24.1891766  45.4168606
  43.3269119  24.7230482  46.2108707  43.4693670  24.8211551  44.7071886
  17.7778375  23.9361525   8.8308179  17.1936500  24.6776605   8.6723226
  18.0530918  23.6571622   7.9575294  36.9593954  61.1346102  37.9439378
  36.4183617  60.6920004  38.5978580  37.8591013  60.9350348  38.2026482
  56.0998249  68.7859583  26.7874503  55.4751492  69.0652561  26.1181211
  55.9681702  69.4006062  27.5093269  53.8602734  24.2982507  47.8201580
  54.6045732  23.7263799  48.0078030  53.6040640  24.0722871  46.9259930
   3.6396633  16.0320039  51.4566594   4.1411816  15.9211822  52.2643930
   2.7341687  16.1354966  51.7492467  73.6545145  96.3743443  78.0273932
  74.0848553  96.4206881  77.1736425  73.2590687  97.2382731  78.1434947
  32.5951195  37.5245023  27.5459123  32.9403210  38.0404639  26.8173170
  33.3511686  37.0377517  27.8740859  47.9024887  58.1778812   6.8707389
  48.7837744  58.2273483   6.5004444  47.6855087  59.0829468   7.0943731
  42.6889801  10.2749300  20.3672552  43.1436968   9.4335771  20.3273964
  42.5368261  10.5085695  19.4515622  24.9246812   3.6757311   2.9055285
  24.5421195   4.4468918   2.4869712  25.5262208   3.3214188   2.2506669
  92.5703537  99.6826357  88.4549498  91.8101895  99.4726939  88.9974516
  92.8112137 100.5720658  88.7140465  55.7658672  53.0201197  14.3086386
  55.0320053  53.5057259  13.9319897  56.0992527  52.4902105  13.5845637
 109.6160771  58.0721760  66.6580057 109.0383448  57.5687456  66.0844088
 110.2565612  58.4668589  66.0661936  36.7165661  34.0225744  28.5455823
  35.9202957  34.0380549  29.0765643  36.9306731  33.0933809  28.4619832
   9.4047009 101.3657414  16.3066471   9.3047081 102.3175990  16.3208306
   8.5216795 101.0345679  16.1428344  96.2327254  46.9674999  86.3607973
  96.7067635  46.3191677  85.8400398  95.3122103  46.7214794  86.2694043
  40.0486469  50.6440830  37.3602009  39.5315504  50.4129171  36.5885735
  39.5640063  50.2677107  38.0948448  68.0617380  48.0042076  39.6535015
  67.6784849  48.8316822  39.3625832  68.9856386  48.0701828  39.4120789
  35.7354712   3.6423048  36.1738038  35.4309845   4.0659165  36.9763446
  35.4559922   2.7311727  36.2630296  47.8294897  43.4554863  21.3424087
  47.4552917  43.1693649  22.1756792  48.6214590  43.9340878  21.5872669
  67.3234844  66.0875607  44.1189528  67.0147324  66.8017101  44.6765327
  66.5236855  65.6840277  43.7817383  36.6371417   9.1765368  18.5162258
  36.5604520   9.8772782  19.1637683  36.5832543   8.3698881  19.0287149
  37.8530359  45.3004789  28.6644864  38.5664701  45.9151793  28.4930658
  38.2912374  44.4674349  28.8384223  90.9136034   8.1159253  91.4476195
  90.6851865   7.3676057  90.8961886  91.8702186   8.1438680  91.4292007
  42.0906019  60.4828644  34.5013213  42.5793171  59.8161840  34.9839425
  41.5527534  60.9134912  35.1657867  21.4783311  23.7756300   4.5154807
  22.3110032  24.2221856   4.3622538  20.8171558  24.3782973   4.1750836
  34.8242497  35.3761935  50.5263042  34.2375088  35.4872108  49.7782135
  35.1622319  34.4852686  50.4354668  19.6774650  33.2631063  22.0073009
  19.3701220  32.8914070  21.1804938  19.1958845  32.7816939  22.6800227
   1.9424222 109.4760508  91.5460109   2.4061177 109.8951430  90.8210403
   1.6226456 108.6510653  91.1808082  51.5916681  14.1004753  40.0627851
  50.6423855  14.1813862  39.9703193  51.7932510  14.5621574  40.8766890
  68.6537218  58.9688778  15.6059289  69.1266155  59.0899467  14.7825563
  69.0925169  59.5549297  16.2225604  74.6120644   1.2915915  20.5951047
  75.1315069   1.2008012  21.3939571  74.2018604   0.4347792  20.4774690
  75.6999302  44.0582371  22.2062731  75.7649612  43.2343864  22.6892567
  76.1487961  43.8866329  21.3784432  25.7576513  14.2740035  38.3059883
  25.1541376  14.8555326  38.7684035  25.3073287  13.4296262  38.2843471
  68.5304534  96.8329710  94.1039290  68.1462419  97.4452538  94.7313998
  68.5561883  97.3192162  93.2798338  72.6570570  88.3894581  78.5288638
  71.7154419  88.4622068  78.3729857  73.0199015  89.2077035  78.1896728
  35.9083629  40.4911947  44.3760920  35.8130193  39.9737716  45.1757288
  35.6449890  41.3756466  44.6302891  71.3051939  22.8795505  23.7801862
  71.6110945  22.6310444  24.6524835  70.9829617  22.0633364  23.3978367
  60.3527355  13.8417280  40.3918791  59.5565176  13.5121715  40.8086061
  60.1077032  14.7035873  40.0551462  37.8264832  38.3905959  75.5042934
  37.9339838  38.2980824  74.5576620  38.2104731  37.5928092  75.8680534
  62.3090696  46.9196987  32.5043011  62.1969795  46.0183096  32.8062296
  63.2525015  47.0122910  32.3716474  41.1740112   9.0776414   0.7690597
  41.0063887  10.0144100   0.8720061  40.3794384   8.7357700   0.3591734
  31.4384866  57.4734592  21.9134593  32.1741748  56.9123554  21.6681910
  31.8098354  58.3551264  21.9450545  45.8202076   6.9339663  10.6937921
  46.1360788   7.4688786  11.4220273  45.8218431   6.0396987  11.0351348
  59.9208784  60.6156158  16.2833321  60.3162193  61.0964108  17.0105004
  60.0352192  59.6939993  16.5152514  50.6678963  16.5664017  18.1521404
  50.5386019  16.0520184  18.9489615  49.8070860  16.9419205  17.9671574
  74.2781973  46.7089367  27.0652008  75.1260948  46.2677240  27.1165228
  74.4140482  47.4162865  26.4347744  58.2653236  56.6232443  24.4843674
  58.6175299  56.3412523  23.6401749  57.3427677  56.3696671  24.4557452
  60.5695295  35.4043937  30.3133273  60.5834055  34.4491577  30.2536273
  59.6405268  35.6328654  30.2818942  50.2162838  37.0472050  22.4473166
  50.5995893  36.3696742  23.0043268  50.1805735  36.6500020  21.5771508
  56.2957310  84.3748445  90.5772239  56.3252055  83.4399957  90.3737074
  57.1320462  84.7155470  90.2598426  70.5645120  91.2969274  91.2359941
  69.7409546  91.6699738  91.5503561  71.0059964  92.0252175  90.7990521
  56.1916924  29.9729609  42.5324059  56.5692234  30.5827713  41.8985033
  56.5179157  29.1144919  42.2625208   9.2679220  26.6486883  30.0673890
  10.0695443  27.1228051  30.2884030   9.0652823  26.1413574  30.8533835
  69.8435211  42.1582222  30.8668828  68.9884806  41.9831944  31.2599564
  69.7504854  43.0224752  30.4660797 108.2914496 106.8793198  48.6608458
 108.7217832 106.0563814  48.4288597 107.9437710 107.2096246  47.8324413
  51.5734911  37.3047543  30.3360057  51.5120840  36.5897036  29.7026300
  50.7541227  37.2592735  30.8287525  37.9252672  36.0032010  14.6844947
  38.4789205  35.5187130  15.2968466  37.8684521  36.8829060  15.0574851
  70.5193794  97.0858712  85.8411056  71.3609588  96.6374630  85.7580209
  70.5838001  97.5649733  86.6672677  56.3695240  34.3399715  36.2757707
  56.5059996  34.6444368  35.3786063  57.1463680  33.8161898  36.4717293
  12.5625861  38.9382434  17.2247016  12.0360875  38.1941438  16.9325566
  12.8977919  39.3264723  16.4165258  69.4513178  63.3787489  18.4472036
  68.9391327  63.4337902  19.2539692  68.9834261  63.9387608  17.8277755
  18.0163610  52.4905396  48.6998177  18.1284106  52.8072405  47.8035021
  17.0716465  52.5255775  48.8498783  67.1863890  56.2021017  10.9400368
  66.6074514  55.6997633  11.5133774  66.5932465  56.7019844  10.3792059
 103.6338772  53.7111521  40.6559801 102.9598179  54.2853403  41.0195494
 103.3505907  52.8284311  40.8942795  41.6215467  57.3704433   5.0088465
  40.9839058  58.0841589   5.0248313  42.3976755  57.7518129   4.5984626
  53.5521698  13.4565663  17.2291446  54.1233873  13.8839054  17.8673649
  53.0621099  14.1742885  16.8279624  61.0455704   2.1445197   2.9417655
  60.2877998   1.8224180   3.4298959  61.3035297   1.4084724   2.3868591
  23.4270178  89.1513943  12.8178406  22.9937207  88.8420152  12.0223725
  23.1517350  90.0643837  12.9009116   6.9319689  42.6964855  45.4273415
   6.2450057  42.6305342  44.7640467   6.8546462  41.8877316  45.9334755
  61.6911113  82.9923219  48.0491477  61.7798006  83.2393069  48.9696723
  62.1981060  83.6510343  47.5745040  44.3408585  28.7104487  13.0620646
  43.7453890  29.2515683  12.5435734  44.1991091  28.9956856  13.9647150
  13.4988821  12.3445320  33.5335112  14.3169093  11.8501818  33.4817505
  13.4552431  12.8227782  32.7054954  64.4195080  39.3696928  11.9669068
  63.8031340  39.8022771  11.3759899  65.1890802  39.1958570  11.4248979
  34.6819520  50.6611872   0.8004063  34.7283411  49.8449516   1.2982440
  34.1021371  51.2228441   1.3147874  97.6147616  87.7849263  84.2057878
  97.9479706  88.2911939  84.9466640  96.8997061  88.3159060  83.8551003
  63.0651760  24.2447639  20.1120734  63.9154291  24.1466022  20.5406284
  62.5383186  24.7433805  20.7366037  32.9347110  50.4566336  44.4354105
  33.1599689  49.7410917  45.0299644  33.4692597  51.1927271  44.7331667
  61.8041515  82.3190594  33.4559798  62.5630856  82.3579121  34.0379930
  61.5069008  81.4108086  33.5103202  70.1470709  82.8333473  15.2507210
  70.1175737  83.6843681  14.8135316  70.4028177  83.0352020  16.1507666
  51.4268160  61.7816877  19.2196751  52.0444727  61.9799280  18.5158062
  51.8830967  61.1411953  19.7653949  55.6233501  52.6050806  22.6529050
  56.1246204  52.9233646  21.9021344  56.0839319  51.8130589  22.9300213
  53.2945490  28.3132029  27.6309752  53.5294724  28.7586975  26.8169880
  53.8723373  28.6980271  28.2899928 104.5049095  39.8579979  10.9823442
 103.6284924  40.0886345  10.6742215 104.4345188  38.9383221  11.2382257
   1.7689808  73.1146097  12.4650967   1.0026949  73.0472755  11.8954444
   1.7349438  74.0077162  12.8077781  67.1479130  62.6139212  27.8434014
  68.0237007  62.2370958  27.9284763  67.0535517  63.1765366  28.6120272
  58.8921070  38.8424277  10.6494725  58.4852791  38.1919932  10.0770569
  58.1560230  39.2706418  11.0865569  19.9793373   6.5510793  91.5738505
  19.2793022   7.1052260  91.2287277  20.2089535   5.9738727  90.8456063
  49.7976351  38.8185215  12.4071896  49.6426296  39.6879530  12.7763712
  50.6866360  38.8628244  12.0551205  19.4966542  29.7029061  70.6648975
  20.0284182  30.1159711  69.9845749  18.6124789  30.0369115  70.5135852
  59.4109726  34.4781446  33.2229328  58.7182236  33.9386272  33.6040545
  58.9861536  34.9362898  32.4977660  49.2154026  14.5132828  38.7795663
  48.4144020  14.9891174  38.9991403  49.0978384  14.2554688  37.8652692
  91.3361132 101.5683503  71.0677439  90.3910601 101.5968556  71.2170630
  91.5454733 100.6348795  71.0356504   0.5111079   3.5067698   2.8022581
  -0.3013258   3.9672494   2.5921592   0.4866684   3.3996218   3.7531283
  16.0054003   8.0786223  92.0414448  16.5474736   8.0866380  92.8303195
  15.1853358   7.6699967  92.3184848  69.2957497  70.3146648   1.5500076
  68.5980892  69.7495699   1.8819278  70.0811100  69.7682619   1.5797834
  55.9239483  36.2441516  33.7585855  55.4025459  35.4922795  33.4774065
  56.8231344  36.0124135  33.5262132  57.5320387  26.2778091   8.8905758
  57.4243736  25.3656983   9.1601944  57.1120977  26.7842507   9.5858437
  90.4107380  35.9123087  13.3367431  91.0938931  36.4254403  13.7682819
  90.0324154  35.3803992  14.0368688  60.0993967  35.9245968  13.6068749
  59.9745703  36.8509746  13.8129687  60.0125933  35.4780531  14.4490731
  48.2564306  52.1614885  31.2785983  48.8131666  52.8914976  31.5494633
  48.3589935  51.5113449  31.9735980 101.1066723  39.5484614  43.1041479
 101.1607742  39.5753336  42.1488571 100.1700497  39.4795609  43.2891512
  49.7170973  30.1763248   2.4045496  50.1829433  30.1545119   1.5686429
  48.8095236  29.9729252   2.1783340 108.1906807 108.9552302  89.1946769
 108.6973917 109.7064823  89.5030504 108.4979737 108.8101096  88.2998341
  63.0678797  34.4033432  11.8108535  62.7067757  35.2898145  11.8100810
  62.6039219  33.9563417  12.5187814  77.1378946  43.2295847  48.4705830
  78.0136204  43.5329914  48.7099123  76.7815685  42.8638029  49.2801952
  72.2238398  77.1520472  17.2055864  72.2823715  77.0825195  18.1584620
  71.3466978  77.4996376  17.0442307  13.1541310  55.4555702  21.1265182
  13.8826714  54.9399900  21.4723969  12.5344239  54.8041916  20.7980323
  75.6403732  36.3640165  10.9956443  75.3020287  36.3995314  10.1009417
  76.5629768  36.6051316  10.9125626  48.5771418  71.5737724  12.1807504
  49.0740395  72.1913958  11.6442156  47.8440475  72.0872068  12.5201476
  69.4588804  60.0887394   2.0435929  69.5306969  59.6507120   2.8916538
  69.7170830  59.4221020   1.4070721  80.4271984  81.3786125  35.0942540
  80.8934307  80.6350708  34.7121525  80.9095097  81.5768814  35.8969402
  73.4841299  83.1624413  13.6868906  73.4630823  82.7718830  14.5605350
  74.3239403  83.6202049  13.6493444  58.3529902  26.2120676   3.8471034
  57.4273205  26.2380910   3.6048514  58.3514690  26.2512422   4.8035002
  45.2150059  30.7060456  26.9714475  44.2597008  30.7497406  26.9300747
  45.4211473  29.7899771  26.7855477  36.5484023  85.4017639   4.4450086
  37.3433638  84.8738003   4.3707034  35.8796048  84.7866344   4.7459340
  71.5912962  59.6013546  19.3356061  71.5191460  59.5042992  20.2851343
  71.2990379  60.4964399  19.1634464  68.6908197  40.5478096   2.8895226
  68.5778332  39.7382855   3.3876565  69.5655537  40.8552551   3.1273213
  43.5924387  58.5633945  30.0853181  43.4783697  57.6246357  30.2334642
  43.8112450  58.9170790  30.9474444  38.2089448  61.9293690  33.8383389
  38.4756207  61.0100794  33.8429928  38.7721968  62.3454523  34.4909143
  37.8995405  20.7237477  82.2525126  38.0043207  20.1788754  81.4725333
  38.1473194  20.1520200  82.9791242  47.2999525  66.4507437  20.3605580
  47.7306843  66.6459513  21.1927819  48.0150986  66.2112665  19.7711122
  63.1999731  76.1452246  36.1948967  63.0054188  75.3715324  36.7238379
  63.6054230  75.7967710  35.4009032  31.8032050  42.8577042   1.3945004
  32.1083760  43.7188816   1.6799390  32.5226855  42.2647142   1.6111636
  70.0509119  60.9442854  17.1598756  69.5921230  61.6854525  17.5553751
  70.4552269  61.3060522  16.3712752  65.1538706  40.4547453  15.8829200
  65.3337097  39.7357130  15.2772129  65.6213617  41.2030840  15.5118775
  17.2707055  93.6803479  81.5901154  16.8298123  93.6830253  80.7405084
  17.1373246  94.5644159  81.9319659  53.2057714  40.7035065  19.7003376
  52.3401451  40.5822182  19.3101978  53.0269909  40.9556341  20.6062651
  72.5409031  59.0256977  11.8259275  73.1364441  59.6288681  12.2706151
  73.0955553  58.2906532  11.5645707  16.6393839  14.4522471  77.3122781
  17.3453938  13.9875407  77.7615326  17.0885168  15.0627704  76.7276662
 107.8590786 102.8425927  70.8359891 107.9086411 103.6648554  70.3484851
 108.7386095 102.4709219  70.7687861  62.3651123  68.9308882  33.4753633
  61.6126776  69.5174885  33.3980346  62.0480299  68.0899239  33.1460214
 101.5565897  10.0274177  82.6803773 100.9997965   9.2844052  82.9130643
 102.2065736  10.0685735  83.3818453  79.3132460  75.5432100  87.7942586
  79.4297421  74.8831767  88.4776443  79.1989338  75.0373716  86.9897139
  67.2252989  39.6554112   0.5075701  66.3648605  39.5283556   0.9072360
  67.8209686  39.7597957   1.2495366  49.0184641  51.2831259  13.0344725
  48.5177135  50.7784367  12.3935628  48.3756542  51.8706560  13.4317625
  39.9641228  61.3245869  30.3137398  40.5626106  61.8961287  29.8327136
  40.5371380  60.7164383  30.7806921  45.1897049  62.4381161   5.7538736
  44.5199728  62.3778820   5.0726521  44.7096205  62.3171949   6.5730977
  66.2922812  69.4105291  36.8680215  65.4868364  69.4166327  37.3851824
  66.8626404  70.0425768  37.3055530  49.2859411  52.4067736  25.4750323
  48.8216639  53.0038166  24.8883343  48.6601019  52.2250462  26.1761236
  45.0366926  48.4757233  20.5587077  44.4941378  48.1786346  19.8282242
  44.4237375  48.5760021  21.2870336  89.6655369  68.9430332  32.6729679
  89.2525768  68.9246225  31.8096304  89.0963936  69.5050240  33.1987786
  80.4691410  33.5019422   1.2589841  79.7553301  33.2979345   0.6547625
  81.0408020  32.7350831   1.2219959  12.9839490  98.0743641  92.3790514
  12.4019406  97.4586243  92.8244339  13.0279324  97.7535672  91.4782813
  91.7853260  40.4221487  19.1474295  92.3425770  39.9639082  18.5183656
  92.3752975  40.6563234  19.8639035  54.2450905  39.4078207  46.5975571
  53.9256763  39.3220353  45.6993103  55.1928568  39.2940664  46.5266323
  81.6011774 103.3102745  62.4925047  80.7075035 103.1271977  62.7824360
  81.9786036 103.8364930  63.1974011  85.1972771  36.7984676  12.7209079
  85.7167721  37.5627756  12.4715245  85.1977444  36.2436843  11.9408774
  61.2195587  27.9563141  17.4565244  61.7358255  27.3066115  17.9335868
  61.6857767  28.7808585  17.5943577  14.0107796 102.7197594  78.2409209
  14.0907738 102.7687735  77.2883302  14.4385216 103.5150332  78.5584336
   8.4968626  27.5760365  38.8113642   7.9441959  28.3409262  38.6509347
   7.9540986  26.9961858  39.3456030  10.3040444   3.5436149  90.8217844
  10.9831320   3.0988736  91.3290122   9.4827448   3.2735963  91.2326187
  53.7922287  20.4522943  13.4270227  54.3630362  19.6914649  13.5344994
  53.0186510  20.2474451  13.9522314  36.1133432  63.8406134   4.3839380
  35.2365351  63.4566355   4.3854430  36.1555910  64.3380070   3.5672095
  55.5579567  69.8387384  35.2945518  55.1674700  70.6554222  35.6056404
  55.3097534  69.1888857  35.9520626  88.2398712 104.1904682  59.7156650
  88.4903013 105.0323099  60.0962120  89.0092432 103.9144177  59.2175704
  20.8450198  24.3355942  49.6326113  21.5418291  24.6498871  50.2087307
  20.0767088  24.2699838  50.1997328  47.7868414  49.3567848  20.7233310
  48.1045151  49.7209167  21.5496016  46.9952679  48.8747358  20.9626389
  77.4917984  28.9575696   3.8522729  78.3942890  28.9631557   3.5333535
  77.0335770  29.5779133   3.2853162  63.4703016  43.4104300   5.5752182
  62.9860210  43.2572174   6.3865304  63.8337898  42.5545835   5.3479892
  23.9850831  76.0180664  11.8275630  23.7845135  76.5185833  12.6184416
  24.4868755  75.2656555  12.1411097  38.6688900  49.8070049  27.8795290
  39.1504574  49.3797731  28.5879064  37.8503919  49.3148756  27.8155088
  60.1185226  72.6296663  25.7859373  60.0235605  73.5821438  25.7872915
  61.0391331  72.4810553  25.5699968  48.5242653  72.0710945  18.8745284
  48.3560228  72.8213882  19.4446051  47.9648495  72.2193861  18.1121027
  81.5974426  47.6377010   5.1528716  81.4276409  46.7828035   5.5485368
  80.7303810  48.0292511   5.0473583  48.8066816  24.5640707  19.9938095
  48.1244802  24.0124655  19.6109736  48.3276272  25.2611828  20.4418874
  55.8205223  31.5894747   1.7753907  55.7628918  32.3238111   2.3866665
  56.7050266  31.2446976   1.8979181  58.3395767  32.6811838  63.5438967
  58.9221716  31.9225645  63.5801172  57.9609299  32.7344942  64.4214010
  48.2879162  52.4262285  17.8320146  47.4635315  52.6054144  17.3797822
  48.8199520  51.9625235  17.1853745  69.0789318  72.0932007   9.1338867
  69.2006016  71.5853643   8.3316857  69.8919725  71.9668245   9.6229959
  24.8114800  39.4682527  24.6415401  24.0148473  39.9735880  24.4795370
  25.2390647  39.9215627  25.3681135  57.6665640  38.6966252   7.9531175
  57.0259333  38.7802958   8.6593938  57.1750307  38.9032936   7.1581852
 112.8581726 106.5022034  94.3698755 112.3883879 107.0042414  93.7039265
 112.3174965 106.5819973  95.1557068  43.5809183  63.6017179  23.5029387
  43.3145857  62.7354765  23.1948423  44.3385077  63.4340906  24.0634656
  45.1558590  64.3076038  31.7765999  45.4055119  65.0618172  32.3105168
  44.2449903  64.1359854  32.0155549  50.6917667  62.8871822  21.5151143
  51.0342836  62.5244474  20.6982088  50.8263779  63.8313055  21.4329720
  63.6285448  62.1563292  19.0830946  64.5043945  62.1699047  18.6971736
  63.3929253  63.0795240  19.1749036  69.8364830  67.9785776  11.7820144
  69.5063305  67.3487043  11.1413217  69.1343641  68.6235094  11.8676102
  81.6470146  57.6915264  24.9459529  82.0941067  57.6235056  25.7895827
  82.2699833  58.1485319  24.3808961  58.3279562  89.7432423  30.8705854
  58.8762569  89.6895218  30.0878263  58.0972576  88.8346672  31.0642314
  42.3731565  22.6382589  15.3279197  43.1451702  23.2006359  15.3908050
  41.7565584  23.1369853  14.7919047  85.1464844  19.4983935  22.1778417
  84.6812916  19.4745529  21.3416243  84.9448776  18.6574101  22.5881314
  60.4983807  58.0195284  16.8850374  60.5686378  57.3212290  17.5359392
  61.3621330  58.0513954  16.4737678  53.1794453  44.2616796  27.7313852
  54.0324020  44.4245195  28.1340957  53.0371714  45.0153351  27.1586800
  46.0651684  61.3684082  40.7221746  47.0173931  61.4039040  40.6313801
  45.9089947  60.6416845  41.3252640  41.1969649   0.7011743  84.7719580
  41.9880854   0.5980582  85.3008538  40.7937275  -0.1669459  84.7723967
  26.0510969  63.2771444  24.8183107  25.1823902  63.0389595  24.4945097
  26.3864803  62.4742365  25.2171707  35.4076277 110.1714662  24.8172212
  34.6552931 109.7447407  25.2272582  35.9065663 109.4539250  24.4267988
 108.3669436 107.2613758  51.6723090 108.2088148 107.3371405  50.7313090
 107.5126755 107.4234433  52.0725471  37.4130869  56.0922575   0.6617271
  37.3377299  55.2683210   1.1430606  37.3726630  55.8359575  -0.2596348
  50.1279449  62.0630312  36.9978476  50.9729862  62.3782301  36.6772461
  50.2188873  62.0610619  37.9507160  41.9744825  52.2719955  36.2344527
  41.5102768  53.0832911  36.4407206  41.3748980  51.5771866  36.5064287
  38.3300304  47.8298998  19.2495465  37.4054575  48.0522585  19.1402137
  38.3225107  46.9364643  19.5929790  42.3684311  57.0397043  21.4499021
  43.1087446  57.2721815  22.0103717  42.5070238  57.5443888  20.6484556
  82.8489685  26.4599514  22.6186705  81.9597435  26.6789198  22.3401546
  83.3400154  26.3684940  21.8021321  95.2786886  95.4456467  89.5301378
  94.4384920  95.0022406  89.4131368  95.8984291  94.9225182  89.0217161
  60.1011038  45.5858898  23.1865835  60.3539133  44.8290110  23.7152219
  60.2886391  46.3409233  23.7442446  45.9762526  57.6734161  25.3605223
  46.4995337  56.9277477  25.0666070  45.0986242  57.4989939  25.0205493
  63.4442234  58.9302874   4.5673728  64.0417480  59.4228601   5.1300240
  64.0105295  58.3257008   4.0877885  68.4536266  93.4562111  19.5515442
  68.2309198  94.3446350  19.8296428  69.4063854  93.4656811  19.4598877
  25.2823234  41.1011934   3.7821147  25.1170135  41.2201929   2.8468376
  24.5599937  40.5509281   4.0848982  48.6138439  52.9624462  22.9478693
  47.7333546  53.2159662  22.6709223  48.5819817  52.0073462  23.0026603
  27.7629232  59.3260002  28.6271286  27.7877760  58.7109900  29.3601918
  27.5466657  58.7848854  27.8677464  45.0455284  50.2704191   0.3298504
  44.6169567  49.6783876   0.9479605  45.3288937  49.7035646  -0.3875159
  55.1554918  41.9600868  23.6399245  55.4123354  41.1248970  24.0307260
  55.9699631  42.3214149  23.2902026  14.8378778  92.1672630  31.7424464
  15.7428694  92.1594715  32.0541525  14.9127829  92.1360588  30.7886910
  54.0039396  68.1057787  23.5540962  53.3398867  67.9130602  22.8921819
  54.6814394  67.4444103  23.4133267  82.5855314  78.0516953  76.3762015
  82.6451170  78.3573455  77.2813314  82.5278294  78.8531679  75.8560627
 104.0585387  66.4222700  92.0928955 103.4746468  66.7695517  91.4185855
 103.5347283  66.4367515  92.8939226  48.4011698  32.1473813   7.4466765
  48.8858747  32.6639485   6.8028998  48.4611559  32.6554871   8.2556653
  14.8563707  45.1192474  49.8339796  15.4378045  44.4090652  49.5623064
  14.1730094  44.6867180  50.3460073  69.9897146  79.3349934   8.9004076
  69.4772482  79.7213364   9.6105796  69.3517065  79.1724825   8.2055956
  34.5908093  49.3991566  30.3859186  34.9467754  48.5805702  30.7315159
  34.2132807  49.8371124  31.1487412  58.0586386  30.0270295  18.9741755
  58.0887461  29.3274450  18.3215606  57.5523567  30.7233095  18.5557246
  66.8671620 104.8992533  89.6103549  66.6595757 104.4384093  90.4232260
  67.6329982 104.4411272  89.2641645  56.8829536  50.4506588  32.5489616
  57.4315500  49.7799110  32.9556251  55.9866142  50.1795435  32.7472043
   1.2289918  47.8684521  24.7029614   0.9564987  47.7582598  23.7920070
   0.4837047  47.5552034  25.2154613  70.2929211  37.5288510  43.6675024
  71.0646009  37.1102524  43.2860422  69.7050047  36.8027997  43.8759184
  70.2470684  34.7677970  28.0972314  69.3325281  34.4853234  28.1046152
  70.2741241  35.5076814  28.7039185  16.5433394   0.7540412  81.7525238
  16.1123549  -0.0441461  82.0581096  17.2997271   0.4425473  81.2554520
  86.5329230 103.2091040  87.5898218  86.4089930 102.5519556  86.9049668
  85.8404505 103.8512463  87.4337172  86.7772579  52.5243378   9.0375012
  86.2620258  52.9385853   8.3452785  86.3634396  52.8145552   9.8503757
  77.6383162  87.5167084  18.1594181  77.0637321  87.1103096  18.8082087
  77.6327229  88.4471893  18.3839428  55.8306646  37.0821142  54.4819117
  56.6373062  37.5845313  54.5965290  55.1378298  37.7423263  54.4636106
  70.2984238  72.2972488  38.8989711  70.7705164  73.1123590  38.7288189
  70.7673550  71.6376829  38.3877873  58.9913797  47.7121735   8.6135787
  59.9315119  47.6566839   8.4423947  58.8713503  48.5729837   9.0146178
  84.0832996  49.8061371  34.3658471  84.1304016  50.7063150  34.0438318
  84.9919987  49.5053434  34.3698645  48.3545780  62.6030016  29.5474410
  48.8409710  62.5870037  30.3716969  47.4346924  62.6007462  29.8120832
  57.9652691  33.5231352  18.7684727  57.4315834  34.3088055  18.8873410
  57.4296045  32.9505348  18.2194483  65.5968046  57.7603054  22.0864153
  64.8904848  58.3260584  21.7745423  66.3164377  58.3607388  22.2809315
  78.7103331 101.1441988  90.6326154  79.0184986 100.3928847  90.1258686
  78.5791933 100.7997269  91.5160030  55.5291830  24.9754281  91.7946276
  55.2538668  25.8695645  91.5922671  56.2432658  25.0811620  92.4232188
  23.6366081  50.4767561  19.5057094  24.2570591  50.8619070  20.1245260
  23.8977480  49.5578480  19.4453251  63.0332136  18.9471638  44.0471840
  63.0867338  19.8615587  44.3251276  63.4297419  18.9380312  43.1760263
   5.7062327  20.4682155  92.0229256   6.1848580  21.2967391  92.0492667
   6.0467230  19.9711604  92.7667247  78.7870550  52.8910255   1.8709947
  78.2236576  52.5936937   1.1565650  78.9492750  52.1042156   2.3914245
  57.7592754  60.8642673   0.7250638  58.4763479  61.3462257   1.1370821
  58.1754065  60.0856304   0.3552165  40.5374098  43.0521345  18.0031264
  39.6176696  43.0522251  18.2682908  40.5269814  42.7281952  17.1024668
  33.2301521  28.8603592  14.8845291  32.8151131  29.5657873  14.3881977
  33.3738875  28.1668711  14.2405999  28.6168766  51.3085270  12.1649396
  29.0045905  50.4478455  12.3234725  27.7394009  51.1184883  11.8330503
  49.7381783  58.8984776  19.9684417  49.9670935  58.8851738  19.0391123
  49.3286228  58.0478668  20.1264310  66.5244484  67.0161009  11.5213454
  66.4182949  67.9661226  11.4721084  65.9035778  66.7403555  12.1956694
  35.3445482  42.9687119  20.3912592  35.6513739  43.6462927  20.9937310
  34.4004488  43.1135654  20.3286219  10.2639639  66.0566711  10.6659460
   9.6887231  65.3390408  10.9311521  11.1376035  65.6663799  10.6403303
  59.6437788  32.9004669  12.0689988  58.9531231  33.1235671  11.4449346
  59.2235327  32.9697394  12.9262185  74.6009791  74.2890317  92.6938386
  74.3190419  75.1969570  92.8052683  75.2308571  74.3204910  91.9737732
  33.0300999  48.0445004  40.0275135  32.4517131  47.4834585  39.5108604
  33.4693646  47.4448919  40.6306314  42.5634670  13.6525500  11.2070036
  42.9372835  14.5259070  11.3242316  43.3101988  13.1020832  10.9711778
  60.7951927   8.6226767  21.8262863  60.0152588   8.1406313  21.5513873
  60.5934429   8.9184529  22.7140069  45.2906990  73.2590914   1.1498656
  45.7019567  73.0960321   1.9986930  44.5119286  73.7759161   1.3563733
  79.8853064  55.8319139  24.3148303  79.8187065  55.1791954  25.0117922
  80.5698776  56.4310932  24.6124458  63.4028196  63.5110283   8.0153680
  64.1986704  62.9971170   7.8784472  63.7185097  64.3884754   8.2313740
  85.0704098  59.4441414  43.6639404  84.1246700  59.4340944  43.5166121
  85.3802109  60.2091932  43.1792259 107.6978028  84.8622889  83.1135660
 106.9400751  84.5166058  82.6417726 107.8471243  85.7252926  82.7273553
  73.2631111  39.6403646   3.7557581  73.2491207  38.7881017   3.3202296
  73.9953279  40.1046371   3.3501187  45.8937883  58.8786411  32.6868773
  46.6920328  59.3998241  32.7729297  46.1342907  58.0150080  33.0223274
   6.0611222  99.9032492  87.9121494   6.2260602 100.8232636  87.7057367
   5.1787160  99.8954529  88.2829916  59.7272396  44.8736763   5.6986386
  59.7629547  43.9344311   5.8796740  60.6404352  45.1587296   5.7310116
  46.4846420  51.9334888  49.7467375  46.8899536  52.0973730  50.5982637
  47.0794201  52.3396158  49.1162348  84.1792965  77.2119379   8.3082271
  83.8640690  76.4014530   8.7082070  83.6921597  77.2789860   7.4869895
  59.8804998  27.8144360  31.9677925  60.7085514  28.2816219  31.8569112
  60.0253963  26.9670081  31.5469599 112.2619574  72.3078680  14.6046388
 112.3479854  73.1217718  14.1082609 111.3205077  72.1357203  14.6210754
   3.8010285  94.5281095  94.3461879   3.4296582  95.3932709  94.1735283
   4.6859143  94.7064967  94.6646021  54.3148756  58.9852047   5.1079983
  53.4418583  59.0791750   4.7268975  54.9094820  59.2901134   4.4226438
   5.2057587   2.3472066  93.7708922   5.0371682   3.2571740  93.5264201
   4.9281107   1.8390555  93.0087080  82.7249336  83.7874126  44.1638374
  82.5800896  84.7104740  44.3716812  81.9012070  83.3578587  44.3944359
  47.6169443  74.1091204  27.2836614  47.1851635  73.2933950  27.5374246
  48.1588936  73.8694525  26.5319419  62.4824858  90.5689049  38.2651997
  61.9902134  91.3878536  38.3219910  61.9231129  89.9885178  37.7489877
  72.9917383  41.8679857   6.4005780  73.4914732  41.1317492   6.7533547
  72.2218847  41.9278717   6.9662404  92.3939991  30.8037353   8.2977682
  93.2767105  31.0618663   8.0324012  92.4712849  29.8747492   8.5151219
  48.2486057  81.7210102  24.5633483  49.1715908  81.6489410  24.3201613
  47.9692793  82.5601673  24.1972661  77.1927881  56.0396194  13.3879411
  77.0973444  56.6652155  12.6697803  77.7682972  55.3594160  13.0381620
  41.1557770  22.3565292  35.4062986  41.1530256  21.6947985  34.7146797
  40.3702450  22.8781748  35.2418065 109.0032531  15.3782792  62.8204494
 109.3602014  15.3472896  63.7080627 108.1897975  14.8763938  62.8717643
  72.0409966  26.1953282  16.6611457  72.6842403  26.4442253  17.3248625
  71.2107038  26.5380335  16.9918942  43.8360834  34.8088002   9.8449624
  43.0511808  34.9584270   9.3179262  43.6124182  34.0626240  10.4012215
  49.5203400  90.3594971  11.6957116  49.9845219  90.1238918  10.8924341
  49.0908337  91.1896801  11.4894259  90.3646469  76.5137911  27.6163673
  91.1666775  76.0052919  27.7364111  90.3527832  76.7255783  26.6829658
  66.5375328  79.7797108  11.6339517  66.0401726  80.1099396  12.3821568
  66.7261791  78.8677931  11.8554270  76.1890078  90.4347897  34.0453792
  75.8979177  90.4033089  33.1340551  76.3856697  91.3583374  34.2022300
  28.1816554  59.3987799   6.2705147  28.9220047  59.7865057   5.8038402
  28.4098554  59.4857264   7.1960402  70.7829571  47.8085947  17.8995287
  71.3214540  47.6168251  18.6673021  71.4136553  47.9432583  17.1922004
  67.7422237  51.6866732  21.2242222  67.5509930  52.5469589  20.8506322
  67.0314312  51.1266565  20.9121466  69.0952969  51.8793917  13.8313508
  69.9254370  51.4076757  13.7636805  68.5114002  51.4249706  13.2240605
  23.2327639  23.9274259  67.1704489  24.1631590  23.7795825  67.3399716
  23.0032049  24.6715970  67.7269965  92.7544689  60.1518726   1.7751315
  92.4135208  59.8971558   0.9177496  92.5249577  61.0773706   1.8588454
  14.9517142  38.2892938  92.7736129  14.1615044  38.7812276  92.9967680
  15.2081810  38.6248822  91.9146359  12.6436650   3.1524367  73.7712222
  13.0943333   2.9473777  72.9520279  12.5336300   4.1031070  73.7525755
  86.4143181  66.5246630  12.3659790  86.4434814  67.0980978  13.1318450
  86.3497639  65.6417942  12.7301311 106.5199566  81.1106873   5.2817029
 106.4864254  80.9745502   6.2285781 105.7246971  80.6927872   4.9513301
  71.0218668  54.1740561  25.9711552  71.6598558  53.7233829  25.4178953
  71.5494394  54.6008682  26.6462302  61.4104271  75.8588266  25.4891610
  60.5764532  75.8288288  25.0203156  61.5648413  76.7907381  25.6438613
  81.4644623  68.6224890  14.2246473  82.0642281  67.8840828  14.1184616
  80.8598995  68.5481071  13.4862661  48.5701227  59.7624016  29.1784215
  47.8970671  59.4922113  28.5537410  48.5620022  60.7188177  29.1405010
  62.1076727  59.7072792  28.5754752  61.1522675  59.7480822  28.6176229
  62.3103619  59.7964716  27.6442432  54.2180777  79.3826818   1.0642733
  54.1945791  78.4313583   0.9610181  54.7628546  79.5262241   1.8381239
  41.1668634  83.4421253  54.0936804  41.9911623  83.7790775  53.7426424
  41.3067770  83.4051895  55.0398779  70.8655691  79.6671915  36.9470453
  70.6900215  80.4663849  36.4503479  70.1205111  79.5867920  37.5425768
  70.8896589  83.4979343   1.4867581  71.7508316  83.2893944   1.8488571
  70.9429216  83.2262611   0.5704682   1.1205159  70.4577589   7.6455164
   0.3688393  70.5318451   7.0575291   0.8113346  69.9016190   8.3606005
  46.5819788  52.5551271   0.1823588  45.9379864  51.8524456   0.0943822
  46.9297457  52.4517679   1.0681383 101.0769570 100.9395451  84.4702297
 101.1817801 100.6496901  83.5640138 100.4094898 100.3568310  84.8323947
  46.1715269  46.1867571  26.5210533  46.3956165  45.5985498  25.7999229
  46.6185188  45.8147287  27.2813296  52.4947071  81.4852619   4.8416024
  52.7245522  80.5632401   4.7263899  53.3367920  81.9377804   4.8900542
  80.6474686  57.7957296   1.6709894  80.8526993  58.7274456   1.5934382
  79.7680092  57.7127075   1.3023497  71.1297607  36.7569065   7.3954546
  70.2465296  36.5650749   7.0802754  71.6226530  35.9530401   7.2308773
  70.9433603  64.4531298  36.4458895  70.9781361  65.4096842  36.4505506
  70.6294966  64.2291307  35.5697918 115.6788540  69.4727516   5.9134102
 115.2408028  68.9147711   6.5560657 116.5208817  69.0445805   5.7588679
  60.4908323  58.1423569  22.4237013  60.7191420  58.9367867  21.9410038
  59.5469046  58.0475903  22.2962213  32.2419071  56.0406685  24.5835829
  32.7780676  56.7211485  24.1765046  32.3861670  56.1522198  25.5232501
  52.7121210  57.9630375  12.9025137  52.1243715  57.2103977  12.8367591
  52.6875591  58.3627796  12.0331264  45.4732323  55.4676437  22.8018117
  46.2598848  55.3499222  23.3343029  44.9493551  56.1056852  23.2862568
  60.9003782  50.4842901  18.1356335  61.1222649  50.3934479  19.0623200
  61.7452669  50.4824257  17.6857543  75.5017567  69.0504026   2.2365004
  75.0137424  69.0030909   3.0585930  76.2143421  69.6638012   2.4159361
  63.6298943  82.5465488  35.3649879  64.4452477  82.3462200  34.9053240
  63.8598061  82.4976635  36.2928772  57.9999065  81.1837101  20.0178528
  57.2146749  81.0894012  20.5570626  57.8015566  80.6959152  19.2185080
  33.7182665  44.7331285   8.3870727  34.4764733  44.8476791   8.9599878
  33.0934834  44.2343616   8.9134836  78.5322332  38.4972191   1.4065237
  78.3033085  37.6860571   0.9528275  79.2251062  38.2433176   2.0161858
  28.7449251  26.0856576  69.6444136  29.2685734  25.5041451  69.0931731
  28.0146204  25.5420632  69.9400216   5.4164671   1.0305167   8.1899077
   4.5132040   1.1128665   8.4958005   5.9075426   0.7561446   8.9643729
  82.2846699  76.3914585  38.7932086  82.9377174  77.0442629  39.0454173
  81.8291092  76.7837620  38.0483603  73.2137585  73.1631374  27.5976300
  72.9604721  72.9717016  26.6946173  74.1573048  73.0036831  27.6206613
  51.2388754  53.8753271  24.2070484  50.4899073  53.3153152  24.4111681
  51.7122889  53.4021521  23.5227847  66.7283201  78.2236147  36.0399294
  65.8880806  78.5463810  35.7142806  66.8292427  77.3638725  35.6314135
  75.9624529  49.6634054   8.6124802  75.4317474  50.2965832   9.0958714
  75.3240585  49.1046286   8.1692499 108.3336603 101.4995522  80.3775114
 108.5090792 102.2764391  80.9084648 108.1203854 101.8450350  79.5106846
 116.4138317  73.8044500  10.5826461 115.7569504  73.1613779  10.3158271
 117.0891953  73.7516880   9.9063754  62.8064156  20.0470972  11.6646290
  62.6406336  19.1426933  11.3985479  62.7731609  20.5466986  10.8488321
  43.4073496  95.4251099   3.2069898  43.5054588  96.3313770   2.9149243
  42.4896097  95.3563023   3.4701499 109.1023266  95.7412571  83.8393587
 108.5836041  95.5164236  83.0669552 109.4870245  94.9107642  84.1195673
  52.6116991  74.1642475  26.2716937  52.1835566  74.0039062  27.1126556
  53.5416651  74.0175962  26.4445686  57.3041964  43.7067413  27.0243883
  56.5223360  43.7491465  27.5749612  58.0344486  43.7630320  27.6406670
 109.2544460  81.4806080  52.3969889 109.3974590  80.5908489  52.7196598
 109.8975658  81.5874767  51.6961288  71.5215397  52.5189304   0.5752918
  71.3068056  52.9307604   1.4122617  70.7314777  52.0336819   0.3374425
 100.7044375 107.4367375  89.5946526 100.4861986 108.3578295  89.7367626
 101.6602289 107.4076599  89.6376669  82.7720356  55.8366489  12.7304876
  82.6666355  56.1210060  13.6383772  83.4093571  56.4475870  12.3606086
   9.3036019  15.4594846  92.3524526   9.1140734  14.5557494  92.1003070
   8.8509785  15.5749888  93.1879294  42.4335670  73.7875986  11.0974848
  42.7151442  73.2959080  10.3260016  43.1247377  73.6376524  11.7424846
  51.4162813   3.7470288  84.4677192  52.1633993   4.3052144  84.2521447
  50.7080160   4.0689225  83.9100629   5.4986725  52.6644659   2.2516583
   5.8594189  52.1060133   1.5630195   5.7115422  52.2084618   3.0658913
  74.4516897  91.7535496   2.7503452  74.1664696  90.8408165   2.7079013
  74.9925423  91.8720245   1.9695282  80.3384077 109.7748608  88.2536667
  80.8331549 110.5804056  88.1034785  80.9711182 109.0731091  88.1005257
  41.7033911 108.1222630  25.5224013  41.1150217 107.4240112  25.8096266
  41.6396618 108.7865639  26.2086034  53.7474585  69.7807598  25.5228591
  53.7148380  69.1542482  24.7999120  52.9398441  69.6240854  26.0121918
  46.3611364  43.8920546  16.1748922  46.5977955  43.2840061  15.4745317
  45.4047918  43.9246464  16.1507833   4.4933974  51.9179387  82.6435751
   4.9328934  51.1037965  82.8890329   5.1522051  52.4063630  82.1499675
  38.6093473  60.4395103  27.9946446  39.0425825  60.7659149  28.7833118
  37.8983593  59.8888016  28.3224368  74.4226503  70.9946537  22.0392156
  74.3512726  70.0443172  22.1286321  75.2518272  71.2136221  22.4643588
  50.1606642   5.0993962  91.0638502  50.8499895   4.9419732  91.7090547
  49.5238863   4.4016929  91.2186068  78.3333492  48.6062384  21.0148549
  77.5518227  48.3987617  21.5271068  78.3311510  47.9649687  20.3042197
  48.7109852  12.8340530  20.2944040  49.4532919  12.2329080  20.3563261
  48.4669781  12.8187943  19.3689525  68.5486031  42.0180273  34.5369816
  68.2717323  42.2123146  33.6415339  67.8124142  41.5382385  34.9165392
  89.2782021  81.5424156  14.5126450  89.1230297  81.8456459  13.6181033
  88.9141273  80.6573677  14.5320725  68.1268835  79.5368862  26.3902211
  68.9349365  79.0629482  26.1935949  67.8953886  79.2583370  27.2762513
 111.5253258  83.4647751  11.1126077 111.1968327  84.2432404  11.5623951
 112.4207878  83.6925793  10.8626175  70.6238461  79.4376230  12.9746187
  70.8525753  78.5081625  12.9792440  71.4382267  79.8835325  12.7418578
  52.1370970  36.4306207  92.1804282  52.8720461  36.0226865  91.7225221
  52.5465571  37.0309682  92.8034508  81.0778046  68.7929583  39.2918801
  81.4789009  69.2920351  40.0034094  81.1428452  67.8803253  39.5731425
  82.3438549  81.9433498  19.3314970  82.0633507  81.6798687  18.4550679
  82.2905922  81.1413097  19.8512411  58.9909506  85.5899239  34.0512919
  59.5683336  85.6257153  34.8139048  59.4765520  85.0745869  33.4072018
  17.6682508  79.1814661   7.6104832  16.8724644  78.6696863   7.4654526
  17.4076021  80.0851440   7.4325579  63.6294270  66.6120148  22.3480487
  64.2509556  67.3347664  22.2610593  64.0503454  66.0062647  22.9580688
  86.9344807  40.3960991  33.5093951  86.3273811  40.2049875  34.2243338
  86.4297962  40.2246523  32.7143312  91.5256310  53.2725620  28.8343382
  91.8383026  52.9589653  29.6829438  90.7369328  53.7743521  29.0402079
  76.0257339  73.6401415  21.5726566  76.2300825  73.1044960  22.3391771
  76.4662313  73.1978083  20.8470273  44.6929121  82.5116825   4.1310886
  45.4667997  82.1865654   3.6710539  44.6018410  83.4176731   3.8359514
  74.3134642  84.0866661  29.3703842  74.2671728  83.1359959  29.2688203
  74.7199249  84.2164898  30.2272224  85.7977676  21.8279266  13.7007236
  85.3227711  22.3820376  13.0813873  85.2041912  21.0967851  13.8719893
  77.7120924  65.6164026  55.7432985  77.4114180  66.5242863  55.7829094
  77.0553684  65.1248646  56.2365913  65.0859690  72.5126266  19.5094967
  64.5019960  72.0397902  18.9165103  65.0538254  72.0135975  20.3256893
  66.1967945  57.6834822   1.7052552  66.0876322  57.2789621   0.8446298
  65.5461884  57.2502899   2.2577843  71.0643721  40.1960802  21.2450719
  71.5016317  40.7586956  20.6059289  70.1385975  40.2353954  21.0050273
  56.0768747  79.6083593  29.6830344  56.8591070  79.3935156  30.1911569
  56.1818838  80.5336094  29.4614077  71.9556761  53.0650425  52.0414591
  71.7503643  52.1596241  52.2744751  72.0221710  53.5193300  52.8813601
 104.8041737  80.2748842  89.3400663 105.4483902  80.1434511  88.6444062
 104.0372908  79.7791261  89.0531128  65.3961182  67.5084066  24.4457698
  65.2031183  67.6856470  25.3664041  65.5283070  66.5611792  24.4068146
  93.6428261  58.7598419  15.4390776  94.4718552  58.8992596  14.9813557
  93.8495636  58.9130116  16.3610482  71.3528252  53.2584858   7.4458224
  72.2724676  53.1501722   7.2034127  71.2370396  52.6892900   8.2066387
  45.4517317 103.4807205   8.5336554  45.7975960 102.8290653   9.1435307
  44.9480772 104.0803719   9.0840989  54.3656063  73.8243866  30.7339382
  54.6333647  73.5017538  29.8734450  55.1348686  73.6943102  31.2885070
  94.8536015  69.1391087  22.1938300  94.1448879  69.6272373  21.7746758
  95.6324482  69.6766138  22.0498633  84.6583080 102.9898357  44.5216179
  84.9434566 103.7563229  45.0190306  83.7202072 102.9238892  44.7001123
  63.7506580  77.9711437  26.2105441  63.9063883  78.7546206  25.6831527
  64.1855383  77.2676802  25.7286167  83.9602661  55.0147438   9.7141051
  83.5573673  55.7607508   9.2698354  83.3563137  54.8055840  10.4266477
  60.1408195  88.6901760   9.1522104  60.2767611  89.6365166   9.1989601
  59.1933203  88.5800838   9.2319614  60.8648825  82.0450687  19.3221653
  59.9738455  81.7124653  19.4301462  61.4117718  81.4264679  19.8063874
 107.6238739 106.4323706  94.3721764 107.8931343 105.8057303  95.0437792
 107.2864783 105.8895630  93.6596092  53.1226826  86.1569786  56.2848091
  53.8916826  86.1773014  56.8544245  53.3531380  85.5365086  55.5933332
  58.3867121 103.1822777  16.6296172  57.6773977 103.3813286  16.0184860
  58.0175066 102.5246906  17.2191060  81.3543701  76.4409828  12.8883982
  81.5586948  76.2346649  11.9763052  81.6990185  75.6987143  13.3848679
  59.0778446  74.3382168  31.0234737  58.7106037  73.6194181  30.5089855
  60.0082493  74.1268396  31.1002779  -0.0733222  13.9620490  88.6002868
  -0.4179538  14.7181411  88.1251126   0.8772527  14.0432591  88.5225582
  76.6224384  57.8476524  11.4660001  76.0570002  58.5695791  11.1915219
  77.4964094  58.1020117  11.1698508  44.8687445  24.5977778  82.2431963
  44.9224554  24.1530271  83.0890924  43.9426218  24.5502229  82.0059687
  45.0593935  10.5686326  75.8929246  44.8894106  11.4313741  76.2710982
  44.2798697  10.3780313  75.3711468  71.5946770  44.3739510  32.4131298
  71.8546009  45.0059414  31.7428637  71.5757942  44.8802519  33.2252455
  55.7509518  44.3016338   4.0934688  55.7963228  45.2564144   4.0427980
  55.2948666  44.1268730   4.9166787  70.7484293  38.5809922  18.1104493
  70.5373716  38.3410549  19.0127325  71.1371469  39.4530058  18.1791770
  68.7707186  64.2985535   5.6283903  68.3946609  65.1765442   5.5655611
  69.1976547  64.1597986   4.7829890  81.2017536  47.3647785  36.9243145
  81.3072300  46.7022371  36.2415695  80.4579258  47.0580482  37.4428415
  66.9963932  67.1650457  18.2315063  67.4791574  66.4069939  17.9020667
  67.0271158  67.0731926  19.1837931  27.4433790   3.1600947  83.8865846
  27.3243510   3.1870837  82.9371971  26.8832289   3.8618512  84.2182463
  79.6787357  52.8607559  32.1825457  79.4877958  52.1221638  32.7606964
  78.9906120  53.4982443  32.3731422  70.2190542  85.6575203  31.2903881
  70.2526045  86.5301418  31.6823459  70.8115864  85.7088852  30.5403900
   5.4401265  30.9506536  27.1325350   4.5670853  31.0757542  26.7605352
   5.4986725  31.6028190  27.8307343  95.5231286  11.6862769  73.8570314
  95.9687615  11.5865178  73.0157882  95.3259993  12.6212068  73.9142638
  61.9522238  77.0032644  49.5631742  61.3632059  77.7410555  49.7211361
  62.7537298  77.4043655  49.2271090  74.9392557  75.7110453  13.6560357
  74.1669130  75.5969715  14.2098463  74.5958662  76.0668898  12.8364682
  58.3283520  70.8826065  30.7047081  58.8317013  70.7768440  29.8974371
  57.4188137  70.7461596  30.4394627  60.2558422  33.2036829  20.2623677
  60.9720469  33.2710528  19.6309042  59.4728804  33.4332848  19.7618878
  29.5730816  14.2202420  93.3760947  29.2598425  14.3999381  92.4896270
  28.7780892  14.0486379  93.8808454  53.5426760  61.6959381  16.8940163
  54.1218090  60.9438896  16.7704642  54.1136503  62.4573231  16.7914665
  63.9148951  76.8309450  13.3023226  63.9551020  76.3388824  14.1223788
  64.1398907  77.7277899  13.5498595  34.5639502  12.1105714  88.9365017
  34.6472870  11.5497346  89.7077018  35.4222094  12.0671697  88.5149169
  67.6730490  76.5649986  25.4892564  67.4527884  75.7385063  25.0595737
  67.9708147  77.1326208  24.7783613  48.9826202  73.1094837  30.0610852
  48.2650709  73.7091064  30.2655673  48.6316729  72.5409222  29.3756604
  92.1863747  66.7261362  17.2804511  92.2936630  66.8363619  18.2252121
  91.2391663  66.6788197  17.1508706  74.6593189  49.8166847  11.6348505
  74.1917944  49.1223240  11.1706197  74.5748901  49.5852995  12.5598180
  98.3207321  60.5610609   7.0417589  97.3943806  60.7428217   7.2001261
  98.6048031  61.2603951   6.4531440  31.4704106  94.0350885  67.5661236
  31.2951539  94.5382232  66.7709046  31.5448544  93.1295199  67.2650653
 101.2747669  12.2105169  20.5399394 102.0450401  11.8147242  20.1321888
 100.5486202  11.6430199  20.2813053  46.4815950  41.4810944  28.4327650
  46.8277168  42.2149467  28.9406013  45.9503651  40.9870863  29.0572500
  81.0091686  35.4717064  50.9553099  81.8233967  35.2220321  50.5183554
  81.2515259  35.5686092  51.8762350   8.8359629   8.4154172  89.4987809
   7.9627787   8.5024209  89.1164094   8.7346398   8.7226529  90.3996530
   0.7144319  36.6038270  92.1318584  -0.1949300  36.3054032  92.1472338
   0.8956562  36.8663259  93.0343453  75.7483864  57.5596189   4.7388619
  76.4218664  57.1875620   5.3082776  75.0792837  57.8857136   5.3406894
  67.9197550  87.7430344  38.1287980  68.0334902  88.6888218  38.0350709
  67.9094648  87.4128342  37.2304130  57.5938988  66.9979095  32.4473715
  57.8919983  67.3965120  33.2649779  57.5595903  66.0602283  32.6366210
  63.6966515  63.6531162   2.8468838  63.2313013  63.6428928   2.0104769
  64.6221352  63.6085415   2.6066217  76.2886047  73.9942551  11.5718317
  75.8436966  74.1272926  12.4088418  77.2139883  73.9130640  11.8027163
  55.0709343  61.6490507  20.8621287  54.2942429  61.1999512  20.5285192
  54.7239780  62.3446560  21.4206886  74.2299557  30.8080554   0.6361765
  73.8846302  31.3936996   1.3099734  73.6278248  30.0639653   0.6340696
  82.4609852  28.4867382  15.4729080  82.4344349  27.5314045  15.5264425
  81.5463448  28.7458634  15.3609824  82.2083950  70.8611345  32.9399776
  83.1642056  70.9051704  32.9131770  82.0191193  70.0727081  33.4486866
  60.8676100  63.3545208  35.3171277  61.5849066  63.1317520  34.7237515
  60.4055023  62.5277233  35.4552817  76.7674029  94.4950957  67.8197628
  76.7252791  94.1022820  66.9478947  76.0014760  95.0676579  67.8617579
  20.3510070  88.1317139   2.5390226  19.6822250  88.6943913   2.9293579
  20.2307820  88.2361412   1.5951616  31.4154803  30.8177705  93.2638287
  30.8358370  31.2030454  92.6067075  32.2786318  31.1798806  93.0636430
   5.4351208 106.6316695  85.1916736   5.1121686 106.2504620  86.0081363
   6.3883278 106.5903801  85.2686441  67.0303059  79.2228937  42.9052925
  66.2186766  79.2749739  43.4100533  67.0834160  78.3073854  42.6309633
  71.0055542  51.8635082  17.5091481  71.1566067  52.7080250  17.0846355
  70.7692242  52.0868540  18.4094262   8.0786930  11.0991235  81.8310040
   8.5050951  10.4257960  82.3611396   8.4670769  11.0010905  80.9616476
  69.6560621  70.6180716  28.1849027  70.1446104  69.7963428  28.2329917
  70.0252438  71.1574841  28.8841653  13.0108630  31.0391278  92.3554638
  13.0573641  31.5851064  93.1403044  13.4727942  31.5430303  91.6854393
  57.8999424  73.5568953  28.6092448  58.6311769  74.1724014  28.5575581
  58.3087587  72.7159214  28.8138700  83.9253426  69.7974539  20.8650017
  83.0643368  69.3882370  20.9513044  83.7395954  70.6820965  20.5501437
  60.6330872  96.4646530  40.1992655  61.4946175  96.2087536  39.8698497
  60.3691959  97.1940804  39.6384263  83.6985016  70.1467800  24.9938869
  83.0396843  69.4523859  24.9948955  83.4454727  70.7180643  25.7190394
  73.9292049  89.1548634  54.2061520  74.7297955  89.3311882  54.7003174
  73.6274052  88.3075142  54.5334959 103.7012196  77.7303696  36.1720228
 104.6399307  77.7770758  35.9907031 103.3057785  78.3361292  35.5452013
  41.9769560  12.9938836  85.3826701  42.1185385  12.5642343  86.2262261
  42.5659739  12.5392766  84.7804886  81.5274429  52.1256781  11.5874529
  81.1893272  52.8017902  11.0002792  81.4831257  51.3188267  11.0743594
 107.7272224  66.3217354   6.2969095 107.9590034  66.5302849   5.3919154
 108.3943176  65.6948566   6.5766293  28.5842120  39.3157239  83.2362884
  28.2367836  38.9050527  84.0280431  29.3544709  38.7929196  83.0135542
  75.5783176  55.2861595  15.4199326  76.0207605  55.4784727  14.5931959
  74.9326658  54.6159840  15.1958168  91.1685085  40.0748253  25.7761621
  90.7222462  39.2333913  25.6808996  91.3012314  40.3785610  24.8781872
  99.5348358  78.1094742  23.7195921  99.7821140  77.6141644  22.9387259
  98.8005829  78.6538315  23.4353781  67.2475958  81.0778999   0.1878023
  67.7721977  80.3253460  -0.0854723  66.4605236  80.6936646   0.5739439
  87.1997452  88.3594990   6.8200707  87.7225590  87.6098156   6.5356827
  86.3782883  88.2761383   6.3358325  62.9496908  64.0491199  31.8575859
  62.7297068  63.3019400  32.4139643  62.7448940  63.7552691  30.9699249
   5.4398404  59.7608280  31.3911557   5.9160672  60.5874491  31.4695024
   5.9857045  59.1251469  31.8539476  71.8473387  50.2367830  24.6181417
  71.3026333  50.0621080  25.3856134  72.0591831  49.3697023  24.2724252
  35.5207944  64.2949057  14.6959257  36.4443016  64.0432644  14.7026467
  35.1650667  63.8794756  13.9103627  74.8829651  70.3703403   9.7745091
  74.5357990  71.2608624   9.8262721  75.8255577  70.4727221   9.9059081
  33.6617791  11.4084907  60.6340867  32.7675234  11.0714717  60.5797082
  34.1896092  10.6486077  60.8794552  66.2071085  77.9606915  32.3644114
  66.7303991  78.6176538  32.8235412  66.5149450  77.9993629  31.4588857
  74.0348196  75.9364843  29.9913216  74.9539995  75.6705046  30.0156879
  73.6186600  75.4237223  30.6842279  87.1795273  57.8419876  13.9538169
  86.3085461  57.7119732  14.3289268  87.3384476  58.7821865  14.0375173
  70.6743336  84.1352558  23.2623434  71.0099936  84.0408325  22.3709154
  70.6621456  85.0801563  23.4148479  57.5824928 105.2271748  14.1288090
  58.0074930 104.4835281  13.7014961  57.1299219 105.6841755  13.4198928
  78.2265568  62.9968691  13.5606670  77.6522684  63.7623549  13.5393751
  78.6531782  63.0412340  14.4163871  21.7271506   7.4621148  93.7354021
  22.3840987   6.7730899  93.6358905  21.1327111   7.3348613  92.9960263
  94.8951435  86.0960960  65.8187151  94.3008900  85.8719826  65.1025772
  95.6866646  86.4122772  65.3830957  30.6448780  15.4841132  84.4119352
  30.7929598  14.6569438  84.8702985  30.0241600  15.2650590  83.7169868
  43.2864380  68.3576059  11.7727613  43.7908268  69.1524315  11.5993273
  42.8839016  68.5111237  12.6275289  98.1399536  83.1055069  22.9458714
  98.7115288  82.4504662  23.3464432  98.1021023  82.8575706  22.0221138
  22.3189865   2.6213975  88.9662182  23.1841837   2.4380012  89.3323278
  22.3123013   2.1627708  88.1260699 112.7402306  85.4539204  28.0001402
 113.0259609  85.0434208  27.1840024 112.5662708  84.7198868  28.5893464
  59.7842693  66.0152769  34.9311399  60.0273085  65.1017570  35.0816274
  60.2421713  66.2553596  34.1255832   4.4857584  42.8591580  91.3905981
   4.0293585  43.1373448  90.5965322   5.3929030  43.1321759  91.2535691
  90.0529289  78.0205202  24.7238493  90.8717060  78.0692291  24.2304325
  89.5967674  78.8349199  24.5119333  59.9167156  61.4364862  10.7367921
  59.6949100  61.6705418   9.8355418  60.8719826  61.3757992  10.7403123
  85.6397247  96.2481403  31.2027955  85.3713512  97.1334934  31.4484859
  86.5327740  96.1669827  31.5376210  73.5776091  72.6128817  60.5444431
  73.0509138  71.8260479  60.4040289  73.7882280  72.5966692  61.4780426
  61.6554308  79.8530722  15.9672236  61.2776136  80.4085541  15.2853703
  60.9611130  79.7705317  16.6209352  71.6357422  80.2204227  22.2801423
  71.0867310  79.6707058  21.7210054  72.1039534  79.6007681  22.8396440
 101.8448830  88.9839077  22.6412797 101.2947655  88.2484055  22.3717570
 101.8181992  89.5876026  21.8989420  94.0883923  75.4054737   7.6642442
  94.3323421  74.5593309   7.2890580  94.3269062  76.0434198   6.9916558
  75.1544428  64.1834021  19.9322462  74.4483137  63.6208010  20.2502036
  75.9379435  63.8580513  20.3755331  89.7402000  33.7453723  28.6470962
  90.2768612  33.1517792  29.1723371  89.1061401  34.1065145  29.2665911
  64.3374681  88.2487297  11.2796855  64.8995161  88.4352875  12.0317006
  63.5519886  87.8550720  11.6595411  49.4417334  87.7736664  54.6704102
  48.5998583  87.3202133  54.7135019  49.6559238  87.9682922  55.5828094
  77.9323483  79.5635128   5.1481813  77.0115423  79.7810936   5.0032574
  77.9945326  79.3997908   6.0892230  89.3378162  77.5544977   7.2914124
  90.2400494  77.7963495   7.5004852  88.8054752  78.0652380   7.9013211
  82.6089382  47.8518200  33.1982112  82.9558945  48.5998344  33.6843491
  83.1654930  47.1179008  33.4586692   3.0197750  12.1635242  81.1526543
   2.3241793  12.8160663  81.2336975   3.3267819  12.0281119  82.0491165
  85.9510136  44.1989279  26.7009044  86.8534756  44.4070959  26.4590883
  85.6631660  43.5732698  26.0361314  71.9898891  61.6713381  23.3581161
  72.3114395  62.3667860  22.7843666  72.4192047  60.8783293  23.0370927
  37.7214980  74.6802855  19.5792913  38.0276871  74.1738033  20.3315902
  38.5077882  75.1119232  19.2451191  78.0145359  91.8691635  15.4575634
  77.8263283  90.9423923  15.3095436  77.1590042  92.2629929  15.6284153
  32.4361645  45.5632730  91.3391551  32.3267733  46.2644334  90.6967860
  33.3728205  45.5631299  91.5363937  86.7128849  63.9664841   9.8074812
  87.1444607  64.7285604   9.4211847  85.8014297  64.2374563   9.9172503
  58.4532642  81.8638897  31.2131000  58.0612278  81.0194969  31.4356875
  58.7852764  81.7466164  30.3230166  50.6280279  90.2664661  20.4217124
  50.7746077  90.3087997  19.4767499  49.6771479  90.2071571  20.5141711
   2.3580813   6.0303832  38.2622170   2.3427223   5.8060599  39.1926360
   1.5812515   6.5748072  38.1342483  21.7661797  17.9708858  91.0139477
  21.6788374  17.4176021  91.7901432  22.6355730  17.7655883  90.6700787
  87.6342297  74.4584227  16.4052176  86.8241596  74.3429327  15.9085453
  88.2672596  73.8900757  15.9664941 104.2044544  95.3622913  36.2820721
 103.5803890  95.1060486  35.6030107 104.1805077  94.6429634  36.9131231
  87.3470974  74.1755438  10.3847992  87.6986980  74.4890356   9.5515364
  87.1215534  73.2599545  10.2202940  78.0584335  78.4982300  19.2495799
  78.0273390  77.9046106  18.4993243  77.9296398  77.9306936  20.0095439
 115.3017902  57.3218966  46.9378424 114.7853661  56.7534781  46.3664961
 116.1937904  56.9809484  46.8720484  56.9693661  76.3673830  21.9661832
  56.1365509  76.4036846  22.4366379  56.7926931  76.8032360  21.1324859
  60.4643488  86.8175125  27.0480776  60.2215004  87.5112820  27.6612186
  61.0422421  87.2468567  26.4172554  74.3893623  80.4870319  48.6423969
  74.2204952  79.8172092  49.3050098  75.3383970  80.4680538  48.5190821
  69.5002222  57.1438169  42.7960634  69.7665739  58.0536699  42.6639366
  70.1328564  56.7980766  43.4257174 104.0661907  96.6120625  45.7022190
 104.0695667  96.3865185  44.7719765 103.8041496  95.8041286  46.1436033
  81.1431026  84.6329689  19.7592485  81.4707470  83.7459755  19.9080324
  81.4170837  84.8428822  18.8664448  84.5993328 107.9500008  44.7538280
  84.9999714 107.6747799  43.9292240  84.5320797 108.9020920  44.6814060
  84.2293453  82.5354671  25.2291465  84.4272137  81.6700840  25.5871916
  84.9964142  82.7574062  24.7013330 112.1595955  48.8424110  18.8926983
 111.5362740  48.1237841  18.9988577 112.9809380  48.5013056  19.2466342
  68.0059338  41.3369465  17.1360826  68.6969185  41.8779087  17.5183511
  67.4109650  41.1584806  17.8643644   0.4798817   2.7167559  44.6550083
   0.2950596   2.2217131  43.8568830   0.7865452   2.0590449  45.2791929
  53.5669374  71.6974497  28.8012457  53.1505156  72.5541878  28.7073135
  53.1755209  71.1637831  28.1097078  90.3773499  62.3227024  25.1635456
  89.7358418  61.7836428  24.7008181  90.0846672  62.3140383  26.0748577
  70.9516764 107.6103878   5.3058302  71.2746525 106.7248917   5.1390821
  71.2472725 108.1192684   4.5509174  71.5785122  55.7312632  18.6112678
  70.8443594  56.2958574  18.8531017  71.6561270  55.1143885  19.3390536
  72.0146465  38.8009906   8.9147913  71.6529369  38.7958145   9.8010027
  71.7009497  37.9857850   8.5232961 100.3312016  48.9065552  47.1225309
 100.2577972  49.0482473  46.1787271  99.5281410  49.2814445  47.4841833
  87.7856636  61.9799042  18.6966765  87.9459381  62.9169655  18.5850608
  87.8208351  61.6234970  17.8090000  75.2854156  70.0786114  13.2931519
  74.7671604  70.4793549  13.9910352  74.9289465  70.4504824  12.4863839
  75.6856203 103.4145832  20.1426005  76.2709141 102.8125858  19.6829677
  74.8063517 103.0944538  19.9410200  57.7277231  51.0095978  18.6418080
  57.1871042  51.0934877  17.8563607  57.8932667  50.0700188  18.7194014
 102.5097370  61.7894268   6.9888467 101.7252636  61.2454700   7.0592314
 102.8161430  61.6530037   6.0923350   2.6817786   7.4744649  74.4340044
   2.1394287   8.2434745  74.2587524   3.3901964   7.5298018  73.7926656
  87.4440575  77.8686237  45.1745939  87.7231503  78.5365820  44.5483589
  86.6850948  78.2534552  45.6129122  92.0847797  70.5520821  18.1768322
  92.5566769  70.0042534  17.5495970  92.4541092  70.3148127  19.0274382
  88.3887768  50.9458971  49.1714668  88.3129025  50.4862309  48.3352947
  87.5060272  51.2720203  49.3464708   4.1215001  88.5472965  33.4705710
   4.0209637  89.2127705  32.7899337   3.5512410  88.8426113  34.1803765
 101.2460518  78.9813757  54.5146894 101.6937065  78.7827492  53.6922646
 101.5615559  78.3157587  55.1259470  53.1415939  97.1502113  41.8276310
  53.2861710  97.5421524  42.6888561  54.0106964  97.1241856  41.4273691
  62.9820156  52.8488588  21.2669945  63.2936668  53.5374975  20.6797290
  62.0503426  53.0358076  21.3821745  42.7311503  42.2922940  83.2208854
  42.4231421  43.0643029  82.7461499  42.4228560  41.5514321  82.6990539
  66.1827183  87.7582932  24.8189020  65.8555984  88.0434036  23.9657092
  65.6835699  86.9651794  25.0139570  98.4729828   5.8048583  21.0932779
  98.1783260   6.7153311  21.1143279  99.1035856   5.7737685  20.3738308
  97.4839796   2.0867301  34.8152518  96.8723262   2.6844168  34.3852663
  97.0025982   1.2625552  34.8875856  17.8987967   9.1986079  86.8577325
  18.2055985   9.4064136  85.9751665  18.5977446   8.6641355  87.2346240
  85.7479477  56.8074703  33.8380265  86.1363983  57.3506165  34.5238304
  86.4774418  56.2855196  33.5039043  83.8918686  92.4392414  29.2211151
  83.4266376  91.9192982  28.5657859  83.2422447  92.5984001  29.9058652
   5.2579091  86.0703487  92.8428732   4.4251702  86.4855403  92.6183805
   5.8830235  86.4323897  92.2148722  75.7132101 100.9042454  11.4610612
  75.7720804 101.8476200  11.6120946  75.5037451 100.8232689  10.5305791
  81.7793655  77.4957609   3.2117695  82.2362518  76.6945744   3.4678790
  82.2889042  77.8376436   2.4771176 102.0895767  76.9554234  17.3062420
 101.4996433  77.7041149  17.2186518 101.9753742  76.4640474  16.4927697
  35.0901161  14.7148557  89.8498696  34.4943367  15.3743930  89.4944954
  34.8323427  13.9010615  89.4168353  43.9045321  11.1124749  84.0893012
  43.7881647  11.5024371  83.2229191  44.0433108  10.1813455  83.9161747
  69.6639013  69.6917248  40.5631161  70.2797747  70.4047632  40.3942633
  70.0182295  68.9485407  40.0749016  98.9087391  74.8409843  28.4520674
  99.4938087  74.5947456  29.1685152  99.4138241  75.4688215  27.9353976
  64.9759960  38.2856965  27.4620581  64.3021965  37.6088643  27.5262785
  65.1160049  38.3958077  26.5215778  84.0243435  83.2947636  32.2973704
  83.6289501  82.8993320  33.0742478  84.3753338  84.1300678  32.6060700
  85.2374159  25.1827664  93.3579409  85.2117239  24.7303195  92.5148135
  84.3470751  25.1024385  93.7000978 101.3563824  63.5960531  57.3071480
 100.5715656  63.0556202  57.3977852 101.9697094  63.2371473  57.9484367
  77.1231556  72.6331425  14.0646839  77.7928972  73.2897186  14.2559755
  77.6174259  71.8539238  13.8102186  55.4957294  78.0689096  14.2042720
  55.1428127  77.7029991  15.0153136  56.3762093  78.3631897  14.4374955
  85.1743031  76.5278816  28.7117147  84.3385506  76.0612535  28.7103271
  85.1534176  77.0542192  29.5109415  46.6736876  19.3655200  77.5409788
  46.0961233  19.0207286  76.8599683  47.1220480  20.1016517  77.1246737
 101.3839245  94.0591335  74.0219164 101.8709946  93.6607361  73.3006096
 100.6981564  94.5715427  73.5936689  64.0656996  78.8401794  35.2098989
  63.6401415  79.1093111  34.3958354  63.9250851  77.8943110  35.2523255
  71.7314768  65.8771801  24.5396686  72.4698305  65.7346964  25.1319170
  71.0650969  65.2562380  24.8339534  64.4242048  99.3478680  14.5898211
  65.2883911  98.9820957  14.4010639  64.4873524 100.2637100  14.3187809
  51.7224585  39.3766351  94.7994852  50.8256422  39.0819593  94.9579918
  51.6527258  40.3286500  94.7284554  96.7583466  81.4603233  20.6617546
  96.2986660  82.2946358  20.7558155  96.3010883  81.0139465  19.9490881
 111.3065733   0.5741549  36.6973639 111.9620098   1.2423564  36.4969969
 111.7705263  -0.2561902  36.5901470  68.1249523  74.8583937  31.5752006
  67.9612970  75.1551771  30.6800079  67.3773623  74.2975378  31.7820334
  84.1557516  29.4858313  25.4208112  83.5942043  29.0771628  24.7621083
  83.8429273  30.3888274  25.4753160 115.8552517  13.2017756   6.9774801
 116.0441269  14.0162135   6.5113860 114.9879373  13.3393813   7.3583460
  55.4513931  73.5446644  11.7012107  56.2351990  73.4224653  11.1655390
  54.7811270  73.0151510  11.2692463  91.7701054  26.7271948  10.4515922
  91.3343430  25.8889937  10.2974248  91.8977356  27.0951796   9.5772183
  72.8520012  75.0531101  39.6712756  73.7878084  74.8567295  39.6273160
  72.4769020  74.6024275  38.9146948  62.9849039  16.4187903  90.5169856
  62.3160826  16.7092652  91.1370858  62.9259669  17.0411820  89.7921490
  66.9067907  71.8654346  24.1801929  67.7112341  71.6728449  23.6985183
  66.6909981  72.7654314  23.9359164  75.8984934  18.0923505  94.1898718
  76.8023669  18.3250041  93.9774747  75.3940474  18.8795705  93.9848286
  63.8135338 105.8966446  28.9584231  63.3480215 105.4081345  28.2795358
  63.3540916 106.7349148  29.0079689  35.9243703  51.8956852  10.1040685
  36.7952609  52.2180843  10.3361106  35.9607291  51.7687082   9.1560251
  86.6123295  30.4733348  53.1170464  87.4408913  30.0125384  52.9851818
  85.9583664  29.9155116  52.6958561  51.2077986  18.6202664  83.9574939
  51.4356219  19.2812390  84.6112853  50.7680594  19.1114278  83.2635051
  77.1108246  43.1275415  33.9961004  77.2658730  44.0549326  33.8168454
  76.1749983  43.0742836  34.1900873  63.4779739  62.8289938  25.5437827
  63.8243389  62.2006178  26.1773515  63.2844448  63.6099672  26.0623002
  66.8067122  95.2069187  49.2239141  67.5854588  94.7173500  49.4886684
  66.6870880  95.8585453  49.9147844  93.4915699   1.4669657  28.8343668
  93.8262285   0.6042720  28.5894346  94.1245855   2.0829917  28.4655333
  64.2590857  34.8646331   4.7973165  64.3678856  34.5841432   3.8886261
  64.4674206  34.0867162   5.3146851  28.4116684  22.0967860  74.7104865
  28.3562027  21.6807647  75.5707663  28.2638632  23.0264421  74.8840338
  55.6157970 108.3094597  21.8630672  54.9742222 108.7434196  22.4254680
  55.2057886 108.2957935  20.9982347  54.7674465  93.1481361  34.2373800
  54.1066074  93.0770779  33.5485601  54.8886204  94.0900993  34.3567848
  90.4321289  49.9959755  42.2590113  91.0278511  49.2683268  42.4375820
  90.1278400  49.8424196  41.3645506  61.6028690  89.2736149  13.0469429
  61.7427015  90.1175213  12.6174033  61.6883659  88.6298561  12.3437369
  88.5334301  78.6908245  14.8089898  87.5936890  78.8568306  14.8835194
  88.6106682  78.0736589  14.0814102  68.3349895  72.6037884  19.9591398
  68.2461977  71.9499207  19.2657399  68.2922411  73.4441280  19.5028162
  27.4011837  33.6484475  72.9000860  26.7378794  33.5251470  72.2210794
  27.0737492  33.1491799  73.6482531  35.3490149  15.8432670  92.8744487
  35.7417094  15.5765004  92.0432710  34.7110258  15.1567693  93.0691840
  74.1041660  82.4518394  46.0460901  73.4285021  82.7456284  46.6571569
  74.2000771  83.1767750  45.4284286  16.0629498  65.3042073  94.3201269
  15.6917321  66.1641164  94.1226555  16.8865763  65.4961247  94.7685075
  92.9230499  86.3957119   9.9816239  92.1077251  86.4844894   9.4880641
  93.2417870  87.2927952  10.0809646   2.9677460  98.6330790  91.1042666
   2.7283547  99.0063662  91.9525480   2.6056550  97.7471823  91.1216596
  56.9982802   0.1343102  87.9013288  56.8814169  -0.6817155  88.3878267
  56.8041979   0.8224626  88.5377329  83.0444050  50.8342457  39.4228387
  83.9872932  50.7524109  39.5660233  82.9055595  50.4913568  38.5400105
  55.3138113  77.4823046   6.6694027  55.8056784  77.6671171   7.4694920
  54.5261908  78.0213070   6.7425579 104.5273972  75.3281260  19.0613067
 105.2858639  75.8805323  18.8720810 104.4191933  74.7924662  18.2754362
  26.7160702  49.3630934   0.2148768  26.5042520  50.0837946   0.8081362
  27.5864100  49.0745878   0.4896586  71.7167187  64.5755148  20.2802777
  71.2929106  65.4072046  20.0683546  72.2762251  64.7761488  21.0305643
 115.1936222  18.2849498  94.1063995 115.6727458  18.9249272  94.6328036
 114.7921325  18.8018222  93.4079149  69.7921038  75.5510330  10.5709410
  69.7995758  75.5092001   9.6146846  68.9585066  75.1528835  10.8215928
  90.8878899  95.4295731   7.5821853  91.0911083  95.1696873   8.4807372
  90.7597733  94.6029186   7.1169299 110.6906223  62.6459312  30.3370571
 110.4691887  63.5669088  30.4749179 110.1039982  62.3608303  29.6364760
  75.8691740  77.2378397  36.4950204  75.9439659  77.4203444  35.5583620
  76.6934681  77.5517941  36.8667793  68.0155706  45.0389433   9.8718727
  68.5134888  44.2957878   9.5312345  67.1203136  44.7101927   9.9535000
  98.4386444  82.7401066   8.5113996  99.1451740  83.1036568   9.0451294
  98.6446762  83.0189323   7.6191902  47.1746922 102.1155739  16.1325860
  46.9319010 102.2896099  15.2231944  46.3885450 101.7318726  16.5211487
  65.4015147  37.2335000  89.5702684  66.0750662  37.5657411  88.9768219
  65.6494986  36.3225503  89.7280586  93.8566875  95.3284454  14.7636330
  94.0937805  94.4036007  14.8319411  94.4854069  95.6914425  14.1397929
  49.3632936  64.1745520  12.1619225  49.7067976  63.9579344  11.2951386
  48.4692621  63.8326168  12.1575665  48.2520485  87.3727131   0.3189373
  47.7903223  88.0479145   0.8160798  47.6760769  86.6092873   0.3596935
  88.4564590  42.7181005  32.0438433  88.6103153  41.8746185  32.4694014
  88.9938450  42.6885605  31.2522793  63.0173874  73.4480953  37.2180128
  62.6429558  73.0398178  37.9986191  63.9240408  73.1417513  37.1989846
  10.4739724  75.0612402  12.4743056   9.7862206  74.6313620  11.9659412
  10.9592972  74.3413877  12.8774226  57.2283316  68.0750561  24.3732905
  56.8932486  68.3099747  25.2386022  56.8665314  67.2051001  24.2044234
  85.4317188  85.7095814  26.6907358  84.6492672  85.5457592  27.2172070
  85.6999779  84.8433113  26.3844109  45.2344418  61.4416790  27.8084254
  45.2473879  61.7174911  28.7249374  45.1239347  60.4916143  27.8457522
   6.5139447  49.0045834  25.8868074   6.7197953  49.1842365  26.8041849
   5.5823956  49.2092562  25.8058476  92.1971380 106.1994404  86.8132508
  91.8140185 105.7566876  87.5704974  92.7668631 105.5418391  86.4142489
  64.3018055  64.6513081  55.0971079  63.8916302  65.5097532  54.9919701
  64.9186468  64.7674847  55.8197737 114.2771734   4.0778018   1.6340755
 113.9231170   4.1881514   0.7516371 113.6462034   4.5196582   2.2022961
  93.3101463 101.3320637  17.8804147  93.3054543 101.5613556  16.9510949
  92.5309277 100.7884884  17.9969299  57.6417732  92.6794243  30.0005913
  56.7383718  92.8456783  30.2697659  57.7976274  91.7649937  30.2367353
  70.1016474  73.4118366  32.8934002  70.0705290  72.6254988  32.3484850
  69.4087505  73.9725685  32.5445342  81.2152481  50.2241659   9.4126856
  80.5045509  50.3508759   8.7841243  80.8808899  49.5668983  10.0229645
  53.9472055  97.7668953  44.3390417  54.2353582  98.6684227  44.4820499
  54.5940018  97.2327232  44.8000717  94.8583317  47.0879650  35.5058050
  94.3403339  46.4302921  35.0417161  94.2190933  47.5695133  36.0308909
  73.9272308  67.3099279  32.3087740  73.4433603  66.9530773  33.0535960
  73.2591963  67.7340555  31.7701840 116.0379219  55.2057981  32.3504806
 115.6306839  55.5438232  33.1480575 115.7604027  55.8125830  31.6641688
  42.4293600  53.7813706  76.8516367  42.1434866  53.1766839  76.1668986
  41.9295965  53.5207124  77.6252812 109.3048191  60.4756308  20.7667661
 109.1361904  61.3361740  21.1505103 108.6068249  59.9186993  21.1115289
  67.4384594  82.4233913  32.1025014  67.4818945  81.8614388  31.3288379
  68.0118322  83.1612492  31.8950725  76.2181044  60.8138847  20.6132293
  75.8559418  61.0641241  19.7632587  75.6674528  60.0867319  20.9035063
  68.8259268  71.3580847  17.4172044  68.3327103  70.6344986  17.0306945
  69.6958876  70.9941912  17.5814784  58.0822741  35.6242700  84.2867917
  57.3724543  35.6576772  84.9280983  58.6760889  36.3273854  84.5499378
  13.1478857   4.0731192  16.1389542  13.6635183   3.5471297  16.7502618
  12.2937368   3.6418486  16.1133206  60.3775740 100.7164097  32.1327424
  60.9362268 100.2657318  31.4994717  59.7240305 101.1667919  31.5977073
  81.9341278  40.3537226  28.9571667  82.0044804  39.5499301  29.4721460
  81.6202354  41.0100269  29.5792341  96.1238098  97.1779060  29.7132039
  96.9938469  97.5239944  29.9119258  95.5485725  97.5922871  30.3563356
  31.4281927  48.8893647  83.9899868  31.0469376  48.1025167  84.3795424
  30.9278046  49.6113915  84.3701440  52.7713953  21.0189433  88.7454462
  53.6754977  21.2227960  88.5060990  52.4114405  21.8510909  89.0523612
  70.1235390  68.7898159  34.7128820  70.0319481  68.6197329  35.6503868
  70.5431604  69.6488094  34.6651745  48.3674288  76.4868927  28.4943438
  48.0459690  75.6856108  28.0810142  47.5765705  76.9894266  28.6898804
  49.2757511  64.1297436  16.9162917  50.0383997  64.2470217  16.3498604
  49.2296553  63.1850338  17.0633721 102.0692122  96.9120068  86.3329643
 101.7693722  96.5944428  85.4812133 102.8033268  96.3400406  86.5569448
  49.5013809  90.6905937  30.5694747  48.7938976  90.0581074  30.4443240
  49.7641277  90.9347725  29.6820211  90.1614761  49.7117758  54.5208788
  90.8287907  50.3354025  54.2344904  89.3301582  50.1374388  54.3112421
 113.6432565   5.4508639  13.9114213 114.3312801   5.7619334  14.4997132
 114.0101589   5.5612422  13.0342484  64.4691801  93.8513470  50.6730795
  65.2606392  94.1803265  50.2469444  64.3565607  92.9686260  50.3204489
 100.1713371 104.1061306  17.3542964 100.7884121 103.4313679  17.6374042
  99.8267937 103.7817192  16.5222633  55.3755569  30.8921981  35.3590655
  55.9524822  30.1373196  35.2426624  55.1892281  30.9087443  36.2978077
  66.6173553  30.1652336  11.8860805  65.8592987  30.6059122  12.2699809
  67.3366642  30.7872629  11.9952214  81.5139294 102.9338551  36.9223928
  80.7642174 102.6018524  37.4162936  81.9857693 102.1481419  36.6462612
  54.2465258  86.1151123   8.8304764  54.1884470  86.6427517   9.6270078
  54.2889881  86.7562962   8.1210250  88.9518929  25.0848222   3.4824190
  89.7897530  25.2381277   3.0456990  88.3041763  25.4933310   2.9081228
  54.4160258  44.7772069  93.3007817  54.3821894  44.6986432  94.2541517
  55.3458201  44.8885675  93.1024834  70.6880951  54.4073629  48.4311438
  70.2218485  53.8837051  47.7795124  71.2915230  53.7911797  48.8463879
  79.5343937   7.7261115   8.1128019  79.5155634   8.2690097   7.3246837
  78.8897670   7.0385791   7.9454935  84.6960926  95.7857132  23.3615041
  84.4063568  95.5143356  24.2325020  85.4196262  95.1941490  23.1546545
 102.3904514  39.9419475  34.6137261 103.1352615  39.8089242  34.0273809
 102.6185608  39.4542170  35.4051280  73.8095617  50.8523417  30.1480818
  74.7229433  50.7231569  30.4035878  73.8203382  51.6464996  29.6138263
  42.3928438  25.2392240  85.9692108  42.5382983  26.0053678  85.4141462
  41.6243159  25.4654260  86.4930737  19.8479723  15.0040007  43.0235624
  19.3864130  14.3717337  43.5744190  20.1847910  14.4846297  42.2934675
  88.6002350 100.8168030  11.7764258  88.7399006 101.7097950  12.0915222
  87.6932335 100.8098507  11.4705729  74.3469143  53.0462551  10.8193052
  74.6273375  53.0288219   9.9042690  75.1051569  52.7266121  11.3083160
  21.4961659  24.0904994  90.0767332  21.2446867  23.1670756  90.0934738
  21.9353424  24.2343659  90.9149796 114.9364341   5.2106906  11.4150560
 115.1872362   4.3963385  11.8511248 115.7047142   5.4516745  10.8974636
  88.7847137  93.5539436  23.3138752  89.3786144  93.4086323  24.0503478
  87.9884720  93.9037609  23.7137032  29.5332228  53.0587525  86.4084840
  29.1140877  53.8264508  86.7973220  30.2053057  53.4198422  85.8304256
  74.1267109  62.0755816  16.2002361  74.1187668  61.1187315  16.1757159
  73.3602619  62.3081160  16.7243719  59.0997458 105.5827045  17.8335297
  59.1514778 105.3699589  18.7653542  59.1378784 104.7344208  17.3917115
  27.4905144  20.8569617  83.7233192  27.6768338  21.7423911  83.4110206
  26.7291867  20.9596486  84.2943460  37.0520674  14.0588660  85.2371484
  37.0735537  14.6553750  85.9854430  37.7888905  13.4654470  85.3826618
  64.4494772  93.5127449   3.3131450  65.1033688  93.2435226   2.6680264
  63.6475372  93.6344337   2.8048962  51.0919905 103.2516670  25.6859279
  51.4519072 103.3352280  26.5689397  50.2570772 102.8000927  25.8093381
 109.7166443  95.2282619   5.9473997 109.0327549  94.7042465   6.3644606
 109.4154835  96.1321640   6.0395509  98.3252048  72.6548290  30.9317207
  97.9042625  71.9089746  30.5042386  97.6591778  73.3422804  30.9244227
  66.7926359  71.2056446  27.0517850  66.7829418  70.2871752  27.3211408
  66.7880964  71.1747408  26.0950971 107.3477459  64.2921400  14.4833136
 108.0220222  64.7345543  14.9989164 106.9161510  64.9960470  13.9990902
  35.8535801  53.5425992  82.9473465  36.7951094  53.4901376  82.7830177
  35.7475840  54.3277688  83.4844750 112.3745155  71.2641430  57.0965672
 112.0504475  71.7967176  56.3702202 112.1313095  70.3681135  56.8637228
 107.4695969  83.2971859   7.8059751 107.2718239  84.1070747   7.3356700
 108.2688713  83.4931660   8.2948381 102.5880432  84.5667648   2.4881135
 103.5239220  84.7267437   2.6095885 102.1616650  85.1542854   3.1120187
 112.0525230  18.5586787   7.5343126 111.6188921  18.6538363   6.6862887
 112.7230037  17.8916121   7.3869675  16.2918734   2.3691989   4.6136266
  16.0023188   2.5081301   3.7119126  15.7400869   1.6562224   4.9352118
  16.3133120  19.3767310  13.7346470  15.4161524  19.5468188  13.4475815
  16.5382933  20.1321555  14.2777371  43.4033381  59.9940152  92.7423163
  44.2602621  59.8765130  93.1523202  42.8293787  59.3862004  93.2085559
  10.1356672   4.8699809  36.0726905  10.2963137   4.4749213  35.2157474
   9.9253153   4.1298056  36.6420174 108.4283161 104.5534325   7.9876482
 108.0990791 103.9434338   8.6477554 108.1581974 105.4159927   8.3026940
  71.9065428  74.7985029  31.6243744  71.8895149  75.7275724  31.8540907
  71.2083387  74.4088316  32.1505880  92.9877472  90.3260136  14.8621762
  92.9328632  89.7996712  15.6597888  92.8979015  89.6923447  14.1504037
  79.2089558  92.0244789  24.6043491  78.8519526  91.5404034  25.3489637
  79.4210148  91.3496780  23.9594388  97.6643562 100.1413441  13.1389344
  96.7912865  99.8402309  12.8872955  97.5029182 100.8733940  13.7341404
  36.1659788   1.8627787  19.5459664  36.1038946   2.8054953  19.6998060
  35.4837393   1.4841796  20.1004386  64.6806812 100.9065533  28.0233932
  64.5754385 100.9884167  28.9712620  65.2128077 101.6625500  27.7753139
  29.7413706  37.7555323  43.2438135  30.5621027  38.0400325  43.6459064
  29.1764044  37.5335265  43.9839220  62.5759112  17.8944297  78.9062243
  63.3326231  18.4070535  79.1905349  62.9488646  17.0704074  78.5929650
  67.6605320  95.5971622  31.2094164  66.8351316  95.9446049  31.5473914
  67.6879215  95.8888149  30.2981400  61.1658144  77.5369215   4.5472109
  60.9421206  76.6551733   4.8450646  60.7823467  78.1165504   5.2054065
  22.0613276  69.1022058  73.3161336  22.9483162  68.7637754  73.1938582
  22.1779858  69.8977323  73.8355094  88.0582142 103.7803555  36.0869074
  87.8711605 104.6841335  36.3407254  88.2591248 103.8307190  35.1523852
  97.8051853  85.3117561  21.1502934  97.5023556  86.2154579  21.0616755
  97.8389549  85.1620293  22.0951056  89.4892979  70.9955740  10.3310382
  89.8203659  71.5951443  10.9997261  88.7819195  71.4793444   9.9046433
   0.7272839  20.6455947  12.4788117   0.5095362  20.5046988  13.4002066
   0.3045916  21.4752627  12.2569704  64.9841881  70.5767822  32.2905207
  65.3567314  70.1397657  31.5247130  64.0378332  70.4787874  32.1854377
  49.6018744  92.5786304  21.6055560  48.9589310  92.1737003  22.1876955
  50.0806141  91.8410397  21.2274075  49.0632998  44.2322965  93.5919906
  48.2501971  44.3989224  93.1152013  49.7486960  44.5947595  93.0306604
  73.5759068  75.7932281  44.6816826  73.1574249  75.0452328  44.2555285
  74.2461348  76.0785484  44.0606976  67.1559286  85.0414181  51.0999393
  67.1460342  85.5152035  51.9316006  68.0510616  84.7111893  51.0230494
  79.5931768  90.8605289  42.5260115  80.1486111  91.4864063  42.0612478
  79.9488497  90.8382702  43.4143972  10.7982992  23.7468959   2.8937840
  11.7356848  23.6771155   2.7130219  10.6990122  23.4009314   3.7807375
  89.7916222  71.6642952  17.0888031  89.8402023  71.6481256  16.1329734
  90.6333923  71.3116455  17.3774028  60.5070353  91.6318226   3.7365806
  61.3245440  91.1858654   3.5151559  60.1388979  91.8905354   2.8917289
  94.5988941  80.9554672  50.0640965  94.5554829  80.0618172  49.7239065
  94.2492771  81.4980602  49.3572807 111.0153294 105.2153492  32.9092836
 110.8391380 105.5686092  32.0372772 111.9242191 104.9179459  32.8680658
  88.5246372  68.0351210  30.4042196  87.7330875  68.4879875  30.1133895
  88.2184410  67.4240685  31.0743642  49.8023939 108.0710125  15.3711033
  49.6584654 108.8831043  15.8569360  50.7511377 107.9454899  15.3900933
  37.7263236  99.3802357   4.0141293  37.9053521 100.1714420   3.5060167
  38.3088923  98.7188530   3.6407334  95.7870674  65.7341528  46.1861753
  96.2019062  66.5942621  46.2521458  94.8666573  65.8956242  46.3935375
  76.2181568  93.7052536  45.1776600  76.4376497  92.9658127  44.6108580
  75.2992916  93.8908958  44.9841309  79.1532516  61.7997599  26.8111801
  79.9668169  61.2960863  26.8368316  78.6552763  61.4138699  26.0905290
  33.9453970  80.4132886  93.8800400  33.0921542  80.8133264  94.0478883
  34.5037066  80.7337899  94.5884192  90.3127193  91.2574482  33.1254697
  90.7089710  91.7086697  32.3800755  90.5037594  91.8206310  33.8755131
  17.3463784  62.0209789  54.5209932  18.0903874  62.5617361  54.2559195
  16.7539177  62.6289511  54.9632645  64.1978693  79.6724606  13.6577451
  63.3345556  80.0777435  13.7393785  64.7474813  80.1528072  14.2769563
  80.4867758   6.7540312  37.8613830  80.7693876   7.4462748  38.4590125
  80.3450884   5.9937525  38.4254098  86.5695095  85.1272583  32.7017975
  86.3271713  86.0455132  32.8214025  86.8357468  85.0673485  31.7843246
 110.9236813  82.2421741  50.2024412 111.5751266  82.9231453  50.0347233
 111.1454105  81.5421677  49.5883894  97.2367573  58.1928682  28.0971313
  97.8635216  58.7964010  28.4960580  96.7107010  57.8744364  28.8306856
  78.8678885  83.0108833  19.0241671  79.2568922  83.8599586  19.2338514
  78.6992693  82.6078033  19.8758292  77.0993948  77.0133209  23.7609744
  77.9036427  77.2333193  24.2311001  76.9030333  77.7944231  23.2437158
  86.1985111  78.8220787  17.6873267  86.6519737  78.0241728  17.4153721
  86.1173820  79.3369389  16.8844759  89.7624588 102.0903492  29.0728426
  89.8894691 102.2744370  30.0035477  90.0959301 102.8689766  28.6270046
  91.4884090  70.7056904  24.4739604  90.5407047  70.8343458  24.4347119
  91.8496609  71.5918016  24.4969273  80.8191204  89.8311520  16.0795939
  81.3091278  90.4137993  15.4993820  80.4851437  89.1441441  15.5027831
  97.5125790  59.5072269  45.1150942  96.7198277  59.0699768  45.4258680
  97.2117043  60.3660345  44.8181963  38.2711159  71.8703694  92.8084594
  37.8590428  71.0600514  93.1081450  38.5645710  72.3010106  93.6113694
  74.5726728  78.8278008  21.9188452  74.9629831  78.2245398  21.2864137
  75.1165676  79.6137762  21.8672967  95.1601601 100.8130836   6.3020390
  94.4110203 100.5386257   5.7731789  95.6137180  99.9978161   6.5161633
  67.4029493  69.3444729  16.2806976  66.7274523  69.0614080  15.6644142
  67.4713993  68.6248875  16.9081891  66.9286919  66.7082787  20.8832932
  66.6993952  67.4564886  21.4345121  67.2281122  66.0397196  21.4994121
  96.1423887  10.3279544  12.7732670  95.6205476  11.0375167  12.3985076
  96.3860191  10.6436301  13.6434543  10.7911467  13.8585520   6.9498503
   9.9626040  13.6277056   7.3699194  10.6726336  14.7658969   6.6689396
 110.4888595   1.2698222  17.0861423 110.8185018   1.0518027  17.9579437
 111.2303795   1.6863394  16.6469479  52.5521421  88.8637829  32.7283978
  53.3313131  89.1924381  33.1768489  52.7393246  87.9385185  32.5700331
  94.6743584  96.6397381  17.0021951  95.1257420  97.4836731  17.0185626
  94.2312813  96.6215229  16.1539125  93.1039429 109.4153404  14.7577894
  92.4935055 109.1882515  14.0563405  92.6541138 109.1531277  15.5609870
  52.4315882  83.0544281  14.8769331  51.9596100  83.8517857  15.1171184
  51.7445230  82.4040413  14.7314179 103.9407362   3.8576079   1.8302169
 103.8256992   4.7878028   1.6359332 104.3813242   3.8430930   2.6798666
  89.7580147  82.9764652  36.5248442  89.1795444  83.2645226  35.8187103
  90.6082058  83.3598900  36.3094378  98.9349365  82.3456097   3.3776423
  98.6042595  82.8482246   2.6331517  99.6061039  81.7754650   3.0025601
  73.5749197  88.1599808   6.2355745  72.7816486  88.2443237   5.7065761
  74.2004061  88.7579155   5.8263367  96.8425751  59.3997812  16.5344155
  97.6751518  59.8697662  16.4879251  97.0392418  58.5293341  16.1881804
  10.0912247  67.0034599  49.8775673   9.6303997  67.7782011  49.5556307
  11.0169850  67.2445726  49.8447847  90.2331352  97.1494007  23.6144567
  89.5384502  97.3426151  22.9849243  90.9146881  96.7223454  23.0954719
 104.5169830  73.5627842   8.2935715 105.1120377  72.8130388   8.2981390
 103.8018417  73.2974577   7.7152961  46.8949686  82.1049066  85.9754753
  46.1388766  82.6886888  86.0368418  46.5794741  81.2677903  86.3159489
  55.6584154  17.5927682  89.9458366  56.5551649  17.7391048  90.2469194
  55.7085120  17.6779885  88.9937550  64.4870377  98.0317497  39.5728230
  65.3835869  97.8326416  39.8426127  64.0681791  97.1757317  39.4832277
 116.6302681  93.7270832  31.2903976 116.7215443  94.6772099  31.3623047
 115.8293819  93.6012459  30.7814956   8.5571646   0.7536174   6.6739064
   8.1389116   1.1386157   5.9037983   9.0476393   0.0062896   6.3316083
   1.9827328  55.3216362  11.9226182   1.5563927  55.7557249  11.1836779
   1.3753662  55.4400921  12.6528919  88.0583191  80.9457779  18.2276928
  88.9872551  80.8353519  18.4304762  87.7011204  80.0580120  18.2500243
  17.7425515  41.6527123  84.7958058  17.2326313  41.7436070  83.9908498
  18.2104908  40.8243413  84.6906501  95.5588531  66.2745762  20.7410574
  96.2638187  66.9013357  20.5784798  94.8753357  66.7889833  21.1705089
 107.5406742  77.7346420  25.7001853 107.8504944  76.8453455  25.5287504
 107.8636456  78.2477522  24.9594855  63.9476347  84.4866276   8.1461143
  63.2923937  85.1843643   8.1391501  63.4372091  83.6782455   8.0989802
  42.6629626  18.6690993  87.0797789  42.9304968  19.2179008  87.8169846
  43.1542574  17.8558488  87.1959150  52.2083712 100.3522968  33.0675197
  51.8736506 100.3357887  33.9641380  51.5830564 100.8960438  32.5883961
  99.9200834   5.0810385  31.0670018  99.1139997   4.6262789  30.8227420
 100.1060737   4.7781230  31.9557548 102.7925110  83.9631748  70.6196404
 102.7236080  83.1382370  71.1002350 103.7337208  84.0987968  70.5103397
  74.3910265  91.1691761   9.0874666  74.4202995  90.6768894   9.9078488
  75.1177359  91.7886353   9.1538042   0.2793751  56.2130976  18.6575985
   0.1482830  56.3490152  19.5959866   0.4324780  57.0907402  18.3075535
  65.7669913  15.3171773  90.8458710  65.0460707  15.8421226  90.4981196
  66.2467371  15.9174151  91.4166564 102.4666023  84.0632534  63.7891293
 102.3373318  84.6357536  64.5452785 101.6672516  84.1647339  63.2724428
 105.6326008 108.2076073  12.6789010 105.6498146 107.9848480  13.6096609
 105.3486824 107.4028873  12.2452462   4.7807192  20.3740359  40.4486036
   5.6208872  20.2640486  40.0033617   4.2238878  20.8116866  39.8046780
  40.3178726  32.3702092  94.7330258  41.1875902  32.0466752  94.9678482
  40.4861914  33.1719441  94.2379149  48.5397005   6.0272241  44.9726009
  48.3335018   6.9383287  44.7637939  48.4762383   5.5691582  44.1345215
  96.7689228  33.1424379  21.0698628  97.5045681  33.1810498  20.4586673
  96.8675423  33.9243793  21.6130686  63.1691265  41.9573593  17.0802128
  62.3544025  41.4830637  16.9143927  63.8317823  41.4754629  16.5853429
  56.8245506   7.8972918   8.3299166  57.3305178   8.0085927   7.5250316
  57.0875597   7.0386845   8.6613560  85.7005119   9.2133605   1.8120547
  85.3620625   8.4920204   1.2816301  86.1863232   9.7584075   1.1930667
  96.8238653  72.5988626  12.8373277  96.0288657  72.1349048  12.5747418
  96.8419219  73.3772158  12.2804892  34.8067522  30.8140278   9.8393744
  33.9743376  30.3470135   9.9115908  35.4090595  30.3169680  10.3928983
  15.3188360  37.4666595  12.5660884  14.4145215  37.6592875  12.8137612
  15.2619565  36.6524887  12.0659685  97.0940029  73.4536404  94.1264172
  97.5851834  74.2742175  94.0861137  96.9566834  73.2114667  93.2105970
  72.6017046   3.4688249  55.6411266  73.4094429   3.3003539  56.1263180
  72.3480511   2.6136321  55.2939463  93.0138016  30.3543401  30.8794999
  93.2522774  31.2161350  30.5379272  93.2215309  30.4007220  31.8127370
  97.9246485  83.4737629  92.3353481  97.4726355  83.4291977  93.1779207
  98.8339627  83.2553644  92.5395191  70.7031381  94.4170899  92.6540260
  70.8394229  94.5919484  93.5851991  69.8625433  93.9607734  92.6165359
  69.1914558  21.5486026   0.8955751  69.5578241  20.9981418   1.5876713
  68.2477045  21.3956857   0.9422824  84.9748039  30.6895399  19.3192768
  84.3073940  30.2849817  18.7650919  85.1486969  31.5352988  18.9061379
  75.7419538  40.9269142  13.8743579  76.4530325  40.2880192  13.9234650
  75.9730530  41.5927458  14.5220399  88.7005187  73.5752510  19.1877568
  88.3926547  72.6860379  19.0123951  88.4898842  74.0630221  18.3915508
 116.1433054   0.0769849  49.5154124 116.4738799  -0.3854566  50.2855474
 116.7307592   0.8260627  49.4153625  92.0243132  50.8747143  63.7996894
  91.3156616  51.2308518  64.3356138  92.0564615  49.9464998  64.0312415
  14.0267454   0.1212163  64.4489056  14.0712010   0.7144733  63.6990362
  14.3589865  -0.7120900  64.1150671  75.3858745  73.6095614  95.3658645
  74.8289287  73.6888689  94.5914280  76.0412395  74.2993266  95.2612210
  81.2793732  40.5678225   9.2560655  81.4294147  41.3597536   8.7397683
  82.1109486  40.4128265   9.7040427  89.8814213  61.1043001  76.2432664
  89.8182165  60.2411426  76.6521626  89.0385353  61.5188641  76.4274174
  66.7771292  27.7955103   2.8708684  66.4449883  28.0083823   3.7429920
  66.0035896  27.8193784   2.3075712  30.1696014  14.5780766  14.3802309
  30.8127713  15.2477932  14.1477597  29.8223829  14.2776644  13.5403359
  29.0977859  45.4844189  24.4007468  29.0066385  46.4338255  24.3198395
  28.6690927  45.2724457  25.2299166  70.1487255  45.5275536  47.1887493
  69.3864584  44.9503803  47.1433830  70.7273436  45.2152729  46.4931107
  57.1071959  22.3281956   2.1519159  58.0108881  22.6039124   2.3053725
  56.6341591  23.1425047   1.9805358  89.1481602  57.5346819  91.2222525
  89.3391859  57.9933680  90.4041162  88.2916319  57.8681571  91.4894449
  47.8645372   0.5238379   5.6315273  48.7258959   0.2062530   5.3605330
  47.9984951   0.8495654   6.5215778  40.7246828  50.2013016  23.1804681
  40.3858614  49.6144962  22.5043845  39.9498034  50.4720640  23.6728954
  89.2462647  93.6101717  93.0577156  90.1103985  93.9768762  92.8705334
  89.4188893  92.8842015  93.6572152  62.3159695  11.8222141  17.4046361
  63.1971455  11.4533186  17.3440504  61.7690706  11.0904086  17.6902843
  97.4256193  30.8674545  84.6822661  96.9925320  30.9879155  85.5273437
  96.7961228  30.3711933  84.1591102  82.5200951 105.0178570  87.7292120
  82.3624193 104.1176600  88.0138445  82.2930968 105.0182719  86.7993170
  12.9816090 103.1976777   3.6751178  12.1398913 102.8326582   3.4021583
  12.8371559 103.4845763   4.5768130  79.8814154  58.6273956  35.3960800
  80.7368279  58.8447380  35.0255895  79.7495270  57.7066231  35.1702166
 115.0432312  82.9308504  77.6293915 114.4996702  83.4847540  78.1897145
 115.1873219  83.4552092  76.8416625  47.1950841  95.2489561  29.2685920
  47.6076174  94.4228429  29.5207482  47.9281229  95.8377499  29.0891200
  65.4080212  72.4220652  77.0142454  65.8527815  72.0815164  76.2380713
  65.0473845  71.6461748  77.4433929  50.6588984  56.1429167  22.3959565
  49.7959852  56.2604380  21.9987106  50.6529427  55.2420807  22.7195168
  26.9389317 109.2708010  83.7683266  27.6555226 108.7390894  84.1147452
  26.3418839 108.6376376  83.3697253  33.8004446  41.2811089  18.5227919
  33.2058501  40.7467651  19.0492535  34.4390392  41.6184759  19.1509736
  73.9081633  94.3130535  82.8509003  73.4471309  93.6602682  83.3777338
  73.7362182  95.1436705  83.2944578  44.9041319  42.2290182  44.5389652
  44.1709805  42.4806404  43.9773512  45.6536102  42.1776438  43.9457703
  93.5727656  64.0513194  85.9205675  93.7623512  63.2916874  85.3698879
  94.3844139  64.5587057  85.9164130  97.3826658  99.2838520  81.2303751
  96.6657698  99.0628857  81.8249076  97.0038187  99.9209589  80.6247347
  43.8284111  52.6990318  28.2193685  44.6041012  52.6183176  28.7743640
  43.2891989  51.9424963  28.4498858  35.6115794  55.9114408  35.5411148
  34.7856045  56.3145161  35.8085656  36.2523079  56.2356949  36.1740112
  82.7425671  18.0730450   1.7111604  82.3511696  17.2074914   1.8288539
  82.0727539  18.5781336   1.2502262  97.8512108  67.2869582  71.8716556
  98.6755097  66.8003721  71.8720227  97.3724663  66.9465393  71.1159116
  38.8031435  38.5249972   1.8133114  39.6383238  38.8175130   2.1781935
  38.4416604  37.9413247   2.4803111  83.5837173  53.2342339  48.7033987
  84.4608307  52.8685188  48.8181400  83.3590984  53.5918951  49.5623827
  53.5962486  72.8211069   2.6273820  53.4710121  72.3342085   1.8128392
  54.5348501  72.7559471   2.8034806  94.2345106  86.0473794  78.7559730
  94.2148745  86.9731159  78.5133654  95.1375019  85.7757682  78.5914701
 101.2032521  54.8102214  90.9839991 100.8407128  54.0806633  90.4814622
 102.1092903  54.8812074  90.6835216 115.2706958   4.1628737  78.3057695
 115.4590107   3.2856698  78.6393600 115.3962637   4.7381682  79.0604204
  37.9527068  45.5355835  20.2770233  37.3941636  45.2270555  19.5635295
  37.3958087  45.4895926  21.0541844  31.8646656 109.0026821  30.7883930
  32.4261605 109.7509800  30.5858874  31.7028986 108.5883231  29.9408245
  49.8455858  43.6788940  24.6246338  50.7699251  43.6150026  24.8649311
  49.8183727  44.3649006  23.9576364  72.4934101  35.4094553  10.1285100
  73.3013630  35.6747174   9.6891063  72.7603865  34.6997976  10.7127559
  47.5685883  41.6238308  38.9056230  48.0397129  42.3899937  39.2331457
  48.0428791  40.8768654  39.2707539 115.0401413 105.0443453  78.4802562
 114.7810423 105.9523529  78.3233291 114.5715296 104.5428366  77.8130799
  64.3787050  80.2591991   0.8654585  63.8324928  80.0297832   1.6172929
  64.1345978  79.6263552   0.1900717  33.5740137  39.1655898  25.4917622
  32.8405571  39.4518113  24.9473810  34.3516088  39.4799638  25.0305152
   2.4586405  36.6342163  27.8990388   1.6968782  36.4775372  27.3410034
   2.3541547  37.5371838  28.1989813  45.9320402  23.0788875  56.7942095
  45.5128431  22.6274896  56.0615778  46.6760492  22.5223589  57.0243263
  48.6744499  17.2721541  46.3525772  47.9042673  17.6123178  45.8972359
  48.4382105  17.3042262  47.2796106  80.7884502   5.8201361  10.0344980
  81.6955757   5.9693503   9.7678727  80.3153229   6.5882403   9.7145075
  70.9354126  67.3213989  64.0264255  71.1778605  67.2583956  64.9502665
  70.4650604  66.5074474  63.8461929  67.8733730  38.4113169  22.4241114
  67.1661520  37.9218030  22.0040512  67.8160048  39.2881989  22.0446157
  93.0532706  81.4377016  60.3868729  92.9470932  82.3672432  60.1846057
  92.1610367  81.0912079  60.3963357  71.4262247   1.5686084  10.5491567
  70.8346319   1.9950172   9.9291378  71.7378378   0.7906881  10.0865889
 109.8015072  48.6151123  12.3699367 110.1321163  47.8630114  11.8787384
 110.5857309  49.1108418  12.6054716  73.3757687  39.6038628  28.0302024
  72.9261160  39.5298290  27.1884394  72.7396727  40.0297022  28.6048961
  67.3891020  58.6366796   4.2305502  67.0254612  57.9151964   4.7438350
  67.1470690  58.4336138   3.3269924   5.6154763  13.1237407  71.0423833
   4.9668299  13.3986468  71.6903955   5.4426228  12.1914811  70.9110623
  48.5647964  46.4806843   9.0701151  48.4994125  45.6233406   8.6495012
  47.9485321  47.0317745   8.5876757  93.5745918  81.7296452  83.5196453
  92.7070629  81.9390983  83.8657063  93.6048662  80.7729549  83.5120898
  58.0979633  17.2008359  10.2694547  57.8610706  17.9003572   9.6605361
  57.3826647  16.5687823  10.1981425  69.7335196  25.3336167  22.9208422
  70.1500607  24.5760202  23.3316636  69.9687529  25.2638531  21.9956255
  70.9855282  76.4084286  83.6916476  70.7260072  75.7412261  83.0562573
  71.9424999  76.3951845  83.6755043  45.0366103  99.0804529   2.9648679
  44.3811404  98.7763261   2.3370931  44.7451292  98.7273573   3.8054597
  50.4561663  27.1966505  23.0510616  49.7193336  26.9785118  22.4803424
  50.4871273  26.4812350  23.6862421  92.2958755  15.8705640  35.9817791
  92.5535297  16.7699480  36.1841583  91.9487953  15.9155607  35.0908566
  55.3318071  15.5863285  17.9999197  55.5607939  15.7392645  18.9166570
  54.8528099  16.3726771  17.7382994  77.5604284  90.6620807  60.0689584
  77.9390132  90.9407348  60.9027797  76.6146075  90.7215113  60.2035838
  91.1990368  97.6380629  93.9045340  91.9617474  97.1215767  94.1648169
  90.4961645  97.3331589  94.4783248  93.8979244  18.2920659  15.1644754
  94.0643311  17.3496199  15.1828051  93.1156445  18.4076929  15.7038236
  58.1687832  14.0081942  32.3687983  57.2943401  14.3502855  32.1829009
  58.0462074  13.4365666  33.1267214  12.4241421  97.9116911  74.1104990
  12.5780270  97.9666228  73.1673509  13.2516549  98.1875223  74.5046693
  54.4543552  32.5255370   9.7607934  55.2797890  32.0455527   9.8278958
  53.9623213  32.2659230  10.5397272  45.8380318  42.0884562  48.8987112
  46.4924860  41.3913250  48.8547754  45.0262976  41.6736841  48.6066866
  83.7081909  18.2423413   4.3634549  83.6675739  19.1410160   4.0364000
  83.2932854  17.7189445   3.6777860  52.4625921  49.6465778   9.5578146
  52.8079700  49.4772530   8.6813021  52.9705477  49.0719461  10.1305366
  58.5282040  48.3984423  29.7866988  57.9926205  49.1111851  30.1350975
  59.1278887  48.8261986  29.1754413  65.0534999  98.7290329  69.7929531
  65.6500756  99.3050904  70.2709561  65.5546605  97.9249472  69.6568852
  53.7753725  38.7647939  54.5190763  53.5749960  39.6325970  54.8697901
  53.2076263  38.1709933  55.0102949  62.7831984  37.1268582  12.3061514
  63.3982515  37.8492641  12.1793878  62.1174622  37.4798822  12.8964114
  98.7887060  79.2043776  84.8832983  98.4602082  79.5475811  85.7142812
  98.0026638  79.0586418  84.3568665   7.1260998  56.1119575  91.0653183
   6.4943764  56.1566927  90.3475758   6.8006489  56.7398806  91.7103201
  55.5377579  46.7956448  14.9531090  54.7584915  47.2626209  14.6515918
  56.2472200  47.1371746  14.4088221  40.4783821   4.7770655  33.7937355
  41.1859417   4.4623017  34.3563294  39.6805215   4.6066952  34.2943597
  83.8447630 101.4863867  83.6273199  83.5524237 101.6611571  82.7327662
  83.9593565 100.5366558  83.6606043 101.2480890  68.3476824  85.7456946
 100.4834711  67.9538042  85.3256380 101.9608605  67.7334101  85.5700272
  54.9513912  40.6585884  30.7085443  54.9968004  40.5755377  31.6610527
  54.0375280  40.4702187  30.4949999  86.0505831  74.1339297  92.2075951
  86.9332087  74.1921050  91.8417805  86.1163056  74.5623893  93.0610202
  32.6868796  34.6749377  54.9063730  33.3048463  34.2344642  54.3229961
  31.9138575  34.8298573  54.3635368 103.1802666  99.5946354  81.9660717
 103.3145249  98.9023966  82.6133793 104.0269482 100.0376076  81.9100100
  97.2154963  77.1226329  89.6987790  97.2552216  76.3669581  89.1125965
  97.8861487  77.7192015  89.3662715  55.3212404  37.9775620   9.1471803
  55.6359005  37.8098893  10.0354970  54.7329426  37.2461963   8.9594358
  43.9630222  17.2511101  20.1462412  43.8616371  16.6848648  19.3811810
  44.6924019  17.8288567  19.9216378  41.9156348  12.1407886  93.7058514
  41.0978018  12.2407479  94.1930849  42.1825396  13.0365701  93.4995426
  86.3737499  97.2970576  85.0201028  87.2751057  97.3377461  85.3396886
  86.2910187  96.4190955  84.6478480 112.0135605  94.9304671  85.3536856
 111.8766701  94.2434711  86.0060102 111.3889849  95.6153817  85.5924856
  54.6349955  48.2669449  38.0399585  55.1969576  48.0599499  37.2932434
  54.1101837  49.0113878  37.7456570  97.8683340  87.0245904  80.8264106
  97.9020035  86.9683976  81.7813664  98.7473404  87.3052806  80.5718642
  25.4661022   7.8718801  92.2702414  25.8775746   8.7348933  92.3163354
  25.7899224   7.4105163  93.0438810 108.7795222  78.1866044  74.6470481
 107.8524124  78.4083862  74.5603424 109.2213881  79.0318055  74.7283989
  80.9911346  37.3636484   2.2610088  81.2637997  37.1811748   1.3617912
  80.8158970  36.5013576   2.6378071  72.0139980  45.9922266  34.4997287
  71.8775558  46.6171169  35.2118587  72.9528475  46.0367537  34.3185949
  45.2542639  16.0629725  11.0348082  44.5956612  16.4384258  11.6191971
  45.8663750  16.7804933  10.8713579 108.4118902  73.1314415  90.1071566
 108.5538447  72.2116322  90.3308341 108.4106743  73.5854263  90.9498477
  71.1670446  29.0185332  19.7043049  70.2561045  28.8999271  19.4353247
  71.5623474  28.1530952  19.5995045  39.1392159  85.0298595  19.0214443
  39.5754623  85.2205658  19.8518372  39.1040039  85.8732605  18.5701597
  66.1637509  80.4458064  92.6835550  65.7864058  81.0750360  92.0688098
  65.7206428  80.6257910  93.5127070  57.1397018  39.4859576   1.0424752
  57.5780487  39.4804311   1.8933892  56.5837908  38.7068200   1.0543617
  49.8472500  65.0348473  28.4224200  49.5900154  64.3066406  28.9879107
  49.6009874  64.7526217  27.5415468   3.8810526  22.5365968  75.5139667
   4.8202502  22.6957746  75.6077736   3.8248001  21.6958613  75.0598365
  16.0716473  16.9880052  78.5516876  16.9887577  16.9205899  78.2859868
  15.6867682  16.1488099  78.2989889  61.2414825  96.9933695  83.1443840
  62.0985424  96.9752068  83.5702354  60.7878840  97.7320189  83.5504323
  41.8666159   4.5480342  60.2051407  41.4839255   5.1972289  59.6149498
  42.0492922   3.7935061  59.6451813  71.7967319  64.8365593  15.0468183
  71.9598866  65.2662420  15.8864522  71.3081980  65.4833651  14.5376956
  68.3492327  79.8040342  37.9550219  68.0611706  80.7099915  37.8432274
  67.8046083  79.3028927  37.3480010  68.6915970  65.1855946  12.5370955
  69.1904831  65.0444269  11.7324746  67.9692745  65.7559586  12.2740960
   9.5090948   6.8980880  65.0873261   9.5532595   6.1649318  65.7011324
   9.6836554   6.5052791  64.2320710  59.9610138  19.6358180   8.4397775
  60.0408745  18.6857033   8.3553040  59.0456533  19.7787833   8.6804110
 114.9447155  27.9967976  10.4186034 114.3664169  27.4580646  10.9585702
 114.9624825  28.8458729  10.8601785  56.4507246  29.4303274  27.0682001
  56.5572262  29.4222212  26.1169791  56.1792231  28.5387564  27.2864175
  71.6749620  46.4899063  49.5565701  71.3996220  46.2836456  48.6633301
  71.2494087  45.8250284  50.0979328 109.9531805  84.8959655  93.0473557
 109.6413290  85.7666034  93.2942778 110.3135550  84.5323414  93.8561444
  79.8752308  50.7659531   3.5839823  80.5694485  51.1115932   4.1450727
  80.3369236  50.4001665   2.8294796  27.6599264  62.5655413  16.2016428
  27.1854305  63.1410980  16.8014944  27.0598793  61.8365669  16.0442495
  83.3971846  86.9070048  89.2223263  83.9629662  87.6216478  88.9300734
  83.7949288  86.6053027  90.0390321  59.1574144  62.5780535  13.1823385
  59.6335030  62.2352886  12.4259770  58.5242701  61.8931103  13.3973169
 108.2284415  81.6997260  85.5769104 108.8190281  81.4166684  86.2749934
 108.7210476  82.3702258  85.1036203  65.2654076  48.3966589  33.3556128
  65.6619453  47.5273705  33.4132862  65.2201605  48.6999083  34.2623782
   0.9044812  87.5070686  94.6302586   0.0019715  87.7773685  94.4610119
   0.8408139  86.5740198  94.8342133  67.3075771  55.5661726   7.9383546
  67.9882145  55.9445095   7.3817390  67.1885061  56.2064552   8.6398464
  66.0028267  36.4702821   6.6330177  65.5797243  35.7780910   6.1249936
  65.2899456  36.8738270   7.1281743  92.5455666  53.8812304  43.3268213
  92.9000950  54.7642660  43.2229567  92.5798225  53.5044336  42.4475718
  63.5586893 107.8040594  66.0112196  63.1222284 107.1774477  66.5883595
  62.8644073 108.4054322  65.7418567  79.6923780  23.0015302  20.7081842
  78.9314127  23.5795498  20.6528974  80.4351044  23.5609722  20.4810023
  59.7483110  71.3837910  28.3644104  60.6120253  70.9790564  28.2842946
  59.5860815  71.7740345  27.5055623  49.5231295  17.7718794  11.8666971
  49.7617531  16.9468832  11.4440012  49.9181318  18.4468246  11.3147390
  81.1632347  54.7811413  42.1851254  80.3288269  55.2328396  42.0587826
  81.2412357  54.2049837  41.4247370  69.6625376  92.3764229  27.6396608
  68.8162804  92.8006649  27.4978805  69.4432163  91.4685822  27.8492785
 104.8658049  99.9615473  86.6479015 104.2956030 100.5467362  86.1492437
 104.4429552  99.1050429  86.5860438  62.6303577  48.3733606  26.8414617
  62.8847837  48.3150768  25.9205365  63.3446455  47.9467154  27.3147464
  89.3813705  68.1510735   7.0376635  88.7011719  68.1569862   7.7111065
  90.1530838  68.5126114   7.4735188  48.7958609  12.7618070  88.4833997
  49.4560133  13.1180186  87.8888088  48.3352362  13.5311027  88.8184327
  50.0379181  63.1418753  32.2114253  50.8219242  62.7829933  32.6270771
  49.3359327  62.9758787  32.8406262  69.9332476  46.0982609  37.2084069
  70.4656887  46.7592382  36.7658615  70.2681446  46.0819101  38.1049609
  92.9430878  70.6317515  62.1617251  92.4132311  69.8486835  62.3110109
  92.3044836  71.3381953  62.0650178  52.5115156  43.0440140   9.4696409
  52.7777910  43.6350298   8.7653512  53.3191776  42.8668547   9.9518549
  63.6728144  52.3744965   1.5643057  62.8837681  52.0695972   2.0122789
  63.5318756  52.1425152   0.6463988  85.5728352  85.0596279  75.8825129
  84.7497332  84.6790261  76.1889094  86.1301243  84.3046707  75.6935709
  53.0011511   6.4676309  18.0701411  53.2850266   7.3085105  17.7115750
  53.1801987   6.5344906  19.0080667  50.6029034  41.5712738  13.7057853
  50.9933233  42.3094988  13.2379913  50.9103298  41.6691875  14.6069705
 113.7274563 101.2547488  79.7180146 113.5104096 100.3451247  79.5137852
 114.6500933 101.2296814  79.9716872  92.0498812  75.8584542  84.3490904
  91.1343729  76.1360783  84.3806904  92.5457680  76.6402406  84.5922798
  65.8418941  39.7863340   5.4310322  65.2842617  39.4569492   6.1358601
  66.1661816  38.9987445   4.9942598  81.8122673  36.1352468  28.7800360
  81.6443253  36.8749309  29.3638968  82.6193523  36.3700223  28.3220840
  10.1133893  76.3280315  79.8050207   9.3521664  76.8866319  79.9623126
  10.8638737  76.9157404  79.8922866  11.5276991   7.9509254  85.6244939
  10.7342230   8.4228082  85.3715956  12.0062004   7.8301330  84.8043257
  93.1890785  70.0094861  87.0395374  93.9042866  69.4381840  87.3194057
  92.5683081  69.4223148  86.6081375  48.8981390   5.9949058  18.1435227
  48.5513020   5.3504002  18.7604082  48.1929874   6.6344416  18.0435860
  28.5062096  58.6103920  89.6117651  29.0537999  59.1152344  89.0105063
  28.1187985  59.2665002  90.1911294  87.2285366  50.4774904  27.1229649
  86.3357925  50.3277779  26.8117738  87.6088524  51.0764790  26.4804697
  14.3311249  13.2740636  73.0556756  14.1187369  14.1427035  72.7142173
  14.3444525  13.3870025  74.0060955  46.1730576  54.7349596  10.7466376
  46.7973280  54.0335560  10.5607474  45.3143644  54.3289471  10.6281805
  15.2723858  96.2222857  75.8136683  15.0223897  95.6061644  75.1251012
  15.4429886  97.0425410  75.3507298  45.4405594  29.8521399   4.0110320
  44.6262741  29.3516064   4.0623516  45.1597071  30.7479095   3.8240847
  50.9550238  68.1893730   0.3926550  51.3093901  68.5431862  -0.4231112
  50.1084852  68.6243534   0.4946166  51.6446114  86.2893200  22.0629454
  51.5487576  86.3345242  21.1116290  50.8152962  85.9230900  22.3701000
 105.2837658  47.0775509   0.0115468 105.9889984  46.5399027   0.3718286
 104.4808388  46.6564178   0.3184487  99.1067469  83.2601613  85.3106349
  99.9569237  83.2106919  85.7476479  98.4846222  83.4368057  86.0163206
  91.6089785  93.1342334  39.7082740  91.9668257  94.0025801  39.5234757
  91.7415678  92.6430268  38.8974887  71.4696932  23.3326077   9.9573976
  72.3425007  23.6439133  10.1972461  71.4002085  23.5132217   9.0199637
  70.4343748  51.4615631  20.5534005  69.4949579  51.5090656  20.7308006
  70.7420683  50.7286644  21.0867071  62.3211288  31.1236072  17.0889354
  63.0478954  30.9031534  16.5063190  62.6790142  31.0148454  17.9700255
  72.5463140 100.4342264  85.8978110  72.8371584 100.9177155  85.1245844
  71.7169988 100.0360436  85.6333905  95.6913280  57.3910189   2.6788256
  94.9474812  56.8431520   2.4282804  95.7484055  58.0488777   1.9858660
  53.2324266  46.9496632  23.7977028  53.7270403  46.2931871  23.3071613
  53.1914139  46.6022205  24.6886778  40.9033012  27.3968744  14.4241309
  40.2814579  27.8546333  14.9898160  40.5706167  27.5392056  13.5379624
  49.5155573  27.7003169  19.8383057  48.7442732  27.3573351  19.3869603
  50.1340818  26.9698191  19.8444033  35.9504318  31.4063191  18.1128955
  35.0678349  31.7703581  18.1816971  35.8958817  30.5602980  18.5573089
 114.4909060 105.7610888  58.6545115 113.6447441 106.1997694  58.5662108
 114.6344387 105.7054896  59.5992547  59.7429943  37.4868679  17.3291016
  60.5707073  37.0084715  17.3766780  59.2272139  37.1463871  18.0600405
  46.4605665  42.0191002  23.3622146  46.0529661  42.1616507  24.2164826
  45.7503176  42.1475983  22.7335167 101.2654282   1.3779302  61.0635239
 101.3489915   0.4293389  60.9664374 101.5910483   1.7329545  60.2363831
  28.4987055  25.2166505  85.5723506  29.0637337  24.7522779  86.1898732
  27.7413355  25.4823728  86.0938996   6.6467164  96.1607880  70.3736692
   7.0713589  95.3034157  70.4022890   6.0687707  96.1165137  69.6119243
   7.7890370  88.7787265  93.4629683   8.0959199  88.4465117  94.3065807
   6.8763325  89.0214509  93.6188176  41.8484831  54.2863750   1.5714025
  42.2143316  54.0556240   0.7175045  41.4539814  55.1482296   1.4379659
  75.8211184  43.3387518  15.1110518  74.9178219  43.4789801  15.3949916
  75.9612465  43.9928246  14.4263732 114.6315170  22.2100778  91.0535267
 115.3245426  22.4827857  90.4522136 115.0445629  22.2234864  91.9169181
  87.7219391  35.8841181  33.6109853  88.0224705  35.0347209  33.9341521
  88.5006523  36.4400649  33.6386347 104.6431256 103.5793709  41.9857693
 105.3290058 104.1084480  41.5784883 104.2348815 104.1656738  42.6228094
  50.2290010  19.4344163   9.5809662  51.1612272  19.6515381   9.5870632
  50.1207018  18.8648772   8.8193047 114.2429077  62.8200478  88.7296164
 114.8973000  62.2054506  89.0616917 113.9408219  62.4285889  87.9100209
  91.6861355 105.0929446  91.1000806  91.5903294 104.3581337  91.7059743
  91.5492403 104.7087569  90.2341178 107.5334322  94.3577308  75.1618975
 107.2004711  93.5157532  75.4724473 108.1820547  94.1280908  74.4964725
  94.2330742  37.7580762  15.5495548  94.7580624  36.9997835  15.2934158
  93.5563469  37.8196096  14.8753989   3.3178780  60.7725460  74.1480356
   3.4231255  61.6226870  74.5751339   4.0649674  60.2574057  74.4525367
  79.1184807  40.1052332  31.3156343  79.0833664  39.6027231  30.5017018
  79.7443676  40.8070755  31.1369967  62.6361322  28.2213163   5.4530829
  63.3387709  28.3906722   4.8255089  62.3890495  27.3100233   5.2958405
  26.1066315 108.1173939  75.8384710  26.3192532 109.0414662  75.7076484
  26.2941907 107.7066511  74.9944669  86.1755192  72.2578341  78.3829647
  86.5258419  73.0308348  77.9402751  85.6278336  72.6109809  79.0840786
  83.8733768  40.0204754   0.5575273  83.5515404  40.4478884   1.3512309
  84.4390202  39.3173289   0.8766920 110.0276291  93.5167641  93.0371000
 110.3615772  92.8903980  92.3949346 109.0756094  93.4398574  92.9740439
  30.6639957  67.3755884   8.4906143  30.1134300  67.3415756   7.7083415
  30.2694893  66.7410660   9.0889269  79.5259344  73.2155580  49.3579942
  79.7904169  72.7245993  50.1359683  78.6831057  73.6029107  49.5942861
  62.2319400  98.7283034  86.5851944  61.4131629  98.9578051  86.1456883
  61.9586551  98.3781189  87.4330848  92.5525761  48.0994225   1.2689979
  92.3999310  48.9591074   0.8767366  91.6985989  47.8384161   1.6137384
  99.1754150  44.9052620  46.4790344  98.3350754  44.6052790  46.1325312
  99.2097092  44.5483208  47.3665285  33.9790702  38.3657622   2.2160698
  34.9098325  38.4861827   2.0278797  33.6435533  37.8788805   1.4633381
  50.1608515  60.7392597   2.8469512  50.7121515  61.4521503   2.5243303
  50.5034876  60.5477858   3.7199754  33.8600349  27.5399709  12.6052153
  34.2214298  28.0737019  11.8975747  33.1976318  26.9952703  12.1800661
  55.5807018   3.0904248  19.3475902  56.5107822   2.8994125  19.2263627
  55.1476955   2.6441246  18.6198843   1.0781227  16.1402459  75.0778252
   1.6198717  16.4064498  75.8207100   1.7017685  15.9958215  74.3661791
  10.6309102  93.4159464  87.7270263   9.7201417  93.3936376  87.4333834
  10.8892892  92.4955959  87.7762919  33.5076687 109.7246403  87.4365401
  33.3651326 108.9877886  88.0306476  34.4382260 109.9294514  87.5279271
  66.7962217  20.0527501   1.0818886  66.4691496  19.6022391   0.3032381
  67.4317884  19.4454741   1.4607105  86.0958004  26.4217257  29.1839600
  86.8223476  27.0418024  29.1217589  85.4853535  26.6987157  28.5006809
  20.6601119  44.6548748   1.8870512  20.4445052  45.2997589   1.2133504
  21.4048004  44.1727686   1.5275441  82.7453959  94.1247148  66.2709242
  83.2349121  94.3390579  67.0650655  83.2343590  93.4029908  65.8756262
  61.5728283  17.8959274  28.6587906  60.7852221  17.6344562  29.1357994
  61.3188887  17.8556049  27.7367711  71.5220308  83.5160351  10.7753265
  71.5167618  82.6731014  10.3218138  70.6044817  83.7884998  10.7850885
  84.7479534   5.3018701  50.1091385  84.5313358   4.4401082  50.4650545
  83.9144993   5.7724404  50.0971079  49.7977257   8.6398220  16.2293649
  49.5326662   8.9534801  15.3647304  49.3076706   9.1868842  16.8432045
  92.8879834  25.6392903  77.5501090  92.7076186  25.3817506  76.6460210
  92.4125076  26.4621778  77.6641422 111.9774973  81.8676133  69.0969425
 112.7624285  81.7437119  69.6305710 111.4096653  81.1338157  69.3321806
  95.6924736 103.2507319  93.9870436  96.3190806 102.6611513  94.4065571
  95.2954495 103.7334675  94.7120036  60.4005623  53.4501266   2.5286150
  60.8091593  54.2983580   2.7011922  59.4805193  53.6565542   2.3638713
  60.3199005  46.2675095  15.6338847  59.6446705  46.8753862  15.3325796
  60.2827120  46.3223648  16.5887880 106.7419970  65.1586205  85.0133306
 105.9771549  65.5766863  85.4088932 107.4903023  65.5704564  85.4453754
  96.4724827  53.8613176  24.1297483  95.7315922  53.3712482  23.7731695
  96.5872002  54.5950842  23.5258794  27.3349749  12.9018588  62.9433399
  27.8359972  12.1229501  63.1852275  26.8483244  12.6404138  62.1616465
  79.2131817  89.1101307  93.5714774  79.8042404  88.4639639  93.1850193
  78.6975491  88.6133379  94.2067347  22.9842125   4.9198718  47.3881322
  22.1451269   4.5324035  47.6372081  22.7695118   5.5145021  46.6694194
  90.1045906  70.9147019  68.8193208  89.2362129  70.7021875  69.1613585
  90.4536164  70.0770671  68.5147196  47.6112604  67.2143173  -0.1791179
  47.4016857  66.5498590   0.4772375  47.5562763  68.0443954   0.2943585
 110.3161156  96.0732502  44.2401916 109.4005978  96.1603112  43.9747077
 110.6089318  96.9723601  44.3888217  23.1158625  87.6213884  19.8269963
  22.2920595  87.8747415  20.2434015  22.8556334  87.2694039  18.9757502
  79.2588425  50.2080011  24.1131258  79.1060495  49.2644024  24.1631722
  79.2157555  50.5061340  25.0216913   3.5187886  99.5742554  88.7357527
   2.7628396  99.4250864  88.1678444   3.3025143  99.1158480  89.5477384
  77.9411208  70.0814051  79.5725721  78.5953128  69.7549195  78.9547759
  77.7464354  70.9680504  79.2689460  80.7626545  73.1421978  64.0846663
  81.7127669  73.1131810  63.9720589  80.6360590  73.5192746  64.9553090
   1.9947693  96.2889523  84.5975333   1.3499425  96.9827265  84.4593209
   2.7875588  96.6097159  84.1676157  46.2813139  38.7879062  11.6413176
  46.2621450  38.0593538  11.0207725  46.4960003  38.3817005  12.4810433
 102.5695574  81.4981741  71.9980436 103.2289517  80.8292074  71.8138867
 101.7984307  81.2162442  71.5059954  49.5193182  19.1018815  75.6338149
  50.0454794  19.9012322  75.6132465  49.7887217  18.6584420  76.4381891
  59.4444704  61.9245481   8.0947453  60.0620508  62.4853659   7.6253706
  58.6355162  61.9809294   7.5861710  54.5534992  37.7236485  22.1470881
  53.7590218  38.2116127  22.3637247  54.3683147  36.8275595  22.4280906
  85.4585838  66.9945955  21.2956333  84.7196770  67.5701046  21.0980558
  85.0559616  66.1535406  21.5118718  54.1158282  31.5613408  71.3316804
  53.6897456  31.8144746  70.5127722  53.7771593  32.1797986  71.9790202
  46.3256264  44.3805599   0.2313619  45.7933283  44.9120331   0.8233318
  45.7789183  43.6196184   0.0356469  97.7670574  40.8376884  37.2175908
  97.0927429  41.4046431  36.8432975  98.4606647  40.8228874  36.5581036
   6.1733983  92.1720428  86.9032126   6.1281369  91.3767332  87.4339384
   5.5721734  92.0094699  86.1763471  47.3494291  27.4909663   7.6074815
  48.1291008  27.6282120   8.1455439  46.9979668  28.3700633   7.4664360
  74.2165661  20.6073308   6.0473979  73.8037157  20.8636594   6.8720698
  73.4961414  20.2745032   5.5121875  49.6642971  65.6062698  19.1573656
  49.4101906  65.0499725  18.4210277  50.3754568  65.1285028  19.5842469
  36.1843443  45.5724764   6.5202957  36.6657591  44.7496414   6.6063964
  35.7239842  45.4943228   5.6847179  83.7128830  60.0268555  31.4713335
  84.1243076  59.1705275  31.3544416  82.8066826  59.8271322  31.7061591
  67.9867363  53.5755205   0.8039697  68.1769228  52.7698517   0.3233905
  68.5935402  53.5618210   1.5441237  52.0534420  41.3170767  16.2696242
  52.9871893  41.1064959  16.2703598  51.9318247  41.8691921  17.0420289
  36.9105803  -0.2722602  90.6445193  37.4532830   0.1236005  91.3264301
  37.1786057   0.1693196  89.8386651  96.7877197  49.6594000   1.7107210
  97.3036766  48.9050007   1.9951595  97.3589611  50.1231337   1.0984558
   5.3089688  80.4036302  89.4118196   5.5548356  81.3279695  89.3746966
   4.8199437  80.3185481  90.2302605  66.1605536  17.6094384  81.9433647
  66.8752466  18.2440181  81.8908125  65.6057726  17.8105636  81.1897069
 105.3965282  50.2308083  22.4154115 104.6996117  50.6834698  21.9403958
 106.0127926  50.9233427  22.6538396  98.8263237 100.0564188  85.8012044
  98.1007683 100.3379340  86.3584745  99.1221964  99.2336172  86.1906767
  93.1901169  63.8316488   9.5712310  93.0139160  63.0486202   9.0496516
  92.7185822  63.6844158  10.3911138  74.8339415  41.5899038  24.1077089
  75.1056767  40.8703136  24.6774340  74.1679811  41.2056160  23.5375714
  79.2634439  58.4766436  12.4349344  80.0819492  58.7197256  12.0022798
  78.7913275  59.3031549  12.5360334  71.0963917  43.5827255  25.0171733
  71.9860029  43.2332182  25.0688195  70.9747267  44.0510464  25.8430696
  96.7973232  54.6048689  14.5483720  96.3560486  54.0945911  15.2274406
  96.3389206  54.3749714  13.7401342  42.2479105  38.2772779  28.9915991
  42.3522377  37.5341678  29.5858502  41.3020134  38.3521295  28.8654637
   3.8419983  80.4481644  94.5888474   3.9132474  80.4481286  95.5433916
   3.3150170  79.6747464  94.3879783  45.9713984  17.9311502  24.5694923
  46.3794088  17.3606026  25.2208257  46.3299608  17.6344967  23.7330341
  56.5633345   9.0516865  25.6801629  56.4129210   9.9277604  25.3250527
  55.9348917   8.4954923  25.2197981  60.4245424  30.5825567  14.9755383
  60.7329512  30.6132984  15.8811700  60.5212831  29.6650195  14.7205901
  67.6005173  34.2711306  30.7758665  68.2198191  33.6663008  31.1843824
  67.6166058  34.0394545  29.8472667  14.9374104  59.6794653  26.8735218
  15.6121266  60.3524685  26.7837524  14.1161418  60.1687002  26.9224739
  32.6008296  42.8573513  10.5960572  32.8844237  42.1889019  11.2197387
  32.1437168  43.5059214  11.1314440  37.6798760 103.7473183  17.4474227
  38.6263739 103.7253016  17.5884604  37.5291287 104.5571946  16.9599724
  79.9186659  47.5054836   0.7035578  79.0226698  47.7720785   0.4977691
  80.4195976  48.3210754   0.6931590  37.6085830   4.4585532  24.7304773
  38.4064555   4.9558994  24.5508170  36.9009304   5.0158536  24.4066286
  84.3558132 101.9497437  89.8583752  84.2404711 101.2839598  90.5363568
  84.5682251 102.7486653  90.3409081  38.7648129  30.1609397  20.1514053
  37.9866123  29.6976399  19.8415792  38.4522557  31.0412979  20.3599906
  66.1244249  44.8515415  25.3909373  65.5078220  45.3868580  25.8904076
  65.8139324  44.9087572  24.4873047  55.0600815  31.3548064  38.2249546
  55.1268768  32.2447872  38.5709357  55.9671259  31.0585117  38.1493735
  86.2464237   9.4381636  30.1447535  86.8349648   8.8357717  30.5996990
  85.4979801   8.8972443  29.8928165  76.8398952  62.9214334   3.1927505
  77.3583031  62.2361279   2.7710402  76.9465065  62.7597761   4.1301578
  82.8413677  65.7935762  19.1619647  83.1225586  65.8914900  20.0716782
  81.8887615  65.8812809  19.1949558  70.5281734  33.3656931  10.9533393
  70.7950497  34.0285444  11.5902376  71.1285639  32.6351857  11.1020696
  83.4742546  27.3884773  39.4709706  83.7591839  27.6336765  38.5906744
  84.1275978  26.7542982  39.7662354  10.6428299  15.9106469   1.9679135
  11.5158997  15.6285989   1.6950986  10.1036892  15.1228809   1.8973196
   1.8283640   6.8875451  89.9262804   1.6167771   5.9547896  89.8884183
   2.5532471   6.9939084  89.3102759  90.9543610  46.6896772   7.5234932
  90.3624439  46.8422747   6.7868996  90.9092140  47.4955893   8.0379778
   2.9490159  83.9560956  59.7642356   2.5201867  83.9046926  58.9100152
   3.4940121  84.7412438  59.7117764 112.3086263  13.7194629  71.0387164
 112.9482032  13.1929250  70.5592066 112.5335551  13.5891480  71.9599420
  82.3941422  88.0912590  23.2238412  82.7635765  87.3510838  22.7422881
  83.0647087  88.3160496  23.8688517  77.1681499  32.2078633  22.6402116
  76.9607592  32.9791188  23.1678343  76.5578032  32.2500896  21.9040585
  50.7036448  60.4193926  24.2408895  50.3904390  59.7885513  24.8890972
  50.9363604  59.8862171  23.4807587 100.4377281  80.7393617  78.3721238
  99.9285424  80.1549429  78.9337438 100.6448042  80.2106780  77.6015097
  37.0610380  44.9699926  43.6287212  37.7211738  44.9408865  44.3212557
  37.5656867  44.9471998  42.8156757  19.4154965  24.5320601  87.2386008
  19.6599804  25.4100080  87.5312805  18.6070429  24.6613736  86.7427081
  74.8935509  25.6446743  13.7124586  75.7894135  25.7176018  13.3833110
  74.8815632  24.8169041  14.1929615  47.7005005  49.9728012  11.0910451
  46.8978786  49.4590282  11.0012054  48.2203054  49.7415972  10.3212559
  53.0199992  33.6833997  88.1237554  52.3845469  32.9696412  88.1782841
  53.4073340  33.7265534  88.9980209  14.9857508  20.0167556  89.6591013
  14.5069014  20.8364768  89.7815329  15.6631743  20.2287097  89.0169155
  81.8677139  67.1325016   2.4475195  81.7574692  66.4356852   1.8005814
  82.8059387  67.3219061   2.4380000  33.0809151  24.6975179  82.1225399
  34.0337788  24.7658105  82.1826774  32.7908264  25.5825276  81.9015437
  90.6983852  68.8020802  22.1060491  90.2564049  69.6243429  21.8944502
  90.7718468  68.8083458  23.0604053  82.9581356  38.9513683  23.3255267
  82.2351265  38.6709619  23.8866520  82.5656509  39.5901966  22.7304721
  56.7549133  85.5695915   6.1979884  56.4564943  86.3696671   5.7654780
  57.5089884  85.8458614   6.7188329   8.9166520  86.2617630  68.3700901
   9.7530148  86.7272658  68.3754068   9.1412327  85.3630037  68.6109835
  71.2954712  62.3107147  14.8985684  71.4785671  63.2494450  14.9371934
  72.1412516  61.8946648  15.0652432  19.8788534  40.3944058  93.8827535
  20.6523787  40.6089349  93.3613425  19.3547760  41.1953492  93.8745025
  99.7753239  53.2670307  31.6616392  99.9753189  52.3493338  31.8461919
  99.7880554  53.6920834  32.5191927  72.1464539  30.9983993  16.3974106
  72.9677963  30.6202435  16.7114532  72.3648405  31.9070697  16.1903942
  40.1167557 109.4285769  63.8428527  39.3025944 109.7064204  63.4231239
  40.0986645 108.4729237  63.7915498  68.1480265  62.7310753  30.9482694
  68.8925982  62.9275799  30.3797364  67.4826956  63.3737850  30.7023168
  76.2549496  39.8915982   9.7454816  76.4987135  40.4974842  10.4452777
  77.0894957  39.6124887   9.3688273  56.2662506  35.2118921   5.4245716
  56.0093832  34.5922065   6.1073887  55.5711699  35.8699918   5.4245871
   0.2998696  92.3164368  24.1964459   0.1413689  91.6316414  24.8461938
   0.9435234  91.9354725  23.5991144  10.8145605   9.5990558  81.4104050
  11.5570008   9.2307611  81.8893391  10.0874173   9.0074296  81.6039675
 108.7703669  81.3088579  88.0751157 108.3309805  82.1534437  88.1743526
 109.0641892  81.0864658  88.9585423  13.6347090  53.6819024  78.9358932
  12.8892599  53.2232327  78.5483902  13.9706837  54.2329259  78.2289797
  74.7176170  53.0387688  50.4635811  75.2299690  53.1648636  51.2622213
  73.8883543  52.6692057  50.7668638  66.0704218   7.3296351  80.4962057
  65.2096926   6.9388194  80.3457385  66.6911970   6.6440005  80.2496654
  28.3756243  24.8442550  66.5981394  28.2992922  24.0329785  66.0959106
  28.8694559  25.4334302  66.0278445  66.4877558  43.1490707  15.7719636
  67.0242023  42.4817896  16.1999750  67.0538425  43.5101509  15.0897598
  81.3418102  76.3837528  18.5553420  81.8762875  77.0903826  18.1930792
  81.7393112  76.1943722  19.4052601  47.1428108   7.1023118  38.1980538
  46.7165232   7.9323786  38.4113646  47.5584078   6.8293601  39.0159822
  49.1972243  10.6189628  77.5488692  49.3685519  10.7921929  76.6231972
  50.0661074  10.5528016  77.9449731  42.2537110  94.8812002  92.6235063
  41.6501591  94.2317695  92.2626769  41.9151280  95.7211298  92.3134914
  34.7900841  96.9750876  87.5089526  35.0754712  97.8061575  87.1293294
  34.1448090  96.6371483  86.8879503  66.8473291  32.7618814  18.1467676
  67.0543289  33.6180520  17.7721322  67.6833153  32.2957397  18.1553411
  71.9201136  30.8202410  11.4025497  71.6380215  30.0341344  11.8701982
  72.8235149  30.9573293  11.6876888  89.9357414  61.7922783   3.9399549
  90.0889397  60.9333563   4.3336701  90.5143547  62.3832655   4.4217980
  64.1947031  22.5013661  12.0249331  64.0324068  22.8291726  12.9094875
  63.7187529  21.6718030  11.9858503  76.7290628 105.2094836  47.3484546
  76.2659943 104.4827980  47.7652579  77.2917425 105.5618948  48.0379706
  63.4462357  38.7732577  17.6727295  64.0492058  39.4347906  17.3335719
  63.4747505  38.8877058  18.6226344  50.3660666   4.1506524  72.2375423
  49.9447714   3.8664718  73.0487090  51.1524950   4.6140332  72.5256949
  87.3472595  71.3256407   1.8996620  87.2241592  70.6743336   2.5902227
  88.2806873  71.2813663   1.6923106  62.0029436  25.9452100  82.4702245
  62.7852713  25.6691880  81.9927162  61.6950213  26.7190976  81.9985157
  94.1850948  97.8892231   2.6601741  93.4750843  97.2539139   2.7524251
  94.5503807  97.9697895   3.5412562   9.3022225  99.2316861  62.2582799
   8.4742901  99.7090811  62.3117643   9.8455117  99.7592396  61.6728288
  39.7867810 106.0309576   7.5851214  38.8932596 105.9685519   7.2475469
  40.3140389 106.2733080   6.8238729  12.2118866  69.5974159   8.0416673
  12.1587241  69.8217154   8.9706969  11.7078865  68.7876034   7.9615700
  71.6059875  34.6132827  23.6079979  71.8306398  33.8333559  24.1154218
  71.6108084  35.3250265  24.2480230  50.7107925  53.3372021  12.2308850
  51.0548830  53.0215788  11.3952911  50.4613066  52.5425863  12.7026629
  97.3421955  53.9404678  27.9672909  96.6833591  54.2359972  28.5956478
  96.8418121  53.7190723  27.1819043  98.9344311  55.3942060  62.0615101
  99.1509438  56.0738754  62.6997900  98.0894470  55.0520325  62.3533154
  50.9560013  61.2921238  15.8805716  51.8502235  61.0394764  16.1102819
  50.8919907  61.1190224  14.9413311  67.6047611  38.3226299  12.8987372
  66.9806862  37.5971532  12.8776515  68.3467960  37.9857302  13.4008408
  52.2512614   3.1342645  91.6744092  51.9576155   2.3592896  92.1533835
  52.3999869   2.8220935  90.7818496  77.6960516  70.6431389   7.3524100
  77.1699476  71.1388350   7.9798913  78.6017561  70.8201599   7.6065743
  44.5344257  52.2608185   8.1286550  45.0632763  52.7634525   7.5090563
  45.0253248  51.4495754   8.2595688  10.9707806  96.5755696  93.3533397
  10.0466225  96.6548724  93.1169471  11.0051415  96.8320889  94.2748869
  28.0146337  60.7968473  18.5603094  27.8269315  61.6347980  18.9831984
  28.0500722  61.0026217  17.6261616  31.6961085  22.7646585  80.8096915
  31.6010128  21.9491906  81.3018352  32.2666060  23.3075995  81.3537270
  81.6014481  38.4046626  44.4404364  81.4327145  38.8102698  45.2908754
  82.0155144  37.5680017  44.6520472  58.5555254   6.8103833  85.6917184
  57.7760588   7.1184726  86.1540502  58.3183848   5.9379001  85.3774422
   3.9496014  94.0879578  89.5862996   3.4231541  93.4897131  89.0560257
   4.1811917  93.5788459  90.3630864   2.0896695 109.5586294  54.7819692
   2.7742837 110.1673312  54.5044547   2.0911477 109.6159453  55.7374507
  20.7256638  26.5552850  88.6626547  21.3190829  25.8963819  89.0231073
  20.4888283  27.1003957  89.4129848  21.4555012   7.1310802  72.6038581
  21.4548575   6.2128825  72.8743130  21.9035183   7.1312995  71.7579800
  36.8339669  11.6197486  87.5181347  36.8373476  10.9990878  86.7894345
  37.4763380  12.2844405  87.2695899  29.3254635  90.0087995  91.5425622
  30.1997922  89.6208615  91.5067175  29.4105599  90.8354492  91.0675442
  54.9959803  77.7144432  20.6344581  54.0441895  77.7593708  20.5433202
  55.2556038  76.9809103  20.0770020  90.7961178  50.0217867   3.9825490
  91.5588760  49.5031881   4.2384470  90.2699375  49.4265127   3.4486854
  98.7798750 109.3200583  90.9462112  98.3807003 108.6440558  90.3985718
  98.2838309 110.1139492  90.7464331  20.0132595  20.4949851  70.0764304
  19.2110239  19.9748464  70.1223475  19.7868716  21.2352176  69.5133739
  87.6748943  57.3304844   0.9837539  87.8641701  56.4886713   1.3981836
  86.8398094  57.1946669   0.5360741  81.4725590  51.7728472  30.2500987
  80.5660057  51.9090366  30.5255103  81.6829205  50.8877611  30.5477738
  67.6489496  76.0986805  34.2579699  67.4799490  75.8253479  33.3563280
  68.5570765  76.4011383  34.2503357  59.2575537   2.7672381  78.5206753
  59.5427691   2.2726674  79.2889732  59.1924464   2.1128125  77.8251749
  95.3834915  52.5858164   4.3350124  94.6062374  53.1422663   4.2854130
  95.1780796  51.9477844   5.0183505  56.5375519  88.0212593   4.6330014
  57.3603964  88.4791851   4.8046699  56.1955738  88.4326744   3.8392636
 112.0317841  49.0620184  33.1832695 112.0322132  48.7709570  32.2713923
 111.1049652  49.1423273  33.4086251  91.4413798  96.2642998  91.5188536
  91.7652046  96.8869633  90.8679646  90.8828270  96.7875237  92.0937332
 111.7081547  55.8152914  34.4782877 111.8141270  55.3374958  35.3009152
 110.8661556  56.2617636  34.5673800  43.3755575  19.7780175  58.5850721
  42.9894816  19.5952220  59.4416696  43.6854445  20.6813474  58.6498719
  32.1363674  17.7504773  84.1629082  32.8455817  17.1596236  84.4161635
  31.3734280  17.1807666  84.0650099 103.5083485  32.5806737   2.2580430
 103.8038921  32.4703932   3.1617707 104.1731358  32.1354413   1.7326258
  19.4096695   9.3200345  92.2357532  19.7381483  10.2191062  92.2380164
  20.0346981   8.8380427  91.6942215  83.5324192  74.9422169   3.5928568
  84.0944958  75.3595877   2.9400939  83.7094116  74.0063095   3.4980664
  87.2430145  97.3688979  74.9981338  86.9604981  98.2578749  74.7833591
  86.4593613  96.8327278  74.8771506  76.3168240  57.6015663  21.3939548
  75.3797817  57.6308775  21.5871525  76.3641453  57.3253393  20.4787016
  90.7103741 109.7537417  70.9133893  91.1793911 110.3690380  71.4770037
  90.1301539 109.2785734  71.5081960  62.4939680  71.0768843  31.0048032
  61.7200327  71.3874483  31.4747000  62.9720211  71.8743229  30.7772279
   2.3097407  33.7209744  59.7320610   2.5493513  34.6459050  59.7896749
   2.5553213  33.4648652  58.8430553 111.5710236  22.1245332  55.5183893
 110.7708503  21.6354938  55.3265601 111.6886521  22.0300860  56.4636284
  68.7071419  39.8396492  20.2324390  68.0420256  40.5227613  20.1475525
  68.4497738  39.1741586  19.5943832  23.4107838  43.9958096  40.7675505
  23.0486069  44.2039537  41.6287899  22.8204594  43.3304644  40.4138994
  57.2595358  60.4907370  13.6403036  57.8110313  59.9054003  14.1594052
  56.5139961  59.9495411  13.3804691  82.5460529  75.4788971  28.2811475
  82.7838135  75.3795671  27.3592806  81.9836807  74.7266626  28.4658504
  38.5366032  78.8180751  72.2604829  37.7032254  79.2786164  72.1624499
  39.0021012  79.3070525  72.9390460  58.7379551 102.2997189  29.4007921
  58.2524252 103.0085850  29.8226953  59.6451664 102.6047707  29.3888855
  77.5975024  -0.1374297  88.5594153  78.2695662   0.5311151  88.6921149
  77.6444327  -0.3421645  87.6255452   5.1808678   2.9760881  88.9905107
   5.7220541   2.1972079  89.1197115   5.7973801   3.7067409  89.0383845
  85.8996391  61.4654350  41.7301130  85.6104183  62.3604298  41.9077730
  86.4233303  61.5369272  40.9320736  85.0213242  47.9254913  13.2039285
  84.5784855  47.9286623  12.3553360  84.5527267  47.2665215  13.7161767
  67.6358271  61.2500286  33.5995913  67.5977087  61.4416933  32.6625514
  67.8257084  60.3129435  33.6448598  97.1566391  80.5554104   0.8992144
  96.8015289  81.2052536   1.5057105  97.4051762  79.8181009   1.4567345
  74.2981863  42.9340458  33.9232135  74.6278286  42.0841360  34.2151451
  73.4639359  42.7343464  33.4985089  64.2793226  74.0096235  14.5605636
  64.4262552  73.7277985  15.4634571  64.0632010  73.2043171  14.0904534
  25.8715222  80.0725931  82.9814368  24.9645875  79.9244875  82.7135461
  25.8020852  80.5353588  83.8164562  23.2989762 100.4766459  58.9603215
  22.6240227 101.1421627  59.0935641  23.9814160 100.6973738  59.5941883
  49.2163420  43.2467508  53.1099224  48.6835337  43.2504606  53.9051199
  49.9574423  42.6788425  53.3208275  98.8273346  86.2308449  91.7556661
  98.9989006  85.5812854  91.0738519  98.3715498  86.9397516  91.3018590
  67.1831560  55.0361872  21.8553925  66.5453577  54.4332123  22.2373152
  66.6627407  55.7886887  21.5740752  93.0416107  68.4482765  25.5127025
  92.9754639  69.1711283  24.8887300  92.1336651  68.2238436  25.7163763
  52.4677706  43.3489227  12.6493680  53.2576799  43.4300280  12.1148634
  52.6626968  43.8486099  13.4421790  84.8426628  62.5866461  26.5758896
  85.0180626  63.4054661  27.0395684  84.1160202  62.1901417  27.0565224
 109.4777584  44.2963028  43.3937407 109.4714546  45.2089071  43.1050539
 109.2857933  43.7933874  42.6022482 109.1564429  99.5130677  93.2926039
 109.4436037  98.8061327  92.7146670 109.7358858 100.2451844  93.0816717
  71.5735245  50.4169703  13.4842706  71.7188740  49.9780941  14.3224192
  71.6251469  49.7158480  12.8346598  62.0400000  13.2315910  10.0392282
  62.6402473  13.7279153   9.4828141  61.1823845  13.3487260   9.6305680
  89.4479382  89.9336142  78.4117001  88.7586176  89.6993799  79.0331512
  89.1502392  90.7558841  78.0224997  47.9754734  79.2213392  13.9044142
  48.3552599  78.7427235  14.6412468  48.5605335  79.0343714  13.1702638
 102.0347691  34.3863297  33.0233073 101.8203640  34.2270970  33.9424944
 101.2890816  34.0323806  32.5386381 101.0128593  78.7198973  27.6555634
 101.0534382  79.5920897  27.2633076 100.0826550  78.5800028  27.8327394
 104.7112751  74.0023232  10.9999907 104.7979355  73.9712667  10.0472271
 103.8151360  73.7112379  11.1685991  88.5571384  77.4699306  35.3126764
  87.9828930  77.2652769  36.0506439  88.2220078  78.2989454  34.9711370
  93.5759830  10.8772659  44.9466801  94.0207767  11.5495574  45.4628372
  92.6443481  11.0651970  45.0605536  57.2594820   7.6066632  92.1672761
  56.3734232   7.8423877  92.4421647  57.1915423   7.4826999  91.2205720
  65.6522799  74.0399551  17.3086989  65.1027489  74.7684860  17.5976491
  65.7747793  73.5062742  18.0938160  45.5900179  23.7156005  66.9967729
  46.2839209  24.1168113  67.5199896  44.7780215  24.0223308  67.4002772
  90.1412201  28.7594724  19.7621655  90.3079796  27.8329134  19.5892227
  90.5973148  29.2204142  19.0580773  63.6170626  70.0401831  17.6483226
  64.2096710  70.0419521  16.8966281  64.1526794  69.7215271  18.3748245
  43.3610998   8.1400056  94.1121725  43.8441550   7.6174064  93.4720312
  42.4616038   8.1480832  93.7849545  84.7293186  98.0580997  20.3874755
  84.4301701  97.7295780  21.2353063  85.1921654  97.3184872  19.9937940
  39.1010701   2.0815034  90.1116997  39.7994553   1.4583154  90.3120166
  39.5453917   2.8055043  89.6705252  83.5288811  39.3205380  33.2930946
  82.7391529  38.7918234  33.4072399  83.9630508  39.2897034  34.1456079
  93.4966373  11.0665870  16.4844823  92.8573036  10.7985270  17.1445048
  93.0356884  10.9695363  15.6512129  39.7960351  78.3494706  85.3722071
  39.4574998  78.1379146  86.2421912  40.1910374  77.5338454  85.0640505
  63.5361767  80.6810284  45.6867981  63.4402227  81.4256668  46.2805414
  63.5110283  79.9138832  46.2587214  87.6012325  44.4069529  16.3864934
  87.1185684  45.2250814  16.5045202  88.4827423  44.6829891  16.1355400
  50.0340033  45.1109695  18.3904481  49.7434139  45.6666422  19.1136456
  49.5002651  44.3200541  18.4666812  18.3640728  35.4115939   9.9689800
  17.9481850  35.2942848  10.8230913  17.9227314  34.7817254   9.3991464
 102.5024796  53.9379597  29.8135161 102.7376080  54.6621275  29.2334056
 101.5829659  53.7609386  29.6150446  77.5085974  29.5711279  38.6677575
  77.8747606  29.3915725  37.8017807  77.4385548  30.5250311  38.7050962
  23.3051382  30.6993337  89.8563444  22.8674494  31.5364404  90.0109744
  22.7382313  30.0516839  90.2751526  44.4392191  15.8316417  94.7150882
  44.1301333  16.4125915  94.0199619  43.6397253  15.5124278  95.1336009
   0.7884572 101.5754074  73.8562828   0.3635857 102.3968500  74.1031486
   1.7210028 101.7886633  73.8229567  56.8912077   5.8555806   0.9939076
  57.2573280   6.3504183   1.7269324  57.2216654   4.9656820   1.1168347
 106.1180413  93.9656967  79.7421211 105.3049433  93.4666485  79.8199004
 105.8483946  94.8792166  79.8369866 114.8457432  37.4919415  38.0045199
 113.9741611  37.1430254  37.8179193 114.7295189  38.0152416  38.7975383
   9.2751204  19.7312112  92.1322989   8.5935580  19.6681781  92.8014287
   8.8946711  20.2902455  91.4548218  59.5571136  65.9833193  20.8217192
  59.2116404  66.8446779  20.5873108  59.3348742  65.4252195  20.0764894
  74.8557520  54.6676350  17.8562725  75.3532934  54.7603273  17.0438123
  74.8150063  53.7230539  18.0057383  26.7101929  98.4327406  77.1675497
  27.4532006  98.9698357  77.4426955  26.3934205  98.8535494  76.3682943
  76.5870142  62.2535944  31.6265726  77.0602369  62.2207785  30.7951808
  76.5165377  63.1872702  31.8253613  69.3934393  57.2444201  19.1041696
  69.7137260  58.1157970  18.8710487  68.6543417  57.0952272  18.5144973
 112.4350452  67.0033216   1.8136060 112.2883415  67.9489708   1.7921831
 112.7642250  66.7921638   0.9399472  35.4545151  10.8106513  92.8203583
  34.8689448  10.4517884  93.4871122  35.8407151  10.0413890  92.4016520
  69.3561541   6.4241071  74.0213614  69.5236002   6.2009759  73.1057173
  68.6613547   7.0814700  73.9844924   7.3424422  17.0707603  90.4431039
   7.2181927  17.2789807  91.3690835   8.1114041  16.5009685  90.4268235
  79.1392803  80.9366035  21.0143518  78.5917950  80.3141594  20.5357504
  80.0320244  80.6136036  20.8922195  15.7017075   7.2509475  76.3843828
  15.2973162   6.4101548  76.1704498  15.2293478   7.8873725  75.8476573
  81.5489769  45.9534550  31.0165977  81.8284321  46.5695000  31.6938186
  82.0273113  45.1480293  31.2133527  18.9054953  25.7462258  93.4281206
  18.3812844  24.9472423  93.3727990  18.6135565  26.1687799  94.2358683
  81.1444855  58.7593651  31.9276071  80.2243233  58.8735104  32.1653080
  81.1249161  58.5257864  30.9995484  36.4398146  76.4832067   2.0791303
  35.5490994  76.8324327   2.1091892  36.5444994  76.0220957   2.9113838
 110.6977558  62.0930481   9.6202183 111.1854935  61.6373396  10.3062725
 110.5546665  61.4284849   8.9463413  60.3113985  34.6900296  38.1752968
  60.0380373  35.0123382  37.3164487  61.1649036  34.2859149  38.0189180
  29.3597088  61.1087847  21.4546919  29.6598969  60.9037590  22.3401761
  29.0705166  62.0198774  21.5047765   0.3407727  82.5844002   8.2502002
  -0.1773967  83.0610371   8.8986933   0.7891236  83.2680893   7.7524197
  47.5891768  18.8832803  92.9084192  47.1482359  18.6277480  93.7186700
  47.2711836  18.2595296  92.2556975  18.5383974  12.6276202  78.0721789
  19.1090952  12.6345010  78.8406127  18.2331168  11.7226357  78.0086595
  29.4332205   1.1627240  94.2638935  29.2450367   1.2523122  93.3296598
  28.9214264   0.4022260  94.5394603  52.8799582  37.3280644   3.6804473
  53.2120800  36.5200686   3.2892039  53.5748768  37.6092410   4.2756453
  52.0724535  34.2958689   0.2862022  52.3403597  35.2128911   0.2268164
  51.5216923  34.2574048   1.0681336  85.4733467  57.1697283   4.5389333
  86.3968945  57.3668671   4.3826157  85.3137112  57.4653578   5.4352307
   1.7871247  73.1439734   8.7833601   2.6959286  73.4054852   8.9313763
   1.8504105  72.3321772   8.2801580 107.1567345  56.3532162   2.4314898
 106.9937038  57.2607470   2.1745159 106.8054771  55.8328915   1.7089182
  92.3544884  51.6861868  17.4434364  92.5946236  52.5924206  17.2502851
  93.1342888  51.1786509  17.2185838  98.3988380  64.0483189   0.7421485
  97.9866600  63.3528614   0.2296227  97.7348900  64.7361517   0.7900776
   2.9225216   3.3233285  21.3012934   2.8872548   4.2781168  21.3593268
   3.0142460   3.1434703  20.3656292  76.2148142  88.2158661   2.2059028
  75.3284740  88.4824848   2.4499215  76.6795444  89.0389824   2.0550597
  22.1052813   9.7687960  29.3570948  21.7167353   9.3232108  28.6042929
  23.0284380   9.8700476  29.1252327  92.4529266  57.2603941  26.1618876
  92.4913979  58.2058239  26.3065100  93.2535553  56.9237661  26.5642500
  58.1107521  29.8408866  29.5556879  59.0358782  29.8252273  29.3104839
  57.6418161  29.7316194  28.7284064  74.1346824 106.5602297  85.6806749
  74.9594891 107.0133538  85.8556235  73.5600793 107.2377867  85.3243285
  36.7041479  23.4773726  79.4171434  36.4204394  22.8499455  78.7522560
  35.9833704  24.1042800  79.4779235  68.0761051  79.6998739  33.1635571
  68.7233591  79.3936014  33.7987661  68.2801199  80.6271267  33.0418301
 113.3420145 105.3075022  74.0541321 113.8231814 104.7442431  74.6603089
 112.7477038 104.7134728  73.5957032  75.2480221  91.3335323  22.1351957
  75.9752178  91.6405296  21.5937424  75.4555750  91.6474056  23.0153298
  59.0806055  18.2025087  32.3344016  59.8492718  18.4076345  31.8021393
  59.4401932  17.8530848  33.1497717  66.5540361  34.0169740  22.7964783
  67.1976137  33.6080694  23.3751321  67.0442915  34.6984148  22.3365617
 107.3142053   5.2612824  87.4298006 108.0723692   4.9053378  86.9664186
 107.6808215   5.6566806  88.2206768  91.5983963  78.5392714   3.6351517
  92.2266674  78.4185982   4.3471533  90.9965992  79.2100382   3.9578694
  22.6567684  13.1304688  94.0602185  23.4143053  13.1419559  94.6452338
  21.9992529  13.6617131  94.5093107  74.0100718  47.2875881  10.4115415
  74.5476627  46.5443468  10.6850767  74.1828585  47.3760653   9.4742316
  12.7445672 101.7932839  82.6141172  12.6248238 101.4650626  83.5052746
  12.0870850 101.3278431  82.0970863 101.2726689  18.1659455  93.8692199
 100.8827401  17.5312610  94.4703553 102.0624209  18.4673305  94.3183207
  78.7834215  48.2218075  44.1274071  79.3344975  48.2382679  44.9098873
  79.3330717  47.8179884  43.4558058  79.1002274  42.2378588  35.6523371
  78.4503078  42.5060081  35.0027704  78.7140942  41.4706850  36.0749221
 101.8561268  45.7551575  14.3586135 102.3886776  45.8091640  15.1521552
 101.9422722  46.6179657  13.9531779  91.4875793  69.6037340   8.7426859
  91.6702080  70.2952671   8.1065577  90.8202744  69.9777222   9.3180680
  67.8681612  55.9043932  14.4227695  68.6714697  55.6106043  13.9930987
  68.1126547  56.7235899  14.8533142   2.2691594  85.1769161  40.5963850
   2.5365219  85.4266834  39.7118664   1.3125477  85.2012348  40.5732965
  52.5669718  45.6191015  36.3741541  53.3575678  45.3236103  36.8256855
  52.4219704  44.9639320  35.6915426  12.3844216 103.0404038  90.3550714
  11.6681264 102.4160570  90.2395296  12.5154851 103.4181780  89.4853931
  70.3074455  36.6946054  41.0493755  69.6973085  36.5052891  40.3365469
  70.7143927  37.5249648  40.8021402  79.8161554  25.2669549  28.9669394
  80.6439686  25.3381395  29.4422174  80.0740910  25.1589346  28.0514956
  84.8942089  41.2411880  48.5915947  85.2388000  42.0784378  48.9022350
  84.0266418  41.4523983  48.2466936  87.5725937  77.3146725  39.0647435
  87.4185181  76.6667652  39.7522807  88.4342670  77.0906162  38.7132454
  12.2144686  25.6545110  80.2252632  12.0441996  25.1185937  80.9998828
  11.9878422  25.0881286  79.4876402  24.3421292  86.8012238  14.2923272
  23.7308383  87.4821663  14.5731711  25.2060461  87.2039795  14.3798912
  41.8051802  11.4514155  90.0647670  41.9962965  11.6639037  89.1512269
  41.1518322  12.0988841  90.3296438  84.3485355  69.5237446   3.2284826
  84.4936466  69.0118742   2.4327655  84.8308468  69.0523863   3.9077711
  59.9065781  58.8346195   0.1942522  60.8615589  58.8921261   0.1636794
  59.7050333  57.9856443  -0.1992567  67.9765797  86.9168758  52.9678249
  68.8955355  87.1771622  53.0310917  67.5451279  87.6613140  52.5484180
  75.3330517  46.8956232  20.7570100  74.9364805  46.1719990  21.2421179
  74.7727108  47.6477385  20.9482503  74.8190928  81.5683174  24.6661091
  75.2590942  81.5501118  23.8162255  74.1628790  80.8736420  24.6110129
  23.4818302  41.7197461  80.8003527  22.6471649  41.2511869  80.8046132
  23.5688196  42.0621724  81.6899651  68.2296944  93.1372833  31.7727423
  67.7280712  93.9281845  31.5750432  69.1164017  93.3343220  31.4708209
  95.8423424  34.8747635   3.8682240  95.0776768  35.1943111   3.3892682
  96.4441109  34.5756483   3.1865817   1.8346142  24.1527701  33.9233136
   2.0200323  24.6823359  33.1478095   0.9443163  23.8294268  33.7852764
 116.4239407  69.2446327   2.5366938 116.2114334  68.8772345   3.3946502
 115.9442902  70.0723886   2.5051409  80.2023411  86.7589951  27.1886945
  79.7724676  86.0476398  26.7139220  79.6408987  86.9135284  27.9483914
  70.0611687  59.1714621   4.4151109  69.1533709  58.8729858   4.3598557
  70.5553913  58.3903694   4.6638432   2.1343777  93.1734151  84.0385431
   3.0849240  93.2396716  84.1296309   1.8259547  94.0785307  84.0818244
  42.8415680  34.2572308  26.1335015  43.7778616  34.0649509  26.0824060
  42.4158525  33.4610558  25.8155394  18.8515339  75.4123163   1.4799324
  18.4264813  74.9065495   2.1725777  19.7393761  75.5634594   1.8041474
 115.0945211  28.3273549  88.6674183 114.9528171  27.7807756  89.4403356
 114.5237137  29.0840001  88.8012230 114.1251850  74.4328642  18.2789564
 114.3339443  75.0133324  19.0108788 114.4795799  73.5825634  18.5389960
  15.7645378  59.3278265   9.2842871  15.9851036  60.1774454   8.9025408
  15.5069504  59.5290852  10.1839411 109.3414974  39.6954060  10.0232899
 108.6299515  39.9486303   9.4352305 108.9115810  39.1985989  10.7194114
  82.8331280  56.1355639  19.7362626  82.4271202  56.9974804  19.6441472
  82.0962048  55.5252552  19.7626412 112.1539593  49.3675518   5.0995594
 111.8498421  49.0719509   4.2414433 112.1752644  48.5729790   5.6328839
  29.0125834   7.4747653  88.7077272  28.2319533   7.0542951  89.0683573
  29.0624605   8.3162923  89.1611373  75.8924294  61.5443277  18.0738854
  76.5331125  61.1559343  17.4781489  75.3237343  62.0656204  17.5072539
  90.3812313  56.9611645  32.0320535  90.3037071  57.8696299  32.3234487
  91.2544918  56.6919374  32.3169756  62.3880720  82.1484756   8.1429815
  62.2774124  81.2533092   8.4633833  61.6264868  82.6196861   8.4808928
  78.1680012  69.7000647  12.9512680  78.2599354  69.2041731  12.1377158
  77.2856283  69.4933462  13.2593632  68.4126841  36.4246793  91.0732752
  68.7795626  35.6500764  90.6471178  68.2465159  37.0364995  90.3561246
  75.5889559  78.4525442   4.2141661  75.1361084  78.3869028   5.0549132
  76.1718225  77.6934862   4.1961628 101.8978214  54.7654343  25.9160471
 102.3613644  55.3715277  26.4939809 101.4702129  55.3290272  25.2712655
  45.5159746  16.4953847  58.1653601  46.1595427  15.8456035  58.4479004
  46.0408388  17.2358079  57.8611928  77.7039576  60.7602453  11.8985736
  77.9155302  61.4053106  12.5733781  77.1296310  61.2276936  11.2920511
  44.6414137  45.4821920   4.6439224  43.7928867  45.6957817   5.0320047
  44.4789839  45.4774714   3.7006170  46.6587687  64.4128799  16.6200125
  46.7585135  64.7819042  15.7424569  47.5408363  64.1318560  16.8633461
  84.4427299  67.8424883  10.3023815  85.1897049  68.0102301  10.8769441
  84.0201187  67.0702505  10.6782460  43.0215346   8.7636991  78.0412656
  43.0492102   7.8201671  78.2000643  43.4137045   9.1499801  78.8243490
  77.6066351  80.4112244  12.2762549  78.2408142  79.6942616  12.2726572
  76.7551756  79.9775600  12.3326612 100.6035233  51.7419529   4.6048325
 100.2728271  51.0797739   5.2117854 100.3415012  52.5761080   4.9943981
  26.9823490  44.9671884  80.2264315  26.9945704  44.5414968  79.3691879
  27.7819477  44.6634431  80.6561035 101.6867256  48.7492180  13.5044563
 101.7733765  49.5532084  12.9922819 102.1302223  48.9424372  14.3304157
  40.2298594  63.3882284  24.8728704  40.2671957  64.1575384  24.3045378
  41.1423063  63.2195091  25.1078272 101.3032722  72.8049660  32.4092460
 101.1272144  71.9001961  32.1511221 100.6988239  72.9694891  33.1329966
  69.7781181  45.6693649   2.8470021  70.3123522  46.3118505   3.3139423
  69.8591995  45.9149075   1.9253916  89.6491718  48.1576014   2.1767424
  89.3556881  47.3182249   1.8224116  89.4983482  48.7827587   1.4677560
  94.1252041  62.3935032  40.4588127  94.0370464  62.2932673  41.4066553
  94.1654205  61.4969778  40.1258612  75.0134182 101.1849594   8.6921477
  74.6660852 101.0544205   7.8097910  74.3136120 101.6405678   9.1600424
  87.8742599  76.9545317  16.9303107  87.9235268  77.3823929  16.0754788
  87.7249146  76.0310268  16.7276597  95.9550285  42.9602623  10.9929156
  95.7820702  43.8486481  11.3044882  96.1005497  43.0604649  10.0521624
  62.1811377  36.2792630  89.7842431  62.9864775  36.2571378  89.2673594
  62.4800860  36.2794919  90.6935623  64.7283792  74.6356058  21.6082811
  63.9566278  74.3279266  22.0836401  64.8847008  73.9635897  20.9448123
  89.3084240  79.7142410  27.1946883  88.7461567  80.4557705  26.9705558
  88.7269592  79.0993595  27.6419520 114.6009827  80.7125759  11.9744408
 113.7679005  80.3508568  12.2767293 114.9996948  81.0852623  12.7608001
  55.6943607  68.5115910  31.2370229  55.5584383  67.8283119  30.5806065
  56.4498186  68.2113600  31.7423725   4.2782567 107.4956889  82.8024250
   3.3624528 107.2476096  82.6759618   4.4352124 107.3637862  83.7374097
  13.7537167 109.7795624  83.0299383  14.2030690 110.4805893  83.5020381
  14.4021294 109.0780968  82.9687816  20.3407179  16.0580964  84.2314082
  19.7473608  16.4375730  83.5832160  19.7855889  15.8844609  84.9916154
  86.6726172 105.1527447  92.3633137  86.9457018 106.0701174  92.3539763
  86.4546978 104.9584240  91.4517307  70.5558634  50.7342911   5.1132929
  70.6675720  49.7963858   5.2684760  69.6221113  50.8908176   5.2541447
  74.9046946  61.9880295  27.5984979  75.0263977  61.2700081  26.9773197
  74.4672394  61.5845680  28.3482242  92.3278236  63.5028696  33.2858205
  92.1607208  64.3390799  32.8510070  91.4582062  63.1293488  33.4289384
  14.8240147  77.4318409  32.3989630  14.5401059  78.3133698  32.1570182
  15.0099049  77.4888754  33.3362055  72.8060102  62.6346731  35.0797415
  72.2287512  63.2617998  35.5153012  73.0825138  62.0395947  35.7766366
   2.9870007  89.6872849  86.6039252   2.6827405  88.8143391  86.8521547
   2.3827336  89.9647374  85.9153700   6.1937390  27.1605682  21.9011521
   5.8319435  27.4248719  22.7470112   6.2251149  26.2047625  21.9421959
  98.9203274 109.0870137  87.6389366  98.5188591 108.2787127  87.3200232
  98.4839689 109.7818703  87.1459842  71.8559837  62.6371956   6.7906177
  71.7650700  62.2346544   5.9269470  72.7315426  63.0239534   6.7836392
  71.0264492  74.7955513  59.4480515  71.8053341  74.3144512  59.1685724
  70.8784389  74.5089340  60.3492594  73.4099197  79.8276424   7.1680075
  72.7206802  80.4475307   6.9294244  74.2073774  80.1994038   6.7910594
  50.9409510  23.0258555  88.5161388  50.2114664  22.5705380  88.0956960
  51.1877905  23.7092776  87.8930467  93.1473351  97.9338074  35.5672383
  93.8403893  98.0154037  34.9120712  93.5444736  98.2540417  36.3771558
 100.0911331  55.7279634  24.0900660 100.0619888  55.9905291  23.1700444
  99.7031212  56.4649010  24.5618677  78.7792969  34.8602080   6.2845504
  78.1179857  35.4783559   5.9734380  79.4639015  34.8852658   5.6160253
  87.3913479  74.9010372  31.7292070  87.9858589  74.2713642  32.1370029
  87.7136898  74.9885225  30.8321691  55.7938753  19.8229070  93.1479057
  55.1773726  19.2866035  93.6464433  55.2504717  20.4993959  92.7437907
  20.1318429 108.7230486  91.3135373  20.0964520 109.6470589  91.5609035
  21.0664914 108.5313553  91.2365150  34.4904362   6.4228435  85.7389003
  33.7136828   6.5288777  85.1896816  34.5349299   7.2312684  86.2494868
  87.4836731  77.4067783  21.2733746  87.3609638  76.5515327  21.6853571
  88.1101894  77.2451639  20.5679822  28.3334801 102.7430720  88.0549884
  28.4647534 102.2426600  88.8603365  28.2589219 102.0788855  87.3697680
  22.1869538 107.5548930  88.6143464  22.4981759 107.8498263  89.4701457
  21.4215062 107.0148367  88.8109350  63.3890676  55.0857306  19.5726180
  63.4777403  55.5532598  20.4031515  64.2309475  54.6458769  19.4542980
  90.2430534  40.9084606  38.8227034  90.3755474  39.9693727  38.6931467
  90.8065510  41.3222933  38.1689095 107.5343800  97.6941967  59.4878244
 108.2368374  97.6953411  60.1380444 107.9874897  97.7351284  58.6456537
  99.5277882  68.7188721   9.3405062  98.7358379  69.2549992   9.3003941
  99.2133617  67.8197241   9.2462045  21.8640301  89.5192546  77.0215350
  22.2148106  89.1216153  77.8184467  21.1804173  90.1133890  77.3312169
  65.1777124  35.4314160  19.7110808  65.7898664  35.4792523  18.9767718
  64.7107935  34.6061206  19.5802844  60.2493954  88.2845783  14.9148417
  60.9013176  88.8019276  14.4419909  60.7608986  87.7593517  15.5302501
  99.1512299  94.5787239   4.7473869  98.5286713  93.8599873   4.6375421
  99.7473240  94.4951248   4.0031326  89.2379761  97.9769516  30.5642867
  88.9713955  97.1035480  30.8512115  89.2622948  98.4960842  31.3681149
  88.2331181  21.5682483  26.9585514  89.0386581  21.0519004  26.9852734
  88.3584023  22.1697164  26.2245393 100.8263302  29.7688556  18.3566034
  99.8935318  29.5544481  18.3683193 100.9966564  30.0479794  17.4569845
  26.9286595  45.4651451   7.0431024  26.9247589  44.6157217   6.6018558
  26.1273060  45.8943939   6.7434394  86.4859104  45.0346041   2.0539266
  87.2981834  45.0173378   1.5478201  86.0366249  45.8266163   1.7588151
  85.0719547  95.6190395  26.7047668  84.5860958  96.0021591  27.4351072
  84.4660950  94.9856472  26.3200831  81.1180210  52.9439497  39.9982285
  80.3584480  52.8141451  39.4303942  81.6632557  52.1714592  39.8492169
  64.8418951  68.5210419  15.2197349  64.5034885  68.4493637  14.3272245
  64.7625589  67.6368427  15.5776942  31.2009703  32.8424687  90.5139535
  31.0158621  32.2907205  89.7539967  30.4612480  33.4485097  90.5558049
   1.7091773 106.3351816  81.1246103   2.4384854 105.9093232  80.6740719
   1.5634749 107.1437020  80.6333869  64.4551992  34.5274186   9.3239623
  63.8934278  34.3378901  10.0754428  64.2030716  35.4101801   9.0530449
 106.4768028  48.2247877  19.4559681 106.7495537  47.4439526  19.9377728
 105.5277252  48.1342506  19.3706751  37.3310791  24.0864892  93.0969421
  37.5136076  23.4702678  92.3875850  37.5526081  24.9434943  92.7326597
  69.7109413  98.6761475  11.5942061  69.7305250  99.3781567  12.2446144
  70.3210068  98.9623737  10.9144092  57.5942503  30.8807321  80.5199462
  58.3285319  30.7587380  79.9181253  57.8771006  30.4591794  81.3314396
 102.9722023  89.3523598  28.9644289 103.2317066  89.7812557  29.7798681
 103.1467724  90.0037479  28.2851195  34.6894394  12.5720639  85.0217873
  34.5505606  12.6197476  84.0759164  35.2378928  13.3306117  85.2218783
  71.8265915 105.1332760   4.1366720  72.3482037 105.2325916   3.3402506
  71.1526108 104.4948292   3.9035001  92.4341011  82.4259663  34.2037630
  92.8097534  81.6857815  34.6804643  92.9714108  82.5004578  33.4151030
  23.9022231  98.4303665  12.0115101  23.0167437  98.4014130  12.3738897
  23.7718177  98.5058975  11.0662472 104.0092052   3.4400035  48.1791449
 103.9403547   4.3647052  48.4166622 104.4716276   3.0376673  48.9143467
  97.2149467  68.1924629  11.5489471  96.3523865  68.1220245  11.9579184
  97.5479317  69.0423822  11.8370306  83.1439304  80.4811573   2.3818800
  82.2222233  80.5717659   2.6237157  83.6245728  80.7613945   3.1607711
  94.7274208  78.8960695   1.5689240  94.9382114  79.1034269   2.4793103
  95.5353832  79.0773201   1.0887412  64.2752730  29.8194928  92.0176306
  64.8820864  29.8186154  91.2773511  64.3824374  28.9558358  92.4161881
 114.6749783  96.0268879  36.8109250 114.1454601  95.2964783  36.4910340
 115.2108955  96.2812614  36.0597062  46.9767523  65.2221680  14.0755653
  47.7901268  64.9416351  13.6560929  46.4498043  65.5799675  13.3610475
  76.1455488  99.2359352   0.3459221  75.5879307  99.3360710  -0.4256141
  75.5442715  98.9761353   1.0439190  53.8818264  41.3160896   0.6082658
  53.3689260  41.4255714   1.4090031  54.7894382  41.2726736   0.9092450
  74.0896845  39.9146414  11.6703069  74.6498823  40.0955343  12.4250841
  74.6456861  40.0915527  10.9114945  62.7331244  17.5907559  87.9413283
  62.5404249  17.6454444  87.0053214  63.6732184  17.4153943  87.9824781
  14.0041611  92.5545830  92.4185458  14.1336320  92.4601478  91.4748558
  13.0604813  92.6790995  92.5195566  25.1938664  16.6759582  83.3305841
  24.8590599  16.7509170  82.4369865  24.5348488  17.1121402  83.8706499
   8.3272812  60.0065446  75.8942872   7.7514813  59.8615310  76.6450590
   9.1644070  59.6238941  76.1570340  63.8069010   1.0029662  16.6177249
  64.2389870   1.0007998  17.4718487  64.4524765   1.3858414  16.0236955
  89.2421114  86.6262383  63.3238703  89.2720711  87.5722141  63.4669238
  89.2799961  86.2497253  64.2030936  79.8521566   0.6894483   7.5223571
  80.0396824   1.1074264   8.3628100  80.7116795   0.5638387   7.1202660
   8.2969939  19.8300214  59.1667920   7.7042376  19.6526141  58.4364515
   7.7597224  19.7002454  59.9482828  78.6198616  40.9101582  16.6753387
  78.7398624  41.8275690  16.4299917  79.4945955  40.6127739  16.9256210
 106.6326534 108.7003607  70.7949692 107.3665821 109.1665358  71.1952883
 105.9931290 109.3847317  70.5977946  91.2126064   8.5275120  17.4403870
  90.5717659   8.4237403  18.1437981  91.6082668   9.3841308  17.6012945
 105.4972136  59.5520759  89.2537701 104.8389113  59.2721913  89.8897981
 105.3280508  59.0130884  88.4810430  39.8049818  18.8223739  78.2288795
  39.2965256  18.6738296  79.0261489  40.6911122  19.0061564  78.5406905
  92.8339195  81.3497162   2.8765029  92.2734356  81.1757946   3.6327070
  93.0938053  80.4822254   2.5664312   8.9792416  48.1152076  89.8451942
   9.7882817  48.5963458  90.0189429   8.4393857  48.2663096  90.6210515
   0.9062062  42.0363045   1.6959530   0.8400402  41.9328690   0.7466611
   0.3237400  41.3649273   2.0512125  24.7756767  17.5202489  22.1079564
  24.0750027  17.9932034  21.6589522  25.3563213  18.2069755  22.4358130
   3.2043717  95.1066012  81.4731532   3.6365006  94.8052663  80.6739682
   3.8992856  95.1183743  82.1313268  20.4936383  90.5294079  65.8600884
  20.0184891  90.0145025  66.5122658  20.7333062  91.3345856  66.3188702
   1.7072449   8.6878455  16.4442837   2.6362477   8.5869366  16.2369084
   1.5146981   9.6033424  16.2417471  55.4732513  34.0916944  27.7856660
  54.8022270  34.4557619  28.3630848  56.2583733  34.6044636  27.9777145
   6.9142888  50.9548507  74.7365910   6.3757966  51.2751663  74.0129500
   6.4079926  50.2339826  75.1110786   6.2045739  81.9338888  94.8871560
   5.3824303  81.4534015  94.7899905   5.9612534  82.7327699  95.3549367
  81.0915434  95.0259632  71.9904190  81.6886437  94.7798628  72.6969176
  80.6419432  94.2122526  71.7624527  28.5547612  93.0436391  77.8056150
  29.2047951  92.3627991  77.6319963  29.0673134  93.8471979  77.8939909
  11.6390774  48.1889725  93.6464990  12.3917172  47.6975316  93.3174808
  12.0185921  48.8461185  94.2299019   0.4356740 100.5564493  90.5745938
   0.6568596 101.1611981  91.2828219  -0.1410701 101.0605378  90.0005746
  29.3763611  67.6153654  89.4321030  28.5597298  67.1901376  89.1703248
  29.3558571  68.4650034  88.9917326  86.7139113  80.0377697  88.9496463
  85.9623587  80.5086846  89.3096965  87.2204315  79.7724027  89.7172707
 102.5184023 106.0254235  60.7488328 102.9268372 105.3410334  61.2789494
 102.9213059 106.8379540  61.0549313  82.1835995  42.4041557  36.4136052
  81.7123222  41.5844393  36.2646294  82.8984928  42.1655750  37.0037293
  74.1765213  24.6425891  19.1683555  73.5769796  24.4189787  18.4564722
  74.7840023  23.9040780  19.2107642  90.3425407  56.2686014  27.7236938
  90.3265572  55.9918451  28.6398697  91.2374115  56.5776014  27.5824118
  21.8707535  92.7502245  79.9127072  21.6460583  92.0140452  80.4817265
  21.3666985  93.4852905  80.2617687   1.6311524  92.1991891  76.3846439
   2.0242474  91.3551802  76.6068131   0.8124564  92.2199506  76.8801576
  71.5054369   0.2315554  20.6759048  71.1697769  -0.6637398  20.7207465
  70.8801556   0.6941110  20.1179647   7.5710188   8.7182469  72.3268586
   8.4088837   8.9141507  71.9075280   7.2964655   7.8881688  71.9372111
  13.4080193  80.5593151  87.9143774  13.6285851  81.2901372  88.4918588
  12.4565575  80.6065316  87.8210199  91.8862879  68.1338829  62.4139505
  91.5215695  68.2044703  63.2961231  91.1424219  67.8821415  61.8666702
  24.5906994  91.8321604  79.8285717  23.8448212  92.3531193  79.5310849
  25.3234837  92.4478955  79.8402315  24.0961716  95.7460636  86.3847458
  23.9980195  96.5793938  86.8453502  23.2690499  95.6322903  85.9165978
  44.7456061   8.9868875  88.7869757  44.3717562   8.4459634  88.0913675
  44.6782481   8.4456868  89.5736110  27.7679894  80.7547063  67.8505236
  28.3886693  80.3288073  67.2592598  27.2759507  81.3544387  67.2897583
 105.8672678  86.1072964  90.1094335 105.9100687  85.7975215  91.0141095
 105.0525963  86.6079540  90.0659925  18.2995545  20.4608293  83.5993355
  18.5300385  20.4751487  82.6704103  17.3706089  20.6908269  83.6191922
 101.0718632  69.0602016   0.8589275 101.0017014  69.6436071   0.1033136
 101.4571571  68.2577562   0.5070017  20.0649712  97.7675385  90.4094246
  19.1786740  97.9453511  90.0946492  20.5759881  98.5262245  90.1274779
  90.5962563  13.3887923   9.6002263  90.0677490  13.7892532  10.2905428
  90.1873112  12.5365949   9.4493908 116.0294115 109.8020739  70.7995754
 115.6397927 110.2383370  70.0418764 115.4905379 109.0217919  70.9299761
 111.3478958  97.3503537  86.5201795 110.7152235  98.0578274  86.6444081
 111.8889153  97.6391644  85.7852524 101.9747412 109.6116394  76.6217178
 102.1164143 110.4059929  76.1067813 101.5215170 109.0166420  76.0243886
  23.7106406   5.4150958  82.4164277  23.0119692   6.0643382  82.3353368
  23.2673346   4.5725436  82.3173231  60.9112549  39.4569492   5.3887886
  60.7283688  39.4436574   6.3282603  61.0392189  40.3829145   5.1827681
  48.2702684  21.2879705   9.6922123  48.9337301  20.5980134   9.6949744
  48.6266613  21.9606376   9.1119254  94.0219879  44.4771338  16.8031895
  93.1826019  44.0291166  16.6986358  94.6772099  43.7913132  16.6744399
  77.0161057  34.0020108   2.7318639  77.3831558  34.3185663   1.9064553
  77.5543213  34.4147944   3.4072646  68.4370804  25.3794193   0.3744330
  68.3520126  26.1964297  -0.1169849  68.0904961  24.7087574  -0.2140568
  83.2642365   7.5392985  18.5288227  82.4122524   7.2202313  18.2312357
  83.1209755   7.7889085  19.4417322   3.2734749  52.7378262  94.8029349
   4.0641282  52.9340888  95.3055019   3.4453080  51.8817416  94.4107324
  25.6463406  84.8190469  94.4361944  25.3235600  84.5792336  93.5675575
  25.7373211  83.9848108  94.8966358  60.8077049   8.2715082   3.7508571
  60.4933357   9.0224385   4.2543510  61.4887905   7.8831524   4.2999798
  27.1994721   6.1097140  90.3423813  26.3915955   6.5092130  90.6648189
  27.6741015   5.8566089  91.1341503  54.4697844   3.1404443  61.6971284
  53.7457167   3.6454625  62.0671564  55.0387083   2.9548068  62.4441820
  95.8498108  71.6191727  48.4173518  95.5397427  70.7769615  48.0845338
  95.6979668  71.5742380  49.3613654 112.7546417  84.4858164  91.8104088
 111.8301117  84.4374270  92.0535794 112.8865635  83.7429590  91.2213480
 109.7183764  80.5095810  90.4322904 109.5698559  80.6145996  91.3720479
 109.4026291  79.6273083  90.2370250 105.6667626  96.6566748  79.1235190
 105.9305203  96.1509985  78.3547836 105.1500904  97.3800844  78.7686127
  58.0098009  71.1457634  34.9507713  58.0705786  71.3006735  35.8933973
  57.2668791  70.5501080  34.8533487  34.3708682  46.6933680  11.3152063
  34.1030335  47.0076942  10.4516697  34.9416184  45.9470987  11.1320317
  43.4615300  94.5921749  61.4744025  42.7924893  94.9195666  60.8732110
  43.7228940  93.7484974  61.1054426 112.4116194  92.4626345  61.1885863
 112.2655356  92.6709122  60.2658134 113.3629715  92.3974652  61.2717205
  82.6168823  56.2466955   3.7484735  82.2050095  56.6501188   4.5125717
  83.5101414  56.5906572   3.7483212 113.8777888  72.7287573  91.1730814
 114.5385372  72.8988892  90.5017414 113.9228737  71.7838973  91.3195014
  39.1971397  48.8962936  12.4045539  38.5262370  48.5571814  12.9971099
  39.6288848  49.5898342  12.9033864  73.9292192  32.2403193  21.8091249
  74.3907928  32.9029632  21.2952304  74.1414928  31.4123464  21.3782716
   9.8680947  82.8732580  87.7428615   9.9194977  82.4991865  88.6224413
   9.2335103  83.5854620  87.8221875  65.9992743  50.2162409  17.1638465
  65.6623268  49.5717907  16.5414500  66.8504381  50.4709578  16.8076599
  73.3727932  58.7734938  24.0431738  73.7738180  57.9056358  24.0903950
  72.5180483  58.6207724  23.6402845 109.5626831  45.3992224  17.0337749
 109.6582222  46.3502312  17.0855665 108.7023926  45.2662516  16.6357279
  74.9545527  38.2570267  30.0955939  74.5277023  38.4280419  29.2560816
  74.4317675  38.7428737  30.7334661  66.8346703  94.9879736  56.4538771
  66.3168370  94.8084778  57.2386461  66.7688453  94.1863388  55.9349519
  78.0920492  15.1008172  83.1797176  78.9367663  14.6758885  83.0310064
  77.4670016  14.5709701  82.6849347  38.8595796  13.2829869  15.5752909
  38.8137174  13.2936358  14.6192491  37.9596758  13.4421325  15.8600354
  95.8025944  91.3739199  75.8265859  95.5145085  90.4904098  76.0560435
  96.7285931  91.3942022  76.0681337  79.4762611  20.0695801  43.6448860
  79.8504829  20.9420204  43.7675095  78.6294699  20.1075196  44.0895557
 108.7986529  98.8210244  55.4484135 109.3173372  98.3443732  54.8003369
 109.0075552  99.7419638  55.2920228  19.2318413  56.2640758  88.3172917
  18.6721013  57.0404754  88.3286464  19.2164872  55.9445239  89.2194456
  62.6613413  12.2861428  71.1026150  63.4116255  12.4839921  71.6631084
  62.0959269  11.7359538  71.6446763  93.0662155  35.7848263  18.5834789
  92.6328373  34.9787140  18.8638365  92.9781818  36.3764596  19.3307757
  71.4285170   2.4791856  72.5491959  70.8643614   1.8418164  72.1113282
  71.9094549   1.9667382  73.1990629 114.3497372  81.2329292  28.3435154
 114.3590355  81.5017223  27.4248791 114.9180984  81.8649006  28.7837553
  95.5615507  19.1751905  76.2940985  95.8536516  18.8857265  77.1584612
  94.6257674  19.3451591  76.4020127  55.3127432  43.3880806  10.6021380
  55.4678392  44.3307209  10.5420852  55.8732462  43.0095005   9.9248302
  27.5448582  64.3806995  70.7882386  26.5938351  64.3660182  70.8957726
  27.6798699  64.3230510  69.8423606  46.7146657 108.7782282  80.0159567
  47.1186040 109.3636317  80.6565612  47.4521420 108.4111971  79.5284611
  93.7108885  25.6238790  93.0006759  93.6735140  25.2045865  93.8603419
  92.8544413  25.4480977  92.6110208  86.8697262  43.4141445  13.5679746
  86.9933319  44.2564106  13.1303203  87.2547245  43.5363674  14.4357681
 113.6315691 106.5721840  69.3889648 114.1431057 106.9031996  68.6507302
 112.7237618 106.7709774  69.1596228  13.1919323  12.4528928  81.8566292
  13.6132895  13.0108495  81.2028903  12.7297913  13.0636735  82.4307436
  11.9696198  59.2257595  17.5487113  11.2983570  59.6187878  18.1065297
  12.6320229  58.9050913  18.1607759  60.6186152  39.3881583  40.0050020
  60.4130745  39.7924948  39.1620898  61.5132999  39.6708131  40.1944113
  92.4015986  12.1200032  74.0418607  91.7083918  11.9461913  73.4050780
  92.3793207  13.0686994  74.1671878  80.3479671  82.2373104   8.3467227
  80.9482479  82.6635933   8.9584196  79.8076010  82.9499435   8.0055732
  19.9962603   9.4785638  84.8530108  20.9230171   9.4868846  85.0923604
  19.9417292   8.8560338  84.1279489   6.2639306 106.0772890  78.2494491
   5.8938573 106.6138548  78.9504343   6.3957093 106.6881508  77.5243872
 101.8029785  56.1291552   5.4338121 101.4281082  56.7167807   4.7777632
 101.9019508  55.2932787   4.9780175  84.9101925  56.3010597  23.0327964
  85.0216198  55.5719519  22.4226999  85.4501724  57.0026016  22.6687980
  50.2653490   3.8281865  78.1627661  50.6766020   3.4206052  77.4005395
  50.9797655   4.2891164  78.6025232  78.5914660  41.3471079  10.2356732
  79.2823219  41.3158083   9.5738769  78.0801392  42.1246338  10.0115418
  33.7555157   2.9213710  75.6875592  34.0290390   2.3996301  76.4420169
  34.3930708   3.6340947  75.6454175  89.2211628  81.4850998   8.2018602
  88.6574078  81.8656158   8.8753730  89.6035957  82.2402382   7.7549469
  59.6373354  15.1495261  63.0695444  59.0100371  14.4805379  63.3437449
  59.6919714  15.7467647  63.8155681  47.4126040   3.7779660  77.6819163
  48.2801806   4.1752048  77.6061040  47.3891913   3.1194539  76.9876200
  65.7100630  51.4960003  29.0980530  66.2095213  51.4078617  28.2862616
  66.3650322  51.7202139  29.7590923  44.0993773  10.5560155  68.9925128
  45.0504957  10.6098170  68.8991815  43.8495432  11.3924689  69.3851548
  21.0232422  88.6481113  82.1097594  20.1397488  88.2894701  82.0257979
  21.4608929  88.0642051  82.7292341  73.8075876  39.6128631  15.2465224
  72.9954338  39.7911263  14.7723281  74.4612455  40.1656437  14.8182762
  74.8955917  53.8797903  20.7334685  75.1773643  54.3177366  21.5366125
  74.5916796  54.5895100  20.1676345 109.8836481 103.2573265  59.8155814
 109.8750174 102.3158974  59.6427494 108.9619505 103.5142130  59.7888332
   2.4625466  89.1531128  72.7862817   2.2116730  90.0242085  72.4788910
   2.8565762  88.7335247  72.0214826  96.1968994  98.0546856   0.5639933
  96.2095261  98.9677715   0.2770299  95.4863739  98.0146027   1.2041292
  76.6235148   2.8253312  54.9905330  77.5148856   3.0425544  54.7175723
  76.3459860   3.5733314  55.5194026  80.8689117  63.3154345  20.4828477
  81.0978794  63.5100603  21.3916540  80.8876038  64.1657829  20.0437689
  68.5102797  59.5062828  29.6750402  68.8543463  60.2931929  30.0976777
  69.0744543  58.7996292  29.9890137  66.6119181  19.6798320  91.9198844
  67.3312460  19.6843047  91.2883979  66.4852606  20.6014771  92.1451801
  21.7447064 101.6575379  78.7364048  22.2112534 100.9981865  78.2227689
  21.8161938 102.4593157  78.2184499   0.7795308 102.3724646  92.7828173
   0.4448245 103.2254214  92.5059154   1.7212412 102.5075192  92.8884916
  70.4117857  14.6244378  80.1954883  70.2324473  15.5534787  80.0507301
  69.9775015  14.4229836  81.0243708  36.7091248  69.9773771  65.5958992
  36.1183522  70.3649396  64.9501329  36.6219876  69.0333146  65.4640513
 102.3469078 106.6665930  94.1382810 102.9793370 106.3625426  93.4872691
 101.4992821 106.5984864  93.6988215  16.6764901  67.2983116  83.0183631
  17.0721600  67.5110227  83.8636023  16.3155720  68.1284506  82.7071625
  36.7975174   9.4811912  74.9544507  36.6903912  10.4295821  75.0273734
  37.7297579   9.3325849  75.1127976  94.1016865  18.4646797   3.9586860
  94.1402721  18.5535467   4.9109706  93.2818317  18.8922727   3.7112504
  12.7459799   0.4117532  66.9829398  12.8057753  -0.1875596  67.7269035
  13.3032833   0.0171895  66.3121420  14.0670859  44.3964524  77.2965663
  13.8323962  44.7889276  76.4556652  14.7276055  43.7390370  77.0780211
  92.7474009  10.4865356  92.1325260  92.9057108  11.3906856  91.8610784
  91.8206011  10.4668517  92.3710277 109.6328079  85.3061170  80.4093009
 109.2481911  85.8263726  81.1147350 108.9446509  85.2563280  79.7458309
   8.0934117  89.4764227  82.2474390   8.0159733  90.4303617  82.2321063
   8.9841435  89.3133849  82.5576848  52.3720824   0.9554381  73.1685811
  52.7716910   1.8200345  73.2635861  53.1119238   0.3480954  73.1707173
  87.5502110  50.8927917   6.7888796  87.4118328  49.9518156   6.6809565
  87.7552032  50.9997511   7.7177346  18.8534997  76.3992733  76.5835613
  18.6993382  75.4548473  76.6065186  19.8035309  76.4887780  76.6588348
  30.4722714  53.0677128  27.8613043  30.3291154  52.3475266  28.4753633
  29.5917654  53.3543444  27.6188517 107.8460896  96.8853325  86.5137833
 107.7006304  96.0345120  86.9275093 108.6604607  96.7767281  86.0226220
  19.3116067  98.7005371  76.9416493  19.6280739  99.4419665  76.4255458
  20.0136540  98.5284705  77.5691539 102.5934374  78.1375284  74.1666752
 103.2314646  77.4990982  74.4853645 102.6712286  78.0985421  73.2134372
  90.8189678  55.7558346   1.4631803  90.2341366  56.2026691   0.8511796
  91.1015129  56.4414835   2.0683980  93.4597778  46.4669895  38.2094622
  94.0251637  46.2486029  38.9503241  93.7367821  47.3449612  37.9474139
   2.9675839  52.8763088  77.4705165   2.2184298  52.2811062  77.4975592
   3.0323002  53.1383163  76.5521508  82.6260185  67.2306490  22.0713520
  82.3054218  68.1266403  21.9681287  81.8721581  66.7433262  22.4036908
  72.4276316 104.2127413  86.0046094  72.7614915 103.8369459  86.8191939
  73.0204808 104.9401278  85.8157497  16.5486024 109.1500182  54.7305947
  16.4836953 108.4281201  55.3557998  17.4883053 109.3135208  54.6502429
  78.7081671  49.3628740  11.1624515  78.1212044  50.0800991  10.9230900
  78.5294533  48.6808920  10.5149972  91.1800766  37.7096391   6.4796311
  91.3655090  38.5982680   6.7832577  90.6191349  37.3363900   7.1595293
  29.0759598  33.8952775  83.2153588  28.3748661  34.5286984  83.3685761
  28.6273800  33.0520291  83.1525188  75.4277754  66.3678932  22.7371216
  75.5329466  66.1959791  23.6728644  76.2891102  66.6721916  22.4512172
  12.7918503 100.0832409  78.1105381  13.2768796 100.8975787  78.2440620
  12.5883362 100.0762791  77.1752482   6.3389275 102.3584313  72.5675279
   6.7970631 102.8487439  71.8849307   6.8963215 102.4464220  73.3407026
 113.2737541  31.0008788  22.0953584 112.5881100  30.9244251  21.4318275
 112.8374672  30.7772374  22.9174733  23.5649287   8.7476964  80.2687627
  22.9155957   8.4600301  79.6270114  24.2228257   8.0524344  80.2719933
  89.7798634  99.7307110  24.9399209  90.3589535  99.7901058  25.6997633
  90.0980377  98.9690781  24.4552445  66.7697226   5.5944533  90.3958353
  66.4890848   6.3693280  90.8827120  66.0588919   5.4305549  89.7760880
  76.4917374  29.3364811  28.4060049  76.3764668  29.2392826  29.3512535
  77.1034575  28.6403060  28.1664777 105.2275192 107.1952767  80.7884234
 105.0104296 107.6387352  81.6084546 106.0608875 107.5822777  80.5201822
   9.0327046  71.1091453  74.5484525   9.5073197  70.5778391  73.9091712
   8.6506722  71.8195278  74.0330487  97.5240231  49.2449951  27.0979762
  97.3136616  49.5539618  26.2167740  98.1588459  48.5419846  26.9601107
 114.9977696  69.3128664  55.6527310 114.2176258  69.4077260  55.1062804
 115.4642164  68.5663349  55.2767640  80.2976036  85.4823875   3.5830709
  80.8775330  85.2840614   4.3183106  79.8905897  86.3164902   3.8172823
  56.0012484  63.1742859   3.4401280  55.6134176  63.4712172   2.6169336
  56.8917418  63.5250568   3.4256148 108.4715569 107.6816983  75.7205397
 107.7991879 108.1629271  75.2382856 108.7713969 107.0102019  75.1078218
  92.2883129  55.1683331  14.4613683  91.5823269  54.5926619  14.1673982
  92.0606709  56.0273647  14.1057348  87.2598648  52.7692127  16.1939430
  86.5510368  53.2476234  15.7639253  87.4652672  53.2913780  16.9694352
  26.8926417  28.0418248  89.3797821  26.6346155  28.8639398  89.7966563
  26.5719162  27.3618741  89.9722534  52.9403756 103.9696307  85.3474378
  52.0499489 104.1987366  85.0811904  53.0212185 103.0392355  85.1375365
  13.8999245  81.7301697  92.6896886  14.2760823  80.8601922  92.8234020
  12.9784272  81.5646500  92.4905294  96.6815090  64.0781116   5.1379269
  96.7769623  64.1444969   6.0880387  95.7372379  64.1247749   4.9882329
 104.3960583 108.1399769  83.2244056 105.0072872 108.7154574  83.6842495
 103.8523590 107.7653212  83.9174086  88.5640812  68.1005716   9.6289980
  89.1819954  67.4294519   9.9188453  88.5955715  68.7674284  10.3149593
  19.7505353 103.0132622  84.7006553  19.0169499 102.7664465  84.1374761
  19.3788598 103.0346770  85.5824882  93.4248352  37.3526549   9.9460375
  93.2936764  36.4360976   9.7032434  93.5395145  37.3346877  10.8961725
  93.3451748   6.5501392   1.5425462  94.2154121   6.2466180   1.2840937
  93.4830952   7.4505723   1.8365377  84.7376442  53.9664793  18.2578933
  84.5924568  53.7923908  19.1878641  84.8194599  53.0989504  17.8617442
  37.0509982  90.0195312  77.5843859  37.2994375  89.4636440  78.3229637
  37.8488612  90.0926876  77.0606565   5.9490621  97.8111172  67.4579954
   5.5875003  98.4666443  66.8615150   5.1966900  97.5098515  67.9673147
  72.7136477  35.8914571   3.8235015  72.1234950  36.2574678   3.1647319
  73.4044152  35.4654127   3.3160037  91.1948313  91.3657761  84.1085434
  91.0861339  90.6309986  84.7122955  90.3368129  91.7896843  84.0902519
  80.4701441  38.6701685  25.1025027  80.0156298  39.0504652  24.3508262
  80.1345808  37.7754121  25.1577205  14.3824959  95.7271767  78.3824015
  13.7619734  96.3843918  78.6974525  14.7007740  96.0776615  77.5504780
   0.7325806  84.5001221  74.7633314   0.4050259  85.3633690  75.0158310
  -0.0298878  84.0525055  74.3965769   9.7155070  57.7034569  64.5455217
   9.8652053  57.8664637  65.4767847   8.9533681  58.2401323  64.3279123
   2.6374072  87.2518826  87.3657894   3.5217044  87.0492077  87.6710320
   2.1785501  86.4120865  87.3864269  10.0877285  53.1082535  66.5585613
  10.6297421  53.8928604  66.4758396  10.1629913  52.8612375  67.4802732
  91.4027013 101.0564804  75.5164814  90.8459391 100.5195904  74.9525642
  91.0198750 101.9323921  75.4670763  20.5103816  10.4799414  73.8900423
  21.2733115  11.0251952  74.0820551  20.4934801   9.8343230  74.5965338
 108.9892425 104.0082645  67.1636724 109.3093916 104.1444969  68.0554008
 109.6400662 104.4364452  66.6074991  21.9389153  95.7223034  28.2196116
  22.4692655  95.7857990  29.0139198  22.5043583  95.2762413  27.5891042
 101.3303711  79.3963146  87.4217224 101.4504435  79.5715761  86.4883995
 102.1898760  79.1013908  87.7225590  33.8605781   0.9342147  51.7240906
  33.9387782   1.7374755  51.2094116  34.7379134   0.7907820  52.0789719
 109.6293141  83.3518314  68.8526440 110.4497560  82.8811455  68.9994717
 109.0064969  82.9401684  69.4516945 105.0957110  77.9326153  46.7490721
 104.3561413  77.7065897  47.3131466 105.5113628  77.0933580  46.5513086
 103.9568259  96.9270039  66.9644880 104.4577648  97.6133347  67.4052191
 103.9680245  96.1914921  67.5769615 108.9601113  91.5121078  42.4116421
 108.8787611  91.2441730  43.3269691 109.7293075  92.0816135  42.3962450
  18.6926794  84.2699432  32.5887084  19.1898286  83.4605885  32.7071261
  18.2124579  84.3783283  33.4096050  97.9103424  30.9646898   3.2195491
  98.8287761  31.1697393   3.0444259  97.7663662  31.2594705   4.1187781
  16.7457521  80.6085777  81.3555813  17.2393954  81.4254761  81.2832928
  16.0988772  80.7794094  82.0401287   4.5415452  57.3610830  75.8057404
   4.8486850  57.5052023  76.7007971   5.0304961  56.5950489  75.5051613
  88.1502165   8.5097933  94.8718452  88.4942831   7.6441622  94.6515274
  88.6961521   9.1183425  94.3740082 109.3779035  93.0005836  64.3784189
 110.2546539  92.7636242  64.6807289 109.0685632  92.2254753  63.9096403
  16.6022253  84.3044472  62.9459524  17.3097038  84.7371197  63.4239674
  16.6760504  83.3823013  63.1917572   3.6504054  64.6022320  87.6285744
   3.7833285  64.2842293  88.5215664   3.7183076  65.5542850  87.7007675
   7.6100385 101.4019966  91.7300034   6.6725606 101.5511990  91.6071033
   7.8333598 100.7343674  91.0814381  85.8721103  88.7164021  89.0315914
  85.8621349  89.5828438  88.6248875  86.3980045  88.1795692  88.4387398
  14.6668124 103.7467766  84.4037819  14.5992255 104.3556118  83.6682701
  14.2266488 102.9532719  84.0990829 111.3477769  87.3899937  80.0325584
 110.8618756  86.6064072  80.2897072 111.0554518  87.5706673  79.1391706
  13.4377706  92.9936218  76.0691881  12.7786100  92.4827480  76.5390205
  14.2535138  92.8228092  76.5399456 113.5521867  92.1421528  63.8835049
 113.0242061  91.3453197  63.8333225 113.0263730  92.7451706  64.4089746
  13.8229489  82.2777462  60.4044247  14.2776036  82.9801559  60.8693361
  14.4862354  81.5969658  60.2911997  14.8807287  87.9892826  20.4078484
  14.5043182  88.8026428  20.7439756  15.1726198  88.2081985  19.5229161
  70.7934668  47.8802114   5.0535506  71.5053412  47.7392774   4.4293612
  70.8827754  47.1655756   5.6840629  50.6924857  14.4681025  23.7098432
  51.5898420  14.1879512  23.8901329  50.7871939  15.3328849  23.3105874
 110.4347565  89.3897247  72.9196262 109.6151104  89.1741467  72.4747229
 111.1115857  88.9613533  72.3955727  25.6997299  96.9649506  46.0972261
  26.1842108  97.4845886  46.7386961  24.8707056  97.4309158  45.9884882
  51.0971190  23.3660079  61.2095165  51.8927814  22.8340865  61.1949348
  50.3849138  22.7298785  61.2753153 111.8330254  89.2706490  86.6001892
 112.0592176  89.4819260  85.6944084 112.1110370  88.3613873  86.7106342
  80.6326856 108.3195019  55.8564281  79.7018232 108.1890392  55.6755781
  80.9221878 107.4886322  56.2333775  41.3631248  86.1815453  56.7372799
  42.0365095  86.4311504  56.1044407  41.6093302  86.6382504  57.5416613
  55.7965472  36.5959936  25.2717895  55.2130058  36.0783487  24.7170371
  55.8364131  37.4516874  24.8446673  11.2167311  68.6269283  63.7308693
  11.7588007  69.2706013  64.1870213  10.3394794  69.0098906  63.7303543
  26.6934252  47.7215195  79.8008966  25.7879329  47.9133558  80.0448513
  26.9746900  47.0558357  80.4285812  35.1514840 105.7168579  85.7056236
  34.6033597 105.4304600  86.4362240  34.5329237 105.8922005  84.9964905
  21.5953636  78.8580084  45.5457830  21.1080122  79.4966507  46.0662222
  22.4380779  79.2794895  45.3772020 112.5742962  84.8928928  22.1692920
 112.3797514  84.1141129  22.6907134 113.5204135  85.0091839  22.2562981
   6.5485370  80.0789547  58.6729860   7.0865959  79.9434566  59.4529629
   6.2090218  80.9688759  58.7678623  11.4531314  75.8462238  45.0838518
  11.0550940  76.6659307  45.3769016  12.3620081  75.9024143  45.3788424
   3.7853679  99.8600578  79.0505266   3.5688773  99.3896484  79.8555613
   4.4201577  99.2970467  78.6074686  14.2358935  86.1344624  65.2110767
  14.5405293  86.1161900  64.3038321  14.2239368  85.2153873  65.4782677
  10.7206595  79.8892164  50.5773544  10.3523242  79.0111113  50.6748199
   9.9600667  80.4542732  50.4415751  89.3882837  85.6520748  43.8502741
  88.5769310  85.4978943  44.3341827  89.6448626  84.7869110  43.5310507
  20.2646947 107.9594707  41.3014460  20.3847289 108.2340240  42.2105312
  19.9896991 108.7548256  40.8453560   1.6712416   5.8522654  79.2416811
   1.6852583   6.2459613  78.3693027   2.1242346   6.4861155  79.7978020
 105.3577330  93.1985378  56.2936878 106.1143937  93.3875465  56.8486404
 105.7359244  92.9001141  55.4665518  38.0636954  94.8042583  65.8945417
  37.3537993  94.7930241  65.2525473  38.5152459  95.6335831  65.7378244
 114.7195897  72.5172806  56.6781425 113.8791998  72.2153473  57.0228386
 114.9610775  71.8597221  56.0258150  10.3742731  70.3917170  70.7892513
  10.1581180  69.4632578  70.8756590   9.5379806  70.8437490  70.9011126
  27.5783181 101.5977955  69.5296621  27.3873186 100.6684875  69.4026566
  28.4912324 101.6939354  69.2584133  22.4633479  87.1086407  68.7495232
  22.3197103  87.9766941  69.1264534  23.0164909  86.6587448  69.3881655
  34.3182468  89.7669697   4.4449660  34.3506312  88.8544559   4.1577387
  34.3661952  89.7193718   5.3997785  53.2487084   0.1368952  66.2349892
  52.7738644   0.9493018  66.0595989  54.1634906   0.3494406  66.0499763
  66.8706406  25.4418612  90.6163025  66.1120452  25.9816695  90.8384800
  67.6018346  26.0586501  90.5823898  21.8626429  -0.0515603  42.0682096
  22.1193601   0.7726622  41.6547012  22.5488759  -0.2194261  42.7140713
   6.1180389  38.0101591  25.2998942   5.6891954  37.5874048  26.0439414
   5.5079353  38.6966329  25.0301665  44.9907453   0.2774001  72.6338100
  44.3191190   0.9295035  72.8335810  45.4440660   0.6276465  71.8669605
  56.9195557 108.1691456  24.7567987  56.4051771 107.3867607  24.5579767
  56.3724232 108.8969326  24.4615054   1.0335522 106.3803291  59.9829960
   0.3369606 106.6921616  60.5607033   1.8413857 106.6875935  60.3943634
   2.7146932  92.0239449  81.7109776   2.5019515  92.7405453  82.3088551
   2.9276562  92.4569416  80.8843040 105.2971925  77.5055838  69.3921566
 105.4933765  76.7525291  68.8347912 105.4432752  78.2652855  68.8284731
  47.5504388   2.1584655  81.8199730  46.8026538   1.5611506  81.8037510
  48.1871117   1.7297030  82.3918438  95.0203814  75.2006531  55.8046579
  95.3496565  74.3315840  56.0338640  94.0712609  75.1321411  55.9081507
  29.9778533 108.2003975  42.8988171  29.2870951 107.7190971  43.3542776
  30.6623292 108.3177567  43.5575676  12.8244841 104.0878105  31.3562322
  12.2320306 103.7526226  30.6832719  13.1056190 103.3093929  31.8371272
  58.4173704   9.3983126  27.8139901  57.6975228   9.4086505  27.1831608
  58.7437583   8.4987975  27.7902412  13.7649024  93.6623669  65.6395626
  13.0229008  93.9065552  65.0863552  13.3795154  93.1313229  66.3364840
  17.6628995  54.3074131  54.1846228  18.0598009  54.5322132  55.0261450
  17.7323961  53.3540773  54.1340780  35.4858541  43.9303064  84.7108650
  35.1954412  43.0646372  84.9981117  36.3160753  44.0679646  85.1669598
   2.8954986  75.6513405  73.7267160   2.7653843  74.8914862  73.1593323
   3.3176997  75.2965641  74.5090866  87.4209394 106.3919258  36.2978268
  87.3136129 107.2937584  35.9954834  86.6235318 106.2094593  36.7949009
 111.9856175  51.6550398  50.9490108 111.7936491  52.5211096  50.5894184
 112.2876396  51.1451721  50.1973152   8.7423706  73.4174776  73.0434752
   9.6200204  73.7993622  73.0546761   8.6109400  73.1458330  72.1350908
  27.7737999  69.3294001  85.5805206  27.0672178  68.9221334  85.0794125
  28.5422873  69.2552519  85.0146866  47.1479101   3.8133860  65.4809380
  47.4551649   4.6683646  65.1795483  46.2883342   3.7102175  65.0726271
  22.5155950  55.1654291  82.3277283  22.2887349  55.2625418  81.4028835
  23.2144094  55.8036327  82.4712086  85.3043475  86.0392857  52.3214817
  84.6854581  85.5079842  52.8223991  86.0026111  85.4304409  52.0807266
  24.1205835  86.6613388  41.3366318  24.1587687  85.7066727  41.3949108
  24.9645233  86.9561291  41.6788244  96.6390063  94.3978119  23.9225936
  97.5318875  94.7064114  24.0767384  96.7490544  93.5254097  23.5444117
  20.1435018  63.4291410  70.4947853  20.9792733  63.5896015  70.0566435
  19.5433426  64.0656519  70.1063347  41.3287163 100.3227425  60.0310135
  41.5297794 100.4009438  60.9635830  42.1844625 100.2820110  59.6040869
  29.7781754  82.1431351  77.5147867  29.0975094  81.6728306  77.0333862
  29.8238397  81.6982460  78.3610868 114.4448086  95.9714603  57.5725412
 114.3174497  95.8632374  58.5150337 113.8528868  96.6839027  57.3311138
  48.5977204  13.6569262  31.4695811  47.7728261  14.0696383  31.2137413
  48.3368326  12.8254271  31.8655372   8.4893417  89.8589706  54.7945690
   7.6216596  89.4555950  54.7691298   9.0457571  89.2619991  54.2943096
  35.6873274  50.1216364  80.0202274  34.8442984  49.7005939  80.1883221
  35.9552956  49.7878170  79.1640854  22.9973984 107.8973770  45.0039148
  23.0114126 106.9867134  44.7094107  23.8682008 108.0429363  45.3737068
  22.9309893  44.7602654  33.5670209  23.4410930  45.0369453  34.3282509
  22.7286458  43.8400650  33.7359023  24.4824767  96.2685966  59.6328735
  24.3945956  96.6624451  60.5008602  25.1592827  96.7896652  59.2008400
  19.5488703  70.6883383  57.3691177  18.6733246  70.4774809  57.6934481
  19.4301367  71.4933872  56.8651009  11.8038523 105.6162262  35.0157595
  11.1019683 105.2742863  35.5695343  12.3361838 104.8496532  34.8031282
  21.1175227  98.5920715  81.4023781  21.5762830  99.3776989  81.6999626
  21.6771674  98.2345772  80.7130051  99.0866043  91.2573719  59.7008848
  99.2818083  92.1788311  59.5304775  99.8088839  90.7800579  59.2925835
  57.6377321   0.4280520  32.7507567  56.9445945  -0.2078676  32.5735712
  58.4399630  -0.0934076  32.7779102  37.1444964  97.7742481  66.5288305
  36.9921279  97.9980850  65.6107283  36.4055324  97.2133064  66.7644167
 108.7780460 109.0966606  60.6679726 109.7243698 109.0108871  60.7835007
 108.6802491 109.6131611  59.8680401 115.6771520  99.2598534  57.7613735
 115.7445697  99.0256786  58.6870337 116.5745966  99.2016125  57.4336052
  24.3271065  58.5875988  79.6680260  24.7251868  58.1322050  80.4098988
  24.7916579  58.2497454  78.9023352   8.1805481   1.9145442  82.2356510
   8.0525268   1.7877150  81.2955666   7.8614010   1.1039782  82.6323318
  82.2939933  25.3258467  29.8131609  82.3074020  26.0293151  30.4621482
  83.0402578  24.7726870  30.0440884   9.7767168 102.2367191  67.7175951
  10.6381965 102.3431396  67.3141623   9.2915827 101.6846657  67.1043110
  10.2717006  82.2530556  90.3115463  10.8742070  81.5896606  90.6478882
   9.4877481  82.1611786  90.8530331   4.8248416  91.6687489  84.7756100
   5.4353768  92.1414471  84.2098904   5.0747257  90.7494545  84.6824074
  25.5305362 105.4594231  57.9468679  24.9041414 105.9440804  57.4093151
  25.0060344 105.1046658  58.6646986   1.7964041 109.7962666  57.6077080
   2.5231990 109.9684143  58.2063437   1.7207836 108.8422012  57.5909042
  63.0030025  19.4922782  68.6936283  62.7160109  19.9036170  69.5089006
  62.5836695  18.6318351  68.6989307 106.1465515  12.5924254  64.4187069
 105.5719722  12.6109839  65.1840496 105.7230152  13.1737185  63.7870884
   3.7111425 103.3408356  89.4054794   4.2910942 104.0139103  89.7616386
   4.0298718 102.5232506  89.7878551  33.0124331  96.8677330  55.0898504
  33.6989117  97.5129509  54.9205494  32.2208476  97.2571373  54.7183847
  72.1878089  17.7191687  45.2167177  72.7659692  18.3628512  44.8072958
  71.4146627  17.6987220  44.6527481 102.4927642 108.1023502  85.3849983
 102.0481135 108.5532093  86.1028099 102.0229962 108.3816624  84.5991707
  51.5357054   8.8853312   6.9580227  52.4545265   8.8525534   7.2243381
  51.3812102   9.8052836   6.7434192  18.6227489  85.8419228  59.8056507
  18.9728546  86.1261272  58.9613247  18.0417061  86.5530777  60.0756216
  23.0817760  17.7637625  41.4373302  23.1199719  18.7184573  41.4950705
  22.2524370  17.5835753  40.9946537  78.3587613  73.7818193  92.2469425
  78.5471429  73.0692291  92.8576374  77.8103723  74.3867254  92.7465248
  20.2607417  89.6494198  86.1918259  20.6544280  90.0583363  85.4210949
  20.9195709  89.0242958  86.4941502 114.8887779 104.2310905  50.9721661
 113.9796405 104.1525555  50.6831455 114.9841780 103.5597229  51.6477394
  18.8807106  93.5710049  76.4920664  18.7935889  94.5114899  76.6473770
  18.4675992  93.4296322  75.6402540  17.2699046  88.0927849  63.1181765
  17.4151874  89.0373898  63.0647707  17.6105011  87.8463078  63.9781046
  55.2271128 100.9750271  66.0967588  54.7220135 100.7625294  65.3119326
  55.6565285 100.1533890  66.3349771   6.3019735  83.6829185  76.4560604
   6.6581029  83.0090523  77.0351124   7.0165670  83.8805580  75.8506489
  17.7123368  98.3942986  79.9861860  18.2025814  99.1224384  79.6044731
  18.3514190  97.9345989  80.5306911  28.0252171  99.0901566  65.1029873
  28.1783104  98.1498337  65.1957035  27.7652097  99.2014599  64.1885281
   5.8289009  81.3298416  51.5379953   5.0277817  81.1304474  52.0224333
   6.0909897  82.1945095  51.8540716   6.9931930  93.5770321  37.9107046
   7.6664019  92.8990173  37.8531957   6.8480396  93.8479328  37.0041847
  47.3385670  43.6208349   3.3761043  47.3711254  44.2372041   4.1077155
  48.1173327  43.8231569   2.8576297  10.3235173 108.1360245  29.1154265
   9.3928677 107.9305744  29.0264750  10.7623637 107.2870064  29.0623784
  13.2086694 108.5766602  47.7692556  12.3956645 108.1305122  48.0063391
  13.7982726 108.4064770  48.5038567  14.7620130  92.9253101  22.5855184
  15.5365860  92.6687527  22.0850706  14.5795953  93.8211823  22.3020196
  65.2242769   0.9821749  68.5161018  64.9678720   1.7329169  69.0517139
  64.7200192   1.0807563  67.7084923 115.4886136  87.3058701  63.7380314
 116.0571351  87.0882034  64.4767046 115.0006493  86.5005779  63.5659218
  46.6773987 106.2996674  62.4261427  47.5602531 106.6225910  62.2457981
  46.5417004 106.4801788  63.3563185  14.0989637  78.7043428  40.4108047
  14.7100508  78.4582376  39.7163725  13.2504833  78.7668085  39.9721599
  18.4250569  79.8366928  71.7832947  17.9728544  79.0312719  72.0343828
  19.1706264  79.5400429  71.2614155 115.6373954  72.3306608  72.7054119
 115.3620986  73.2386875  72.8316069 116.5134000  72.3965931  72.3252773
   5.0430989  95.8598614  37.9417491   4.6853262  96.6911697  38.2534480
   5.9163463  96.0812092  37.6182127   8.3503431  88.0690098  62.0280981
   9.0608388  88.6522865  61.7612314   7.6056594  88.3366585  61.4895391
  18.9238263   8.4035540  53.8801813  18.4515394   8.3620692  54.7117186
  19.3374897   9.2667533  53.8824892  14.7650230  80.0105095  52.7186060
  15.1372266  80.1791000  51.8529987  14.6221280  79.0642262  52.7377081
 103.9471414  94.9510002  69.0772009 103.7940385  94.1681480  68.5481119
 104.5646276  94.6674347  69.7513914  74.1220320  17.1139098  75.2844810
  73.6596979  16.2941790  75.4591799  73.6501301  17.5027991  74.5480680
  56.5196396  12.1726466  52.5034952  56.8776621  12.1266986  51.6169596
  56.8884326  11.4108039  52.9505110  57.9926109  81.0050964  77.2834730
  58.5504818  81.2606335  76.5488291  58.3934593  80.2042294  77.6213646
  28.3386183 100.0586796  53.0427027  28.3637691  99.3796825  52.3684931
  28.1558633 100.8663273  52.5625467  42.9154730 102.7122021  29.1942596
  42.0758390 102.4200630  29.5490861  43.0420351 103.5850334  29.5662522
 115.9054423  95.5854797  11.9939744 115.8101805  94.6330452  11.9882882
 116.8483138  95.7314205  12.0709491   1.7179307 100.0010204  56.5199852
   2.4728060  99.5896339  56.0990858   2.0736896 100.3973675  57.3153257
  44.5181782  35.2008010  20.1042056  43.8254185  34.8023749  19.5773530
  44.2519880  35.0416136  21.0097599  90.3428712  72.4093676  56.4035034
  90.3810634  72.9091215  57.2189903  91.0829343  71.8047619  56.4582300
  12.1799338 102.1590900  66.4175844  13.0159187 101.7672348  66.1649704
  12.2710669 103.0846214  66.1910486  68.3488692  10.2687503  83.8723469
  68.4160865   9.4266558  84.3224525  67.7493728  10.1041175  83.1445217
  46.3290310  90.7423019  79.0186930  45.5059719  91.2225723  79.1089344
  46.1550474  89.8912430  79.4207621   7.4676549 106.8436337  91.7029667
   7.7743059 107.7375507  91.5509605   6.8388611 106.9248104  92.4200916
  69.4878901  20.2179766  29.6055555  68.7732805  19.7768927  30.0649190
  69.7522320  19.5998526  28.9241767  48.9637817   5.4281569  67.7825117
  48.2586665   5.8760977  67.3151922  48.9618207   4.5402480  67.4249601
  22.1412684   9.2755843  60.2783489  21.1971236   9.4244242  60.2266836
  22.2549404   8.3635379  60.0109911 102.5699451  50.3307629  43.3174992
 103.1649198  49.9267197  43.9491510 101.7638209  50.4823971  43.8108587
   9.8491514  99.0586376  49.9299288  10.3695726  99.8032093  50.2315998
  10.2201164  98.8375473  49.0756845  96.3936653  75.1894283  68.1246471
  96.1051907  75.8974504  68.7005949  97.0207193  75.6034660  67.5316811
 113.1205823  93.8044548  47.2933435 113.6748230  94.5443439  47.0451164
 112.5276675  94.1607094  47.9549789   1.1830141  72.7565622  52.2850609
   1.7211777  72.3340130  51.6156864   0.3746606  72.9914331  51.8293953
  88.0381217 106.9238663  57.6217556  88.1335010 106.3272667  56.8793297
  88.7782874 106.7165756  58.1922150 111.5174933  95.5711079  59.6538591
 112.2454106  94.9993420  59.8976707 111.9231536  96.4253521  59.5057249
  48.1100061  41.2879663   4.8750609  47.6261880  41.8149381   4.2390937
  47.4814250  41.1243253   5.5781573 113.0783637  98.1896591  69.1343498
 113.9257373  98.2772636  69.5708323 113.1348904  98.7778473  68.3813095
  19.1056324   3.5184146  70.0779963  19.6212352   3.7222625  69.2977190
  18.7765230   2.6330329  69.9230337  82.1440471   2.5806571  39.1106534
  81.3548435   2.7103663  38.5847592  82.3275436   1.6438533  39.0401769
 112.5688233 107.8542614  74.3346024 112.8460466 106.9429493  74.2403269
 111.7846184 107.8106785  74.8817348  59.0640463   8.5482169  47.9066133
  59.9596752   8.2324172  48.0264091  59.1662182   9.4582701  47.6280355
  60.3037513  13.0314875  31.0618520  59.8868359  12.1755076  30.9632993
  59.6922911  13.5352946  31.5989971 106.0142710  32.1968465  16.6784972
 105.1094344  32.5090891  16.6753787 106.5026619  32.8824526  17.1341819
  48.3215284  99.6924496  35.2138948  48.6781025 100.3940010  34.6690035
  48.8209915  98.9158440  34.9615979  20.8406186  82.3813820  79.8769426
  20.1802135  82.5258350  79.1992760  21.5714622  81.9702148  79.4153786
  11.5190125  88.8121510  85.1788330  12.3502398  88.5318851  85.5619144
  11.2174463  88.0532360  84.6794987  25.3501773  93.2661533  55.4887009
  24.8155856  92.9965210  54.7418833  24.7299337  93.6758804  56.0917377
   6.5264219  84.3576336  64.4383764   6.9185084  84.7665119  63.6668062
   5.9422624  85.0275230  64.7936630  74.0280665   7.6469088  72.0711279
  73.8892115   7.3716880  72.9773283  74.4700135   8.4929515  72.1428013
   6.7704999  77.3390150  81.1872196   5.9824234  77.8814173  81.2182617
   7.4479967  77.9204559  80.8420277  73.0061007 106.9586849  51.8994474
  73.5538483 106.3298893  51.4295340  72.2391081 107.0743179  51.3385677
  58.5821665  18.9925338   2.1492288  58.0447138  19.0374518   1.3584325
  58.0746616  19.4626761   2.8107667  36.4358521  80.8406258  59.1084290
  36.0153103  81.6661835  58.8679314  37.3717594  81.0068893  58.9958668
   5.2208686  83.5574341  44.3969631   5.4734302  82.6458168  44.2506886
   4.6072313  83.7525558  43.6887217  50.7119561   2.5618220  60.9059715
  50.9742154   3.4130336  60.5554056  50.2948393   2.7657366  61.7430258
  29.2440438 103.7844658  55.3304148  29.3022513 103.1668282  56.0593605
  28.8124990 104.5537472  55.7021809   3.4940091  83.7832546   8.1700456
   3.1234702  84.4298458   7.5693321   3.2605150  84.1041374   9.0411061
   5.3990489  99.5417309  55.1979780   4.6504229  99.3458176  54.6345901
   5.1923090  99.1133022  56.0286093 107.3516895  71.3991117  46.1218548
 107.7814694  72.0817757  46.6371107 107.7377488  70.5820417  46.4374256
  42.8863085  12.4970580  81.8921089  43.0942355  13.3381701  81.4852524
  42.1310193  12.6813174  82.4505234 101.3694479  82.6886368  74.0995264
 100.8134701  83.4095955  73.8039923 101.7709174  82.3518848  73.2984924
  14.1359246  79.1756105  55.2930880  14.6069825  79.5752859  54.5619297
  13.3145690  78.8682795  54.9094820 112.3463305  95.0421333  62.8105450
 112.1050980  94.3260479  62.2229671 112.2618540  94.6703339  63.6885309
  45.8489914   5.3368808  51.8719673  45.9234751   5.9475089  51.1386013
  46.7442293   5.0336123  52.0229959  98.1847490   2.8540850  60.4473686
  97.2509445   2.6931048  60.5827522  98.5400022   2.9596854  61.3299036
  18.6006844 106.2571526  20.7127929  18.9935720 105.4077053  20.9135699
  18.5556948 106.7058086  21.5571356  12.1656823  80.5673027  13.5593891
  11.5807045  79.9960947  13.0616462  11.7879534  81.4412975  13.4609258
  13.6937584  25.6533766  73.2966185  12.8861154  25.4011965  72.8490114
  14.3201841  25.8103324  72.5900888  75.7948865  21.4192630  28.9764977
  76.6330041  21.8261195  28.7568259  75.4909004  21.8982363  29.7474766
  47.6928968   7.0852996  77.7773666  47.0968021   6.6553450  78.3905888
  47.1650178   7.2305442  76.9922066 113.1956678 109.4361687  33.8819051
 112.4927797 109.0191841  33.3836031 112.9573848 109.2930603  34.7978592
  46.8306197   7.2867156  86.1877251  46.9965370   7.2069979  85.2483940
  47.1939374   8.1403113  86.4235306  61.8286551   1.5510989  60.9497356
  62.2509278   0.6967879  61.0396004  61.0034980   1.3644934  60.5019379
  12.8357160  84.3429279  29.4357347  13.1260240  84.9956608  30.0728321
  13.6390626  83.8980961  29.1655707  49.7734321  19.2290831  29.7851777
  49.2040671  19.9814177  29.9465418  50.3703750  19.5236445  29.0973377
  81.4135184  69.0388727  28.6717987  81.6505398  69.0813589  29.5982146
  81.2932458  68.1053162  28.4979153  92.1711506  11.6565025  30.5723572
  92.1193685  12.1463704  29.7516370  93.0001559  11.9318342  30.9637332
  10.8819973  82.1520042  82.0525837  11.5424621  82.8295994  82.1970844
  10.0459504  82.6088524  82.1450329  26.8519926  52.2353554  41.7401218
  27.7579165  52.1151972  41.4553452  26.4289808  52.6861382  41.0093069
  12.6535189  81.8031693  53.1670380  12.3346841  81.5351105  54.0288496
  13.4619439  81.3053322  53.0452490  13.4557056  46.8466759  47.9010344
  13.2149816  46.2229061  47.2160578  13.5736263  46.3088703  48.6840391
   5.1636052  85.1091099  78.3118629   5.8231896  85.7651615  78.5372162
   5.5169624  84.6701813  77.5380993  93.3473744  32.9008150  29.3161011
  92.7254357  33.6060214  29.4952989  93.0305614  32.5022888  28.5055232
  91.2788882  50.9023380  37.6017046  92.1484365  51.2628412  37.7753568
  90.9393634  51.4326143  36.8807602  16.9827223  54.9656630  37.6550150
  17.6326084  54.5896816  37.0612836  17.4961221  55.3053617  38.3879924
  86.3528266  50.0832272  67.5365496  85.9786286  50.5450726  68.2868195
  87.0486011  49.5427322  67.9107141  22.2240376  43.6135817  60.3508186
  23.1388402  43.3668518  60.4868221  21.9138074  43.0170012  59.6695805
 114.5210238  55.7164907  34.5863295 114.2929291  55.1477003  35.3216386
 113.6935492  56.1270857  34.3354678  80.7706585  43.2985115  27.0435953
  80.6131615  42.3865795  26.7990446  81.4885940  43.2565165  27.6752877
  27.9575419  36.4967489  33.8363218  27.4994898  35.6989408  34.1007495
  27.2592854  37.1304297  33.6716557   5.1852876  70.7622099  27.3840547
   6.0131657  70.6310511  26.9218349   5.2410710  70.1832294  28.1442547
  12.8911686  37.5461626  53.4228230  13.1361210  36.6859889  53.7638998
  11.9342220  37.5488400  53.4446573   7.1606231  83.8672447  46.2636662
   7.7538311  84.3719769  45.7072639   6.3656396  83.7695885  45.7395506
  89.1080131  38.3215523  34.4838405  89.8171534  38.3702302  33.8427615
  88.4823122  38.9879799  34.1999340 112.8587173  49.6765471  68.6628771
 113.5479110  49.8535872  69.3031120 113.2952144  49.7511864  67.8142738
   8.2383257  36.7240167  63.9496374   7.4059772  36.8410897  63.4916830
   8.3243257  37.5066280  64.4940233   7.7697504 105.1211452  44.5182085
   7.2772187 104.4596577  45.0040817   7.9198390 104.7253799  43.6596823
  35.8049846  50.8032942  94.9289989  35.8423042  50.0500154  94.3395805
  36.2999058  51.4862776  94.4764328   6.3939893  87.2097492  57.5592995
   7.2103828  87.5858307  57.8883839   6.4056867  86.3040161  57.8687048
 113.1515076  99.5505714  18.7819564 113.8006120  99.7199440  18.0991614
 113.6688580  99.4135475  19.5755601  14.6458435  69.6249866  53.2060289
  14.0999830  70.0813246  52.5656986  14.1780305  68.8084126  53.3809185
  14.5496070  33.9409709  70.4708815  14.3233466  34.2324114  69.5876503
  15.5015361  33.8420987  70.4539680   4.5555273  64.0756178  32.7309680
   5.0396204  64.2587137  33.5361767   3.8312495  63.5150242  33.0091572
  20.1700355   2.2891379  60.4072571  20.6838669   2.0280886  61.1714983
  19.3034912   2.4925090  60.7593489   9.1474986  59.2513800  -0.2240746
   9.6714658  58.9496422   0.5179800   8.7722194  60.0815582   0.0695276
  26.8695641  84.5703793  16.5241838  27.3137617  85.3396034  16.8808579
  27.4965072  83.8564491  16.6403103   7.8878880  44.7186470  62.0956087
   6.9676393  44.4557858  62.1123695   8.3484286  43.9561605  61.7452431
   1.7878941  77.9844618  29.1141319   1.4035460  77.1099806  29.1757417
   1.2974876  78.4127378  28.4124804  15.4754674  72.4083328   6.1930859
  15.8939934  72.8514385   6.9311404  14.5500934  72.6416397   6.2671357
  10.6715071  53.1623793  58.0327368   9.9573457  52.7986240  57.5093985
  10.7524884  54.0672731  57.7313375  13.2013214  51.1034346  20.9634948
  14.0263724  50.7371569  21.2818670  13.4006298  52.0222902  20.7840109
  95.4568472 106.0723400  54.5808220  95.7760133 105.1859856  54.4112492
  95.0349702 106.0150623  55.4381275  99.2738654  94.3723392  41.6748524
  99.2207374  95.2866936  41.3966846  98.3715727  94.1338825  41.8875408
  95.1061358  87.2553730  68.6341953  95.8982744  87.7915764  68.5990095
  94.8781790  87.1043777  67.7168798 115.1525534  39.8880601  19.9425566
 115.6339491  39.0842342  20.1383972 115.5076495  40.1815033  19.1034925
  33.2223678  80.4945850  27.0481324  34.1437221  80.3021622  27.2222352
  32.7520871  80.0975227  27.7812123  14.4159877  55.3728437  18.6044323
  14.1304243  56.1802053  19.0320480  15.3119898  55.5556154  18.3215737
  46.0456843   1.0220195  19.7554410  46.1978311   0.1588298  19.3707538
  46.2120057   0.9003497  20.6901956   8.5914278  75.4973364  59.0104246
   9.3286395  75.8480787  59.5101547   8.0991447  76.2706947  58.7350893
  97.8447070  73.3897543  36.2591243  97.2482493  73.4784174  35.5157471
  98.3029177  74.2291641  36.2999940   9.7759712  53.9309406  32.0067787
   9.7310191  54.7675991  32.4696088   9.1824144  53.3570862  32.4911451
   4.3110135  67.3321533  38.7022328   4.3869656  66.8028069  39.4961190
   4.0810406  66.7046022  38.0170131  18.1430602  67.1028137  41.3230133
  17.6845121  66.5372181  41.9443560  18.6925328  67.6638889  41.8702888
 104.0201690  61.4916468  17.2583115 104.2110481  61.9584656  16.4447522
 104.2107906  62.1263313  17.9490149   8.7427026  52.0545101  29.4859815
   8.1788170  51.9672060  30.2545142   9.3168163  51.2894440  29.5219970
  32.6286578  82.3590088  59.9005032  33.0077481  81.4862251  60.0043201
  33.0791783  82.7269459  59.1403198  21.7805648  24.2195773  34.1393304
  22.5980353  23.8869786  33.7687206  21.1712646  23.4842539  34.0738773
  22.2116971  61.4783430  47.8617334  22.0506287  62.0814419  47.1360874
  21.3848615  61.0085726  47.9707670  54.3324197   0.3689433  27.2714520
  54.8487688   1.1721087  27.2040868  54.0900685   0.3168536  28.1959963
  29.7820808  12.4175883  38.0486679  28.9748813  12.6372767  37.5834823
  29.6896298  12.8412581  38.9020085 114.5458483  27.7716708  25.7874608
 114.3309765  28.6787796  25.5701709 115.2687677  27.8395772  26.4111662
 109.9311521  58.0923557  49.1820860 109.7419413  58.6699057  49.9215937
 109.2393192  57.4314833  49.2111874   7.5851732  43.8943815  18.1091928
   7.7749681  44.8311043  18.1617367   6.7054284  43.8072968  18.4762037
  68.1263597  18.6769433  75.7775777  68.6032350  19.5067210  75.7945519
  67.6167262  18.6769624  76.5878278  88.6139240  68.3355713  62.5167704
  88.7219586  67.5066233  62.9830408  87.9243483  68.7929296  62.9979563
 111.2841376  54.2817640  61.1749125 110.6191828  53.5933352  61.1863136
 111.3240512  54.5912170  62.0798349 115.3756597  78.6123610  71.4692879
 114.9177911  77.8594780  71.0954475 115.8735337  78.2501650  72.2022057
   0.7519637  83.6678028  44.4615650   1.0644457  83.7984562  45.3568363
   1.5205336  83.8277531  43.9138842  22.4591708  53.4785795  56.6963434
  22.6011109  54.1880465  56.0696507  22.1674466  53.9189291  57.4946070
 103.0516960  89.1077995  36.5401459 103.9071014  89.2619419  36.1392069
 102.6723649  88.3935738  36.0280609  49.9581720   0.8192969  38.0849099
  49.0638174   1.1183787  37.9208565  49.9092175   0.3688575  38.9280796
   2.7449697  71.7451859  26.7920327   3.5530889  71.5623617  27.2713566
   2.8720784  71.3275909  25.9401560  24.9600053  75.8128071   6.9172889
  24.1356707  76.1276340   6.5463543  24.7992682  74.8887253   7.1082532
   9.6324754  60.1784420  13.8911819   9.0918308  59.4037628  14.0454960
   9.1825557  60.8816624  14.3594599  23.6271238  63.8488340  88.8118649
  23.1899047  64.6796942  88.9982605  24.5389915  64.0894890  88.6480999
  15.7492483  82.2852230  39.9142098  15.0701320  82.1149921  39.2614794
  15.5389118  83.1534958  40.2578354 110.0367244 100.4769039   6.4178580
 109.5526477 100.3816509   7.2381186 109.4062050 100.2378464   5.7384992
  93.2958103  15.9098907  85.4159665  92.8244925  16.6434999  85.0211149
  94.1784371  15.9674974  85.0500661  11.8587697  72.9557133  50.7630396
  11.4049518  73.2750797  51.5429688  12.0336890  72.0331192  50.9486580
  39.3415952  98.6938763  19.0986502  40.2456331  98.3921719  19.1876388
  39.3093204  99.5061302  19.6040511  16.9170392  73.6216259  55.3621960
  16.4206147  73.4678030  54.5583725  17.7606893  73.1966257  55.2077198
 114.9478974  77.6679039  41.0157633 114.4326585  76.9495201  40.6487703
 114.5698046  77.8153419  41.8826771  11.0831392  49.4590998  45.7596684
  10.3099167  49.7583103  46.2380314  11.1864233  48.5437584  46.0198879
  23.0973959  33.5035682  47.0840025  22.4712324  33.6862040  47.7845716
  23.4378433  34.3633747  46.8368959  31.3859916  48.5196543  49.7028112
  31.6292477  48.2197666  50.5786657  32.1860456  48.4239912  49.1860962
 114.2744716  72.3465490  32.3927569 113.8844102  72.8168297  33.1295848
 114.5762741  71.5197849  32.7690649 100.8869292  53.7205267  62.6905298
 100.0147881  54.0281963  62.4436712 100.7790627  53.3830738  63.5797548
  12.9160988  43.6474657  24.0418720  12.4491787  44.4150305  24.3721151
  12.7132046  43.6277437  23.1066298   4.2691657  75.6420374  18.0212820
   3.5206521  75.2418423  17.5787854   5.0333714  75.2220869  17.6264882
 110.6759652  70.6619787  93.0815792 110.6697150  69.9367332  93.7062454
 111.6037371  70.8591795  92.9528046   5.6239468  45.0480843  82.9414177
   5.3355783  44.2003489  82.6031685   5.5549794  45.6406593  82.1928692
   6.9611251  48.1094885  53.6310005   7.0147479  48.8909674  54.1811323
   7.4396533  47.4395514  54.1192865   6.7995834  23.0363798  41.5960312
   6.0914040  22.4257565  41.3914442   7.2500962  22.6395607  42.3415518
 106.8357088  85.2928925  15.9152675 107.3425820  85.0922680  15.1284647
 107.4772777  85.6513596  16.5285552  91.5231909  95.6624699  80.8768368
  91.7033424  95.3027439  80.0082874  90.7372346  95.2007866  81.1689949
 101.0873630  57.7472496  66.7793417 101.8188955  57.4397182  66.2440681
 101.3114466  58.6528492  66.9935989  26.2089753  49.1134453  38.0221057
  25.4706931  49.1610575  37.4147320  26.4916658  50.0218916  38.1271625
   8.1032282  66.8226576  14.4696438   7.4037683  67.4750519  14.5066023
   7.6681066  65.9934902  14.6680951  26.3736011   2.5906039  55.6852770
  26.3737572   2.8811789  54.7732449  27.2028733   2.1237326  55.7880449
  10.5344141  78.1834745  46.5366840   9.9871302  77.4627304  46.8485069
  10.1032829  78.9717531  46.8667936   9.5476526  59.2371607  34.9120879
   9.3478525  59.8297071  35.6367946   9.0749353  59.6043873  34.1651511
 103.9856603  69.1566467  70.7543659 104.3900051  69.6540689  70.0435209
 103.4253802  68.5189867  70.3119755 115.6699270  77.8181124  31.2447143
 114.8286497  78.2551193  31.1123991 116.2945919  78.3451796  30.7464910
   5.0461841  65.6058741  51.1011028   5.9211648  65.5834341  50.7136297
   4.5759192  66.2665462  50.5925798   0.7050288  31.4630723  56.3364744
   0.3737653  31.3721085  55.4430437   0.0654771  32.0258594  56.7729092
 103.3182301  63.9284706  47.1421003 102.7770784  63.6474419  46.4042616
 103.7482359  63.1277609  47.4424219 107.0729293  58.8907385  28.2835627
 107.6736279  58.4271622  28.8670778 107.6427438  59.4132710  27.7192044
 115.3885032  62.5566721  23.0266905 114.9974806  61.7536592  22.6824450
 114.9507666  62.6952744  23.8665748 113.1839912  71.5858269  39.5084000
 113.1173201  70.8756256  40.1466751 113.2277655  72.3813391  40.0389481
   3.9009064  82.9061317  36.4388418   4.8044583  82.9814816  36.1320066
   3.8177288  83.5855579  37.1079421  23.6193705  89.2051888  16.1651301
  22.7406096  89.4366837  16.4658284  23.8316822  89.8707485  15.5107749
  20.4707885  68.4153271  50.3761482  19.5975697  68.0335569  50.2868700
  20.6060362  68.8972950  49.5602798 115.8199097  91.7499352  40.4279709
 115.2254092  91.8716431  39.6877098 116.6934878  91.7536449  40.0367212
   9.3359357  92.9431725  40.3519773   8.7628329  93.2199287  39.6370006
  10.1567614  92.7034092  39.9218774  32.7464199  88.6781311  34.2664027
  32.7095199  88.8733959  35.2027464  32.6426244  87.7279282  34.2156219
   3.7726581  67.2036791  46.8669558   3.4002534  68.0853224  46.8830013
   4.7169876  67.3411703  46.9415951 116.0396176 102.6205826  63.4934568
 115.6396606 101.8732929  63.9382315 116.9079746 102.6978588  63.8886976
  13.9726543  71.4931107  25.2164173  14.2118955  72.3888159  24.9782848
  14.6749306  71.2045479  25.7993150   2.6163098  92.3612309  46.8056870
   2.2371569  92.4242878  47.6823282   2.8781343  93.2570171  46.5929794
  43.5963869  95.7431030  44.5764351  42.7193689  96.1261559  44.5948887
  43.9139271  95.9143257  43.6898232   8.0368060  82.5022411  33.1492090
   7.3175991  82.0056057  32.7589202   8.5918713  82.7429581  32.4074626
  44.3374920  90.6117249  44.7868824  43.9262629  91.4595699  44.9550247
  43.9162207  90.0144196  45.4049349  59.6876812 101.5725422  24.5737410
  59.2195082 102.2250748  25.0945425  59.1235638 101.4218235  23.8152647
 106.4978226  80.7865906  64.4261694 106.2839081  80.3428745  65.2468920
 107.4434384  80.9284401  64.4699860  14.4140780  66.8867636  61.3040018
  14.5024455  66.2668705  60.5800200  13.4954393  67.1545744  61.2792349
   4.8766842  88.0273724  79.7152567   5.5027276  88.1407642  79.0001059
   4.0189868  88.0972481  79.2960882 102.5953176  73.8609076  40.1407051
 101.7058649  73.8012266  40.4893398 102.5300648  74.4929552  39.4248247
  93.3116617  85.5296993  63.6113739  92.6920476  85.7047462  62.9030848
  94.0433182  85.0836945  63.1847763  15.7095194  78.5935259  34.7932839
  14.9443972  78.7017965  35.3581691  16.3338697  79.2473745  35.1077724
   8.2120758 105.1584530  31.8715549   8.2762909 104.2278004  31.6570997
   9.0916711 105.3983021  32.1631312 114.7161004  83.7756062  60.4737473
 114.5867117  84.4334698  59.7905922 115.6667189  83.6991978  60.5557203
  22.4827766  72.6220179  18.7546539  23.2656121  72.8152990  19.2704439
  22.1093488  71.8438816  19.1685236 107.9056193 103.2443237  48.8285208
 108.3896961 103.4983921  48.0428028 107.8179201 102.2937012  48.7588787
 101.2248232  71.7178965  48.9706087 100.3762903  71.3505507  48.7230587
 101.3176336  71.5022659  49.8985767  14.7614729  90.2460098  45.7455301
  15.0784183  89.5713615  46.3460493  15.4893863  90.3894424  45.1407146
  23.7087846  95.0946903  33.6904383  22.8534174  94.8634434  33.3283639
  23.6422729  96.0298634  33.8834786   7.1905196 106.7676353  64.3287897
   7.6027787 106.0499477  63.8479519   7.4014777 106.5936756  65.2461052
  93.6217441 103.7544918  36.9084787  93.9682760 103.0287457  37.4275422
  92.8358235 104.0318394  37.3792672  25.0571465  92.1887589  22.4073267
  24.8344660  91.3442993  22.0154929  25.2780533  92.7476788  21.6623187
   2.7337462  81.3615131  27.7268338   1.7932466  81.2993050  27.5600362
   3.1058925  80.5963612  27.2883368  15.1563025  53.7020683  39.6844172
  14.4786584  53.1864214  39.2472243  15.9253490  53.6133337  39.1214561
   7.6874548  35.7906699  37.4428320   7.1613467  35.8562469  38.2397890
   7.0672774  35.5131698  36.7685890  90.4074540  50.9835291  44.9433041
  90.7017364  50.5197859  44.1593599  89.6804919  51.5278482  44.6408606
 115.9025396  89.4497108  47.1352625 116.4888052  89.1047955  47.8087330
 115.1430813  89.7716713  47.6208496 114.1196742  73.5454941  77.3411179
 113.5323428  72.8990221  76.9495201 114.0195077  73.4195614  78.2846928
  45.0316811  84.7236919  18.7743425  44.4224453  84.3085766  18.1638110
  45.2991390  84.0177917  19.3629098   4.5061627  61.9086647  39.1042519
   5.1472485  62.5791073  38.8681483   4.3285853  61.4477682  38.2843304
  17.9531014  77.8407097  33.2637215  17.1286535  78.1932354  33.5987473
  18.4668601  77.6467943  34.0477371  32.1361566  97.1510696  73.8710260
  31.5074396  96.6297913  73.3718109  31.6299677  97.9000759  74.1856527
   9.3808031  75.5091238  69.7371435   8.5481435  75.9811449  69.7474909
   9.6785355  75.5286980  70.6466484  71.9282378   6.3684035  50.6648350
  70.9836901   6.3572646  50.5101204  72.0146669   6.4914561  51.6101456
 115.1095035  76.0819244  56.1108923 114.6436740  75.7344151  55.3503227
 115.8402528  75.4775047  56.2409258  28.1336761  95.2983379  45.3455305
  27.6037216  94.5193291  45.1766491  27.4979877  96.0110188  45.4104185
  17.7901888 103.6166763  46.2546825  17.1999729 102.8635693  46.2282562
  18.2946932 103.5541725  45.4436350   1.9210652  84.8736000  48.2925749
   1.4971489  85.4457092  47.6528692   1.2755096  84.1884708  48.4660244
  88.6908354  63.0327415  39.2457342  89.3485465  63.7211752  39.1472149
  88.9382162  62.5786591  40.0512409 104.1915717  57.7246809  50.6360102
 104.2044797  56.8572998  51.0406303 103.5075678  57.6675892  49.9688435
   3.0512649  73.3847952  78.0875635   2.1936651  73.0431795  78.3406544
   3.6768454  72.8348160  78.5591602  46.4833648  11.1165286  48.1362486
  46.6121579  10.1933528  47.9185820  45.5344672  11.2391329  48.1080723
 113.0535658  97.3970604  63.8543415 113.9753224  97.2165298  64.0387440
 112.7469166  96.6214848  63.3845854  38.5074197   7.9238654  61.7388868
  38.0456674   8.0085803  60.9047174  38.1262315   7.1457816  62.1457100
 108.8688727  85.4543018  71.7720127 108.4750130  85.5798817  70.9086847
 108.4031846  84.7037506  72.1408463  16.5301812  92.3531723  35.3266215
  16.4793384  92.5373745  34.3886876  15.9889293  91.5729427  35.4471612
  32.5040007  51.6883278  29.7684646  32.3894930  52.5150681  30.2370954
  32.9832268  51.1302328  30.3809214  14.5086670  67.3340607  65.7745743
  15.3249872  67.0549250  66.1892271  14.5214283  68.2889795  65.8393860
  14.1314518 101.3365555  50.2936459  14.1768634 102.0923328  49.7079992
  13.9445472 100.5966854  49.7158146  38.6869216  80.2035999  27.8695250
  38.6332774  80.9006596  28.5233331  39.6091723  79.9473190  27.8677750
 110.4502537  56.0407925  79.4990683 109.9953797  55.7342863  80.2835274
 111.3423719  56.2219906  79.7949171  87.3076048  55.8685637  46.5816498
  87.2539034  56.8041325  46.3865519  86.6055646  55.4751444  46.0633898
  17.4676788  79.9634552  40.4031229  16.8246341  80.6620598  40.2819967
  17.5419438  79.8682785  41.3526773   7.7501428  97.8666401  64.4220591
   8.2850909  97.9139137  63.6297035   7.3814350  96.9833851  64.4097662
   2.5822056   0.4428435  50.5365658   2.6888550   0.0526286  49.6690464
   2.6200117  -0.2996587  51.1394691 109.1340431  85.4248714  34.0193295
 110.0858303  85.4428101  33.9192772 108.8205632  86.1319447  33.4554100
 116.1897748  86.4769077  37.1016812 116.9316217  85.8729839  37.1359658
 115.5177513  86.0617065  37.6422644   4.1079050  83.9081287  56.7549658
   4.7136921  83.8193798  57.4907494   3.8781708  83.0080795  56.5239620
 114.8037027  47.0126295  17.5048625 114.9628367  47.2283554  18.4237576
 114.2325099  46.2451029  17.5344753 107.6977803  86.7581272  55.3894138
 107.1192279  87.0241165  56.1040878 107.1149447  86.6464043  54.6383810
  58.1138111  15.5703212  19.2655945  57.8128041  16.4557505  19.0615571
  59.0527118  15.6672335  19.4246602  17.4563813  91.4924145  67.2053814
  16.6867161  90.9433651  67.3550224  18.1983995  90.8946419  67.2965288
  15.6194019  84.9176025  46.6131926  14.8112440  84.6211052  47.0317650
  15.8549953  85.7159328  47.0858335 115.6720637  53.8467789  59.3008232
 115.2320304  54.2813015  60.0314331 114.9995800  53.2843924  58.9164782
   5.6605965  99.8620701  63.9335060   5.6190503 100.1963615  64.8294783
   6.0897350  99.0103817  64.0152884  16.8921757  86.9929695  35.2272463
  17.2103894  87.7826500  35.6647158  17.0179379  86.2955284  35.8706641
 111.1861410  84.1275787  56.4690733 110.4946890  84.1282654  57.1309853
 111.5789991  84.9981594  56.5321970  61.6702713  14.4429923  61.3677645
  61.1488475  14.9501658  61.9899607  61.9001640  13.6444617  61.8428707
 112.7076905  86.8737030  56.7996550 112.1299841  87.5999737  57.0342207
 113.0888840  87.1322536  55.9605646  75.0920000  84.0176678  35.1434088
  74.3589010  84.3561554  34.6293807  74.8290863  83.1277847  35.3783846
  15.2026832  74.4666481  36.9506049  14.4291937  74.9532795  37.2354484
  15.9267235  74.8623896  37.4357724  12.8155220  60.6721783  21.1258149
  12.5798965  60.2047634  21.9272137  13.0565846  59.9819183  20.5080271
  93.1734336  25.8505864  82.3007685  92.7536417  26.6054101  82.7133792
  93.7727333  26.2311406  81.6586965  27.3786044  95.0572205  48.6812687
  27.3558736  95.7976818  49.2874289  26.5895176  95.1590252  48.1490993
  31.5187359  81.5854073  71.2979412  30.8782744  82.1152973  70.8233261
  31.4420605  81.8745041  72.2072172  19.2097354  95.4390526  28.2808447
  18.9398420  94.5493031  28.5083008  20.1064372  95.5084705  28.6084700
  15.2466643  51.6481543  26.0468078  16.0109150  51.4208698  25.5171895
  15.5456245  51.5544891  26.9512868  12.5421810  86.9022465  26.7859793
  12.9841328  87.6041698  26.3082647  12.5322628  86.1657906  26.1746144
   3.7996101  84.7107029  50.0934696   3.3366904  84.8588848  49.2688656
   4.7032836  84.5334625  49.8323393 105.4383292  92.3948097  28.1106329
 105.9832229  91.7197037  28.5150647 105.5257358  92.2413635  27.1698618
   6.4517432  85.1307774  31.0291195   5.9430593  84.5650959  30.4481864
   7.3193181  84.7273254  31.0569382  14.8566747  64.6173382  40.1707125
  14.1087139  64.5792007  39.5746183  15.1384890  65.5317020  40.1432085
  80.2828588  34.6650314  43.0882311  80.1133408  35.5155420  42.6831055
  80.5301275  34.0971375  42.3584461  16.8133116  91.5094662  20.2579045
  16.2014365  91.8684196  19.6152592  16.9650042  90.6099892  19.9678099
 115.5461472  78.0883551  49.4417095 114.9766602  77.9204273  48.6908960
 115.0564835  78.7108707  49.9792337  50.0856590 101.6154003  63.8286304
  49.8760843 100.6829453  63.7753391  49.2783642 102.0577145  63.5662127
  89.5712795  95.9053230  69.9978065  89.9844970  95.3003120  70.6138039
  89.1458645  96.5588760  70.5528975  16.9421399  89.0972424  18.0558705
  16.4525938  88.7103653  17.3299909  17.4969268  88.3861732  18.3765352
  92.7256073  10.9875918  13.7160969  92.6716436  10.1332045  13.2879031
  92.9590858  11.5935946  13.0129087   9.9416661  95.9302044  45.7642841
   9.9684656  96.8292713  45.4368877  10.8613443  95.6800175  45.8527708
  48.3851910  81.5379620  60.1511145  47.7128458  80.8953190  59.9248600
  48.3172798  81.6312122  61.1013412  26.3806915  97.1295834  22.8769302
  26.4809155  96.4893723  23.5814285  26.5798259  97.9709053  23.2877254
  13.5697902   7.8735781  46.2660217  14.0685905   7.9947329  47.0739508
  13.0199875   7.1087790  46.4363813 108.4874626  85.9155655  68.4368992
 108.9310439  85.0713253  68.5188293 109.1056403  86.5475464  68.8039112
 114.5943943  71.3583899  43.0321932 114.6030419  70.4918766  42.6256084
 115.0705703  71.2419558  43.8543415  22.7843595  79.3554306  38.5529804
  23.4088111  78.9506960  39.1550446  23.0580664  80.2713585  38.5040259
 110.9464504  70.5083895  30.4988503 110.0352337  70.5232668  30.7915878
 111.2587424  71.4017582  30.6423736  20.3068185 105.5183983  26.7035341
  21.0213804 105.2604485  27.2858572  20.7442737 105.8927345  25.9388518
  94.8682751  94.9327564  29.2125106  95.3103532  95.7719803  29.3409896
  94.0799727  94.9922085  29.7522116  48.5955906  97.3565388  23.0976295
  48.7997007  96.5604115  22.6069617  49.4450521  97.7735901  23.2415581
  19.4718385  80.4534340  48.9338589  19.7460818  80.7255650  49.8096275
  20.2320409  80.6292248  48.3794022  44.7132492 108.1195736  36.3632655
  44.5185709 108.5386467  37.2015452  44.0318060 107.4547577  36.2638807
  58.6683227   1.1378241  56.2386894  59.5984782   0.9327174  56.3334131
  58.3319522   0.4596186  55.6529140  53.4862984  28.6584521  72.4262142
  52.6665379  28.9829398  72.0534801  54.1696633  29.0766383  71.9024134
 101.4588358  95.6098843  33.4142613 101.4905741  96.5229130  33.6999369
 101.2628021  95.1164150  34.2106795  26.3543200  61.7546749  28.4630132
  27.0607710  61.1152411  28.3719730  25.5583930  61.2259007  28.5189533
  13.0145741  98.9913940  40.3184223  13.0894935  98.8532066  39.3742180
  13.9132023  99.1452599  40.6100130   6.0809094  84.5327473  70.4070902
   5.4169083  83.8433456  70.3995514   6.5342301  84.4378376  69.5693970
  55.4184056   2.0383979  64.5511818  56.0801436   1.4875651  64.1329575
  55.6493987   2.0268679  65.4800224 107.6373466  80.5301952  30.7474566
 107.7454503  79.9552107  31.5050411 107.3127832  81.3522434  31.1150646
  71.9148720   9.9472285  62.5056267  72.7738942  10.3693438  62.4940205
  71.7849745   9.6935702  63.4194183 116.1913961  80.0503349   2.2940756
 116.1718761  79.3086386   1.6893148 116.6137093  79.7064781   3.0812523
  45.8428152   9.2395926  64.5075989  46.6925795   9.3610907  64.0840769
  45.2147515   9.6325064  63.9014721  67.6240648   0.6665183  29.3094444
  68.4171952   1.1587573  29.5212817  66.9726528   0.9804679  29.9366069
  15.0002515  93.8889503  61.5703535  15.6574309  93.2545090  61.8564177
  14.1677821  93.4228516  61.6476154 107.7541830 100.7364750  51.8809080
 108.3649983 100.3640747  51.2449408 107.9363736 100.2638817  52.6931238
  97.4736573 100.8488655  50.2202511  96.8287863 100.1519489  50.3414488
  98.0719664 100.7530689  50.9612513   1.7765684  77.1360254  64.7020626
   1.2104205  77.7114487  64.1876745   2.4684086  76.8749523  64.0942574
  11.9043624  96.1292362  24.9994493  11.7281175  95.5453205  25.7371569
  12.8518856  96.2632465  25.0211239  15.2898133  51.3604021  49.3414640
  16.0190320  50.7419538  49.3860722  15.2234566  51.5859365  48.4135818
  31.8688811   2.1199752  62.8583717  32.1452088   1.3718653  62.3290300
  31.9333656   2.8692485  62.2662067  19.8909557 106.3792992  62.1687698
  19.7895527 106.8541622  61.3438749  20.4278660 105.6195927  61.9433594
 100.5058946  95.3281498  46.5573931  99.8011603  95.6217766  45.9800148
 100.1710131  95.4810524  47.4409676  92.6290145  99.7376060  50.0764418
  93.2416381 100.4018688  50.3921509  93.1069936  99.2805481  49.3844366
  15.1756704  62.0379210  56.2847424  15.0153708  61.3258982  56.9040680
  14.4706035  61.9596624  55.6420994  28.2843865   5.2842665  28.1201816
  27.3760952   4.9844981  28.1572914  28.7087239   4.8553324  28.8632703
  34.9447060  94.5283604  21.6284966  34.8272562  94.7222042  20.6985164
  34.1837931  93.9958286  21.8601203  33.8858151 102.8620052  47.0365953
  33.4897113 103.6753178  47.3494005  33.8749695 102.2819996  47.7979803
  40.1029015 106.0458088  82.7715397  39.3815470 105.6403351  83.2526493
  40.6230021 106.4846611  83.4446907  11.9492888  51.4102983  35.8415985
  12.0986784  50.4715872  35.9544253  11.0043180  51.5172195  35.9503722
  11.2537539  76.4542055  23.1807566  11.5068042  77.2324896  22.6842976
  11.7461944  76.5213537  23.9988184  28.4036422 103.7599468  37.9187202
  28.1515360 104.6359158  37.6265550  29.2244625 103.8926315  38.3929372
 102.9943456  93.8834858  41.6700172 102.8659405  93.8698578  40.7215691
 102.4282171  93.1850052  41.9984293  26.2729144 103.4884548  62.4802351
  26.9241929 103.7458515  63.1327820  26.5954089 102.6557541  62.1354914
 100.8812096  92.2588253  41.8220234 100.5320766  91.7323494  42.5411654
 100.4432513  93.1053638  41.9103432  58.5346736   7.1473456  21.4348388
  58.0450679   6.3248683  21.4420748  58.9989389   7.1423579  20.5977821
 105.2583887  92.9640865  17.3011196 105.4804446  92.6679897  16.4183712
 104.9119665  92.1844769  17.7351999   2.9428783  82.2081375  40.8762121
   3.8252953  82.4230289  41.1785269   2.4883357  83.0499935  40.8462000
  60.4938854   3.1577159  35.9597731  59.9102534   3.3687926  35.2310395
  61.1222161   3.8795233  35.9802294   9.3279964  87.1306992  58.5086679
   9.2763799  86.6267681  57.6964998   9.5580989  88.0160999  58.2269573
  17.3194611 104.8240376   3.8873565  17.2806215 104.1713524   3.1882730
  18.0979741 104.5884609   4.3919888   6.0691661  89.8627949  38.8804674
   6.4572001  89.5600796  38.0594754   5.5192113  90.6039333  38.6265159
  99.0231826  84.0952682  37.7049232  98.2126548  84.5043945  38.0080676
  99.1054787  84.3737602  36.7928362  15.5379701  66.6274834  51.4593792
  15.8447444  65.7727003  51.1569500  16.1754549  67.2489071  51.1077023
 103.4447910  77.1641064  31.5262961 103.4137811  77.0081758  30.5823898
 103.8903620  78.0065775  31.6153693 106.2583878  75.9168196  30.2853990
 107.1790948  75.9251976  30.0237489 105.8600595  76.6273546  29.7827005
  23.8196540  82.8247643  56.0054350  22.9412460  82.7423573  55.6341648
  23.9673781  81.9942284  56.4577866 113.1147488  95.2093983  54.5584202
 112.5045102  94.7329998  55.1213455 112.6258363  95.3612137  53.7496233
  99.4406583 100.7454586  17.8157389  98.7675752 101.3000488  18.2102323
 100.2550258 101.2333679  17.9381466  24.9717045  44.1383266  49.7080326
  24.9178815  44.6762657  48.9181232  24.4606781  43.3560514  49.5003510
  39.4432354  55.6308699  76.8715858  40.0909233  55.6460810  77.5762177
  38.8117337  56.3088179  77.1120548   6.2960124  71.1986208  60.0580883
   5.4779404  70.7652187  60.3013039   6.9813573  70.6382942  60.4221869
  42.7627325  87.5275326  14.6011853  41.8498898  87.7144337  14.3820608
  42.9131126  86.6433430  14.2667770   7.7780074  77.1545792  66.2303448
   7.3180467  76.4823580  66.7331219   7.2577965  77.2553539  65.4331875
  49.6269464 106.5909958  40.5838394  49.9979115 106.0890579  41.3095713
  48.7042952 106.6993523  40.8145046  43.5680489  25.3609038  54.6868849
  42.9506470  25.6435157  54.0122175  43.6282210  24.4122649  54.5742655
  34.5646954  82.3533249  69.3106270  35.4312181  82.4814129  69.6965790
  34.4409347  83.1134605  68.7421989  30.7701635  91.5162277  78.7787151
  31.0596633  90.6533051  79.0749979  30.8949924  92.0847034  79.5386410
  31.3051820  78.6108875  67.9183674  31.8567443  79.1347694  68.4993649
  30.4200292  78.7195110  68.2661343  14.6234024 108.4327030  41.4570141
  14.4403756 108.8750076  40.6280994  14.3240881 109.0468788  42.1274090
  27.5718595   8.0280829  42.5248623  26.9497777   7.3030997  42.4645233
  27.9075707   8.1303645  41.6343164  97.3727466  24.0350862  63.8237887
  96.7753244  24.3989797  63.1704122  97.2820915  23.0868716  63.7294632
  16.6316533  28.8931179  13.8791752  15.9655619  28.9975858  13.1997335
  17.4569476  29.0958333  13.4386909   3.6329743  93.4918022  69.2523670
   2.8748354  92.9122925  69.1773558   4.3884051  92.9100418  69.1680384
 101.0544028  75.8120012  32.2301888 101.7057635  76.4782190  32.0108366
 101.2299754  75.0954247  31.6203308  10.2899218  73.4475756  42.8278399
  10.4935312  73.3166170  43.7539196   9.4357979  73.8796663  42.8291702
  29.8291469 103.4645748  19.2463386  30.6460333 103.1516171  18.8577664
  29.1520953 102.9084682  18.8608801  23.0270553  58.2116461  59.2988300
  23.4843993  57.4231577  59.5909834  22.7507901  58.0108452  58.4046364
  26.1764336  53.5511065  20.2566576  25.9165025  53.0726719  19.4694078
  25.4131794  54.0859699  20.4748321  23.6778331  65.6746292  46.0440731
  24.1934180  65.0406218  46.5425062  24.3185568  66.1239386  45.4928684
  24.8911071  82.0246983  49.0740633  25.6187320  81.6094494  49.5370579
  24.5566559  81.3421059  48.4923077  14.4748747  75.3164387  40.4156494
  13.9525259  75.4613781  39.6267438  13.8893676  75.5482864  41.1365271
  52.2926177   9.3760157  10.9364176  53.2338775   9.2760039  10.7940769
  51.9345702   8.4996176  10.7951474  19.0025496  33.8286734  25.6293082
  19.4822729  34.6511602  25.7273531  19.6730101  33.1497836  25.7056284
   4.6192077  43.6645126  54.5682335   4.1440675  42.8361273  54.6334648
   3.9365292  44.3349361  54.5949125  33.8466024  80.1572704   0.9413112
  34.1273761  79.2457771   1.0224229  34.3647885  80.6265926   1.5951094
  25.9067512  46.4353848  38.0009460  26.2820411  47.3156548  37.9782796
  25.9223676  46.1921215  38.9265871   3.0624858  77.7674484  70.6475878
   3.8874936  77.5665522  71.0894394   2.4279651  77.8645945  71.3576412
  11.4143431  60.7945251  11.7876422  12.0458603  61.4043713  12.1690929
  10.7854652  60.6302929  12.4903321   6.4302915  87.6123428  67.8596592
   7.1257269  86.9904613  68.0738163   6.8761355  88.3184814  67.3918772
 110.3397050  78.5442352  62.4393129 110.6768449  78.3200741  61.5719461
 110.3057536  79.5008278  62.4432135  12.9576969  55.3577709  72.7848721
  12.5656438  56.0172033  73.3573008  13.9000475  55.4466677  72.9273701
 103.6317482  65.9646273  31.4258003 103.1165983  66.4764357  32.0494246
 103.0260160  65.7823420  30.7074046  11.0187781  97.8932667  34.1341448
  11.3409495  97.7987957  35.0305319  11.8006182  97.8085423  33.5884523
  98.0785575  95.8758640  45.6073523  97.2434392  95.6590271  45.1928806
  98.1124093  95.3177643  46.3842726   1.6836916  90.3507328  45.1984930
   0.9432114  89.8741055  45.5736589   1.8939237  91.0187435  45.8510160
  14.5692515  62.9907799  62.3492146  13.6351395  62.8308153  62.2147655
  14.6018898  63.7843370  62.8834724  24.0132856 100.2604198  52.3718882
  24.5861697  99.7384739  52.9336739  23.4389615 100.7247162  52.9808331
 112.2455876  64.1147661  66.1151552 112.8438159  64.0288973  66.8574333
 112.5817080  64.8631144  65.6219721   2.6627526 103.2235718  32.0094991
   2.9109779 103.5550308  31.1465120   3.4882614 102.9439640  32.4052095
  23.8418674  62.5124598  59.0775490  23.1520271  62.7838373  58.4719896
  24.6491003  62.8462553  58.6861515  29.1148591  93.3476734   5.6799179
  28.5998750  92.5414753   5.6473225  29.0054989  93.7369823   4.8123273
  22.1159697  61.9776011  43.5180044  21.7612147  62.3258066  44.3360090
  22.8286433  62.5754309  43.2923317  68.7579049   9.0513087  50.1874256
  67.8021945   9.0970183  50.1597929  69.0365328   9.3349791  49.3167210
 111.6873278  75.5920792  27.2749758 110.8678718  75.6967020  27.7584815
 111.7353915  74.6551514  27.0850062   0.4957866  58.7909794  39.4714546
   1.1620796  58.1503439  39.2227149   0.0923782  59.0508556  38.6432266
  24.2262411  85.1602936  67.2573185  23.6070418  85.8686924  67.4333715
  24.5699596  85.3538418  66.3851786   9.0971464  68.7614346  72.9376459
   9.3031639  68.6411333  73.8646412   8.4781390  68.0594921  72.7368021
  29.0240192  54.2552853  69.5491886  29.9429440  53.9966822  69.4789219
  28.5781956  53.4708071  69.8686743 106.1570444  83.9612484  46.4346743
 105.9306862  83.4044933  47.1796703 106.1998012  83.3603191  45.6908417
  32.5551511   8.9464427  49.7730494  33.3250965   8.4400988  49.5141459
  32.0671077   8.3610202  50.3521204  12.9664660  51.6433907  58.3776808
  12.1660900  52.1288300  58.1777287  12.6692104  50.7483006  58.5410452
   9.8111331  52.6906729  69.1870546   9.4372952  53.4596205  69.6173954
  10.0044465  52.0857096  69.9032116  10.0647557 100.2880478  78.3509541
   9.8671663 100.8611393  77.6101780  11.0177326 100.1992321  78.3375406
  11.5291870  95.5056667  41.1248684  10.9141505  96.2203693  40.9600639
  10.9816396  94.7212219  41.1574697   4.0061969 101.1709404  29.7751188
   4.3217635 101.9933891  29.4006610   3.0610490 101.2946129  29.8624897
  49.0102625 103.1889915  59.1101122  49.2425537 103.9118958  58.5272884
  49.8323059 102.9552841  59.5412302  96.2019481  84.9760532  53.5541010
  95.6719913  84.3492889  54.0465879  97.0654597  84.9345875  53.9650249
  26.3733114   3.0560637  34.1326380  26.4842011   3.2306720  35.0672221
  27.1451820   3.4465457  33.7227917 103.4670939 105.4930592  43.6885548
 103.3689036 105.4185772  44.6377897 102.5698461 105.5100727  43.3555555
  79.0536083  22.6082278  32.0614314  78.1570400  22.9337455  32.1416378
  78.9689935  21.7925502  31.5677309 102.1410062  82.2846127  51.1445761
 102.0766213  81.7583752  50.3476048 102.5021162  83.1209946  50.8508062
  24.6937275 109.4429398  46.6041136  25.3169775 109.7388649  45.9406233
  25.0629067 109.7484779  47.4327135   4.0619594 106.7077255  52.4545383
   3.8775229 106.8175316  53.3873606   3.2709065 107.0203876  52.0155573
  35.1776481 105.7098770  30.5912590  34.5943236 105.4686546  29.8716927
  36.0091710 105.9189224  30.1657057   7.9625249  97.5528240  17.4767566
   8.7619585  97.9349422  17.8388596   7.3675752  98.2955074  17.3733723
   1.9506727  67.0769119  21.8312407   1.5403692  66.2122631  21.8149972
   2.5306186  67.0811653  21.0697460  70.1207508   9.0771914  44.9129391
  69.5373286   8.3234263  44.8251963  70.9788073   8.6956168  45.0983334
 114.8832227  27.5044484  81.6385513 114.7373653  27.8760190  80.7685584
 114.1149426  26.9557996  81.7965501   0.7777850  74.5864439  31.3202095
   1.5867461  74.9898243  31.6350079   0.6172153  75.0014734  30.4727435
  54.2557872   1.6556407  84.3326855  54.0485502   2.5899649  84.3508244
  55.2118458   1.6216994  84.3648338 111.2300416  82.3030853  40.1909494
 111.9211455  82.0598507  40.8069420 111.2968727  81.6563892  39.4884229
  65.5861796   2.6407386   9.6458024  66.1668075   3.3879328   9.5016003
  65.0057567   2.6380492   8.8846624  10.8479608   6.1023284  53.0808783
  11.2919153   6.8495131  52.6798201   9.9173082   6.2671519  52.9293966
 100.2166547  65.1308298  45.1575518 100.9457101  65.1478434  44.5375347
  99.5710423  65.7311249  44.7846413  31.1377239  97.4190140  19.5879388
  31.0771012  97.4105453  18.6326981  30.5022264  98.0801010  19.8624146
  37.3798680  76.7463970  10.1259863  37.0108223  77.1898365  10.8897901
  37.7634382  75.9429836  10.4775977  38.6420035  91.5627289  47.7466869
  38.7714314  91.0500526  46.9487858  38.8377380  90.9526062  48.4577894
  95.0452198  24.1796065  91.0760403  94.6468605  23.3312846  91.2706852
  94.4797910  24.8158408  91.5139103  27.1004725  88.8608360  44.9452782
  27.1968603  88.3310890  45.7366705  27.9768562  89.2095757  44.7822905
  22.2897458  96.5960598  37.9170823  21.8729353  96.7682648  37.0727801
  23.1720161  96.3002586  37.6927352  14.7004700 102.0796680   1.6055015
  15.0023723 101.1783409   1.7181470  14.0759861 102.2139549   2.3183975
  25.9937334  85.8088017  33.5153747  25.2260995  86.3754654  33.4387946
  25.7483387  85.0089550  33.0503464 109.7389545  65.1097393  59.5206118
 110.5349739  65.6111860  59.3441534 109.1446592  65.7395124  59.9285698
  28.4444594  70.4230547  68.7872648  29.3163180  70.7597351  68.9940119
  28.5952044  69.5168447  68.5183954  30.2488888   0.5420542  40.0780582
  30.8539404   1.1549998  40.4957151  30.7559748  -0.2634382  39.9766612
 115.1435565  87.8339386  85.9475803 114.6333555  88.4302139  85.3995037
 115.6214487  87.2860527  85.3249454  96.0110750  72.4041510  53.0934668
  95.7040991  72.0081568  52.2778749  95.4837718  71.9877338  53.7752151
  99.8641314 102.2249889  20.4721928  99.7104778 102.1387768  21.4130378
  99.2522480 102.9052258  20.1909256  24.8803735  72.3108673  79.8384714
  25.5396938  71.7396641  80.2324963  24.0478396  71.9910812  80.1861191
  16.0900724  81.3370037  72.3040485  15.6798875  81.5131950  71.4573240
  16.7989075  80.7255840  72.1042013  24.0429807  75.2393055  60.4068899
  24.2975569  74.4788504  59.8842764  24.0687394  74.9276733  61.3115740
 106.2883188  88.6158657  23.3031893 105.7919933  88.6939049  24.1179299
 106.4647748  87.6788330  23.2190442  58.1175615  13.2129050  64.8887062
  57.3511172  12.7974272  65.2838898  58.2586182  14.0020228  65.4117918
  57.6722087  29.8234416  37.6614118  57.7671851  29.5482684  36.7495489
  57.2959412  29.0622950  38.1033349  11.5885674  51.3118024  90.7530114
  11.3978182  52.0108361  91.3784700  11.8951165  50.5837865  91.2936112
  29.9942613  86.7517281  27.4239898  30.3198361  86.5777397  26.5408373
  30.6916618  86.4417839  28.0017424  30.6219554  89.5962811  48.5289574
  29.9998045  89.0201283  48.9730358  31.4243269  89.5264530  49.0462160
  50.6995548   1.8049575  30.2623057  50.3733970   1.3984538  29.4594312
  51.5466262   1.3864089  30.4156590  17.3218001   8.6372424  56.9930220
  17.3326482   9.5262767  56.6384459  17.0142974   8.7422038  57.8933859
  38.4281182  80.6643200  69.2830992  39.3166041  81.0204506  69.2827177
  38.5480976  79.7213459  69.3955135 112.0879367   5.5660105  52.0628452
 111.2003616   5.8841277  52.2279263 112.5742105   5.7903910  52.8562021
  33.1684232  98.2117558  80.8041286  32.9446530  97.3988533  80.3509808
  32.6561594  98.1843090  81.6122532  33.6002588 108.2580662  14.1749477
  32.7677035 108.0261230  13.7635005  34.0712070 108.7496758  13.5020745
  73.4612788   3.4717322  45.5451250  74.3537821   3.2355262  45.7978535
  73.4209908   4.4203044  45.6668425  64.9462165  16.2829829  70.8419752
  64.8509563  16.1573458  69.8978519  65.5288185  15.5762530  71.1200714
  15.0333643  80.9984779  65.3514528  14.1620469  80.6872940  65.1060963
  14.9753642  81.9514751  65.2831364  23.8856959  89.2363358  70.6651545
  24.8028445  89.0533352  70.4612446  23.8621593  89.3079090  71.6193867
  27.0241570  74.1894388  15.3159225  26.6638327  74.0291834  14.4437325
  27.2813463  75.1113510  15.3031337  15.6808293  41.3084555  51.2809181
  15.3173590  40.5117273  51.6673708  15.4758203  41.2375259  50.3486252
  29.5641184  95.4398632  55.0375128  28.6888504  95.6910133  55.3325701
  29.5096731  95.4597569  54.0820694  24.0774870  87.5002289  32.5704837
  24.4566298  88.2472992  33.0334830  24.1390538  87.7358150  31.6447735
  73.8251365  13.8857699  27.3423529  74.7021998  14.1484118  27.0630383
  73.5151209  14.6167231  27.8769898  -0.1462395  66.0501671  25.9827971
  -0.3542814  66.8630552  25.5221891   0.7201866  65.8056259  25.6576228
   4.3808982 107.5026035  57.6513529   5.2006721 107.9750729  57.5065231
   4.6507126 106.6639328  58.0256081  17.3557639  92.4579239  32.5077891
  17.9692745  93.1782532  32.3629761  17.9008150  91.6713238  32.4874139
 109.1075345  88.9539528  41.3948584 108.5671576  88.8150883  42.1726370
 109.0854885  89.9004364  41.2537575  29.7079897 101.1973381  34.0850115
  30.3663397 100.5455112  34.3256783  30.1928926 102.0212555  34.0374708
  50.2121974   1.2110949  12.0515513  50.0119246   0.6272078  11.3199818
  50.2673937   2.0808364  11.6556525  24.7723770  86.5338039  22.4076653
  24.3649483  85.8343601  22.9185486  24.9503183  86.1355877  21.5556169
  41.4078188  54.5379639  21.7938304  41.7009783  55.4285240  21.6009736
  42.0339870  54.2146873  22.4416280  50.3691912 101.8963623  12.4865007
  49.9827433 102.7694893  12.4191284  50.2515125 101.6525459  13.4046173
  32.1439624  60.2522564  11.6389334  32.7819109  60.2581310  10.9253383
  32.6405168  59.9558067  12.4016821  25.9043670  96.6734314  28.7230349
  26.3165188  97.2733498  28.1013823  26.6162586  96.1033630  29.0136623
 116.4261099  99.4979572  40.6321239 115.5120753  99.7143555  40.8163643
 116.6616657  98.8599777  41.3057184   4.9575844  90.7834816  49.2511559
   5.0546134  90.0741005  48.6158657   4.6770799  90.3476238  50.0558805
  26.0524702  83.2705116  32.1433163  26.2927985  83.1505489  31.2245750
  25.9115243  82.3825932  32.4719167  11.8698394 100.3096867  75.7400131
  12.5509155 100.4234505  75.0771189  11.0578918 100.2343655  75.2387142
  33.3675599 103.4771252   9.2139745  33.2051325 102.8709602   9.9367541
  33.2662296 102.9430580   8.4261072  22.3395848  81.2732220  64.9426842
  21.6834116  80.6777859  64.5805645  22.6082921  80.8623886  65.7644129
   7.3188722  70.1256084  50.6532860   6.4944667  69.6668339  50.4916859
   7.0640892  71.0401630  50.7753897  13.3774209  87.5666904  57.9352140
  12.9005229  87.1812725  57.2001934  14.2935479  87.5565910  57.6580095
   9.2265427  89.7081470  33.1107807  10.0270379  89.6741295  33.6345005
   9.5283288  89.6241188  32.2062945  26.1060524 102.7715778  57.1627855
  25.8520985 102.7128696  56.2417555  26.3976645 103.6765194  57.2736120
  13.4068048  87.2665405  78.8309908  13.0569661  87.3714447  77.9462051
  13.1685984  88.0774021  79.2804289  31.2245798  91.9091225  35.0674081
  30.7178950  91.9413948  35.8788657  32.1263909  91.7642784  35.3537440
  43.0128431  94.4584179  73.2787800  43.1895447  94.6833801  74.1922331
  43.6658764  93.7918186  73.0656385 115.7180795  98.4787464  67.0376682
 116.5171434  97.9518127  67.0461130 115.9886558  99.3296719  67.3825455
  10.1261425  79.2935228  62.9523802  10.6566668  79.9475718  62.4974155
   9.4386917  79.0653324  62.3266220  78.4637607   3.6859561  19.7007322
  77.9397143   2.9366446  19.4176352  79.3022407   3.3062602  19.9634373
   5.0925720  87.5523853  51.7482948   5.9356123  87.6486015  52.1913052
   4.4902205  88.0926132  52.2597265 115.3496129  86.5682507  52.2435904
 115.1884108  85.9949398  52.9929638 115.5712192  85.9714794  51.5287590
  22.4318218  83.3816624  73.8846016  21.9123864  83.8964367  73.2670069
  23.2988286  83.7867832  73.8642836  38.8477874  89.4003868  49.7471571
  38.8390136  88.6406994  49.1649008  37.9903698  89.8073483  49.6228456
  53.3715010  81.3036919  60.6989288  53.3539248  81.2146759  59.7460413
  54.2898130  81.1722660  60.9348679  30.5164289  96.2215328  48.9900589
  30.7960248  95.8273792  48.1638002  29.7784805  96.7820930  48.7504101
  87.8116227  66.5648885  94.5870478  87.9201258  67.0774407  93.7859559
  87.2633184  65.8251138  94.3256479  14.4160843  80.1942062  31.5543413
  14.9454141  80.7672501  32.1090174  13.7402034  80.7678795  31.1933446
  45.4288698   0.4158450  38.7653875  45.8280612   0.1986457  39.6078277
  46.1686839   0.4957629  38.1632924  77.2060836   4.9623061  45.7070684
  77.4398316   5.7596541  45.2318621  77.3988188   5.1639891  46.6227150
 114.3879399  96.0625362  49.5920038 114.9078452  96.1368561  48.7917519
 114.7854443  96.6906548  50.1950741 114.2982840 105.5584908  41.5641403
 115.2420977 105.4362488  41.6666365 114.1823553 106.5079212  41.5271902
  56.1428000  13.1881190  59.5300770  55.2548374  12.8339530  59.5782995
  56.4290155  13.2419921  60.4418898  81.8786335  90.2163315  53.9085770
  82.2501183  90.1590824  54.7888851  81.8795300  89.3140221  53.5890913
  66.5924205  18.9941645  46.5489435  66.9276537  19.7553588  46.0751963
  65.7014359  19.2401648  46.7976570  44.7153568  91.2527084  68.1414461
  44.9649191  92.0624828  67.6962328  43.8533020  91.0390091  67.7844858
  75.3683962  25.4713298  33.6168957  75.5600227  24.8041678  32.9577994
  74.4185532  25.4318286  33.7285566  10.0622082  66.4821005  57.7305222
  10.8368802  66.2404966  58.2382059   9.3681788  65.9162235  58.0686569
  98.1616392  99.3293858  39.5934248  98.9257135  99.0795898  39.0737844
  98.5007944  99.9570370  40.2315903 102.6707914  94.6211243  38.8139081
 103.0905964  95.4076004  39.1624022 101.9861283  94.9525452  38.2328534
  83.4064830  21.1805773  39.1550016  82.8949751  21.6005088  39.8465586
  83.6609138  21.8987513  38.5755849  49.8100628   3.1376982  39.2953992
  49.0130485   3.4744406  38.8860035  49.9991537   2.3279811  38.8212442
  13.7138402  72.8663588  46.6950226  13.5119152  73.7058449  47.1082067
  14.1819978  73.1003284  45.8935738  62.6818943 108.5030270  62.3302126
  62.6960802 109.0172768  63.1374121  62.7917814 107.5977135  62.6210260
  27.7412724 104.7885513  85.9177208  27.3511052 103.9202309  86.0178089
  27.9040885 105.0827312  86.8139267  17.5979006  96.4534569  25.8418870
  17.1371984  95.7249451  25.4256392  18.0037785  96.0678673  26.6182971
  28.1358981 101.8910980  49.3186903  27.7521777 102.1069050  48.4687376
  28.4988570 101.0131550  49.2016459  22.7761745 101.5137577  44.1833639
  23.3281112 101.6560459  43.4143734  22.0311642 101.0112000  43.8537788
  20.6668568  59.7598314  64.3002987  20.7340336  59.7974491  63.3462000
  19.9401343  59.1592216  64.4657421  92.5897134   1.5977622  43.5910892
  92.1359361   0.8113147  43.8941002  92.0627750   1.9098902  42.8554678
  16.8401229  82.7715778  49.7760820  15.9786165  82.9109192  49.3828583
  17.4412215  82.7421284  49.0317392 103.8485613 104.5285416  65.8983803
 103.7648191 103.6863708  65.4512072 104.7918369 104.6488094  66.0079241
  44.0123129 103.4140968  12.3065543  43.6317110 103.2656479  13.1721985
  43.7729168 102.6360321  11.8030286  44.3405867  98.7505150  86.9075966
  44.4475698  99.6490479  87.2197247  44.9322462  98.2346344  87.4553585
   0.5304285  83.6816692  33.0560374   0.5563053  84.0216446  33.9504552
   0.0739078  82.8437328  33.1314230  49.0396668   3.5242606  74.8447609
  48.0888165   3.4144831  74.8366785  49.1818858   4.3462992  75.3140783
  21.6268873  95.1740456  53.3725786  21.8725300  94.6054268  54.1023445
  21.4454103  94.5723057  52.6506376  19.4097257  89.2134285  67.9751205
  18.8821936  88.5701180  68.4484959  20.1064968  89.4491482  68.5876369
  12.3021770  92.6412964  61.0912371  11.5119088  92.3793697  60.6189013
  12.0429826  92.6369667  62.0126677  43.4534311 100.5705929  71.7446327
  42.8524733 100.9947681  71.1321306  43.5424566 101.1954021  72.4642944
  68.0473102   8.0436564  32.3662210  68.8367380   8.0325843  31.8250060
  68.1464828   7.2914839  32.9498601  67.1390833  12.0141936  37.7759814
  67.4802936  12.7368022  38.3029127  66.3102401  12.3424674  37.4274302
  25.9047627  96.7192268  36.2902641  25.8383417  97.5047302  36.8332314
  26.1295795  96.0211658  36.9054031   1.2716563 103.9204884  52.7608633
   1.1068101 104.7037888  53.2857323   0.9604068 103.1974220  53.3054113
  49.0155448   0.4955340  53.8715363  48.5097940   0.8273173  53.1296682
  48.8518549   1.1251212  54.5737219  15.4039085  83.2745838   8.9927578
  15.6740427  82.8469181   8.1801325  15.1778996  82.5529003   9.5795548
  10.2690029  85.5518341  60.5205584  11.1528683  85.8990097  60.6408978
   9.9043632  86.0687923  59.8022127  42.3386669 101.1932850  10.7200718
  41.8672991 101.8790150  10.2469695  41.6944075 100.8389187  11.3329184
  32.2024894  92.6494122  61.0479832  33.0084944  92.4324703  61.5165234
  32.0193338  93.5562420  61.2936163  13.5996413  92.4614620  41.1187983
  13.5518694  92.1881390  42.0348978  14.1898465  93.2150269  41.1241436
  41.4053965 102.6822090  63.3752489  42.0071316 103.2769203  63.8229752
  40.8545542 103.2554150  62.8421116  20.7337022  31.7745185  26.1849689
  21.5029383  31.9865274  26.7137051  21.0899520  31.3590646  25.3996563
  42.6934958  73.0662632   8.1339824  41.8259573  72.9081011   7.7616978
  43.1715631  73.5228920   7.4417609   8.6033905  98.0415916  77.4915600
   8.7721932  97.8683758  76.5654230   9.3103963  98.6292553  77.7580595
  43.7524366  94.7968864   9.1188008  42.8020239  94.7911835   9.2324525
  43.9998960  93.8722515   9.1244972  12.3787785  73.8079166  75.1963234
  12.2216380  73.0405140  75.7464457  12.8192055  74.4308805  75.7743979
  66.0877813  13.8595820  58.6005116  66.2600793  13.0028010  58.2100201
  65.2638425  14.1422988  58.2037449  23.0189562  87.4649239  75.5363894
  22.4018192  87.9978466  76.0377502  22.7707219  86.5617466  75.7335949
   5.0971711 102.4412155  33.2993984   4.7161490 101.6701126  33.7194657
   5.4969710 102.9320908  34.0173364  26.0845375  70.9281778  67.6116657
  26.9696236  70.7932854  67.9502773  25.7798028  70.0504637  67.3814869
  43.2010555  82.1478653  59.3260193  43.5910940  82.8244877  59.8794413
  42.8041220  81.5331364  59.9430895 100.5124487   6.5639830  73.0555439
 100.8685602   6.1542273  73.8439083 100.0323833   5.8617640  72.6166105
 104.1799297  96.1343575  43.1180143 104.7178187  95.3524685  43.2427454
 103.6853208  95.9595871  42.3173571   2.1139482  68.7850189  38.6499810
   2.8753355  68.3037710  38.3260655   1.7179498  68.2001019  39.2959595
  74.8099507  11.7852259  52.1727896  74.2586721  11.1157370  52.5778866
  75.2710928  11.3240195  51.4721727 115.1573778  66.1867332  76.3789320
 115.1914542  65.4334307  75.7893515 114.4386645  66.7219353  76.0424232
  33.0323505 102.6646996  21.5792203  33.3011436 101.7927933  21.2898111
  32.7348137 102.5369263  22.4799848 112.5383027  90.5082417  36.3836884
 112.1977552  91.1719036  35.7838416 112.1341171  89.6912575  36.0914540
 104.8860755  80.4542160  45.8510113 104.8340990  79.5918036  46.2630510
 105.8244362  80.6277275  45.7761478  85.1026691   0.0416423  39.8281837
  85.3450693   0.9196425  40.1224518  85.1258339  -0.4920720  40.6224394
  49.3114567  98.1526756  14.1822076  49.0252733  98.6421490  14.9534082
  48.7329626  97.3905945  14.1539335  39.1540081  17.6157618  54.3417645
  39.9328778  17.4931765  54.8845005  38.4527897  17.1815921  54.8275852
  93.4092487  16.7561198  59.0910530  94.0110553  17.3981143  58.7143517
  93.6048998  15.9427119  58.6259556   5.7474077 104.2334175  93.9587021
   5.7799190 104.6808529  94.8042679   6.6585141 104.0065193  93.7726021
  36.0256219  82.9601955  89.5168591  35.6511402  83.8393497  89.5724010
  35.5231714  82.4454975  90.1484203  30.4259753  91.0479259  23.0604219
  31.0575938  91.0931015  23.7782311  30.4334331  91.9259167  22.6792145
  12.3205519  92.0283699  35.8566666  11.9627285  91.1503410  35.7253146
  12.1802783  92.4717999  35.0200510  48.2197167   8.5287905  51.6746378
  47.6595117   7.9580165  51.1486959  47.6663638   8.7979460  52.4078465
   8.9975411  81.8198586  29.0568042   8.9629650  82.2934341  29.8879242
   9.6748418  82.2704601  28.5523748 102.4476602  72.1874285  44.9473095
 102.3811950  71.8519354  44.0532970 102.5525775  73.1329203  44.8411417
  43.8515949 105.2292442  48.0659151  44.5133018 105.3644371  47.3876047
  43.9578390 104.3139458  48.3251143   9.0267432  96.5279388  40.9072542
   8.3593929  95.8639240  40.7341766   8.6582732  97.0596313  41.6127825
  20.0124145  91.0254860  51.3328934  19.2886114  90.8276367  51.9271946
  19.7005033  90.7429314  50.4731798  17.3390222 104.8565674  50.6873846
  18.1405580 104.5458221  50.2664280  16.8371332 104.0608215  50.8637905
  46.7598915  85.3457355  51.5004730  47.3488951  84.8071194  52.0288658
  45.9196281  85.3000355  51.9566536 100.2906861  84.6143532  62.0749092
 100.1471772  85.5287170  61.8307924  99.9475338  84.1123962  61.3356400
   3.0272916 107.2306252  46.4375496   3.9670268 107.0928669  46.5565109
   2.7153584 107.5102139  47.2982264  76.8557252   4.4139338  50.8948898
  75.9426607   4.6969462  50.8454275  76.8110717   3.5183097  51.2297153
  57.2432662   2.5836135  42.0019150  58.1417311   2.4445296  41.7025042
  56.9159259   1.7047740  42.1935701  50.2557421 104.1000557  56.6647625
  49.7469807 104.8565960  56.9563913  49.7443390 103.7305927  55.9449053
  64.3726624   7.8465892  48.2554674  63.4274949   7.9514075  48.1463575
  64.5453633   8.1458617  49.1481256  27.5705314  95.6481647  13.1051528
  28.1703091  95.8918476  13.8102174  27.9978871  94.9093819  12.6717949
  80.1971436  89.7893429  45.4759789  80.6367779  88.9391994  45.4615259
  80.8804321  90.4163933  45.2390003  18.5660553  81.8860149  92.4472523
  18.3688521  81.8367386  91.5118885  19.1753352  82.6201344  92.5252247
  13.6373138  87.9941845  30.7512164  13.3080709  87.8144073  31.6318464
  14.3036628  88.6695862  30.8778930  67.4639501  71.7229271  58.4294510
  67.0992794  72.4375868  57.9074335  67.2397651  71.9473982  59.3325520
  13.2039356 102.9609108   7.6064998  12.8659272 103.8553143   7.5613797
  12.4468970 102.4086380   7.4112731  45.6147814  96.5224266  18.1047332
  45.1487970  96.3441753  17.2878397  44.9219322  96.6515732  18.7524283
  16.3883531 104.5232010  34.9044371  16.8522811 105.3414059  34.7268391
  16.8955636 103.8552761  34.4430923  13.5593748 100.1537704  37.2491717
  14.4337785 100.2856827  37.6155734  13.2296908 101.0385036  37.0917320
  52.4748529   3.4654093  43.9874554  52.1959687   3.2551623  44.8786640
  52.8525878   4.3423033  44.0552902  99.0528024  12.7320147  45.0561762
  98.9407934  11.8564463  44.6859360  98.4477009  12.7578307  45.7974052
  20.7182980  35.2536535  38.0320477  21.1203361  34.3851852  38.0130601
  21.1931705  35.7520127  37.3669434  39.6892023  90.6356144  17.2717798
  39.5699096  90.2599525  16.3994956  40.0992441  91.4857292  17.1124172
  98.0059364  40.6259256   0.8411139  98.2399990  40.1142889   0.0667304
  97.1529868  41.0049730   0.6289214   1.2931763  28.0361695  90.1756152
   0.9347307  27.9523892  89.2920267   0.9012233  27.3114247  90.6628033
  19.4707024 108.6025238  67.3411512  20.0300264 108.0646801  66.7806959
  18.6365604 108.6482430  66.8738699  50.6653166  98.9423561  41.7605877
  51.3449049  98.3105373  41.5256453  50.8359480  99.1468716  42.6799822
  45.0642872  78.2168674  18.2529116  45.3310442  78.3130598  17.3386800
  45.8719349  77.9942226  18.7159121  11.2532175 101.7915154  62.9002428
  11.9596076 102.2921658  63.3083963  11.2609303 100.9503460  63.3569908
  27.8437924  87.4756145  29.1570520  28.4170103  87.0231533  28.5382318
  28.2983351  87.4095917  29.9968529 111.1688729  72.1932888  37.6643753
 110.3805556  72.0786619  38.1950808 111.8917104  72.0774698  38.2810807
  29.7419357  89.6962643  35.9110260  29.7093368  90.1923466  35.0930572
  30.1863265  90.2788544  36.5269279   9.8935592  96.4094734  62.2771597
  10.2568448  96.3200569  63.1582117  10.1912653  97.2698212  61.9815159
  30.5862737 103.4971046  61.5989923  29.9739432 104.0729618  62.0568991
  31.4327669 103.6721706  62.0101261   7.8304505 109.5776367  35.1503778
   7.9737800 109.4333553  34.2150307   7.9381204 108.7124348  35.5454421
   8.1054169 106.1938190  25.5384707   8.3164883 106.1178875  26.4690161
   8.4314197 105.3811264  25.1518416  62.3110665   5.5350829  35.7244182
  62.9741133   6.0631705  36.1690784  61.8180503   6.1638118  35.1972890
  12.3716725  21.8681098  77.6685524  11.9466556  21.4131976  76.9414711
  11.7883171  22.6007510  77.8664827  79.2707075   2.5269461  38.0989528
  78.3927382   2.3991442  38.4582090  79.1751970   3.2567740  37.4870157
  26.9764018  85.0570107  36.1755228  26.6626358  85.4993248  35.3867602
  27.5718498  85.6864643  36.5822911   1.9105998  86.1753178  58.9821386
   1.7784674  87.1020126  58.7821054   1.5531731  86.0672092  59.8634958
 111.4061346  66.6998625  50.0619698 111.3290151  67.4594593  49.4846487
 112.2851290  66.3599586  49.8944426 102.4803938   3.2454730  76.3841820
 101.7010130   3.5271598  75.9051704 102.9043401   2.6148082  75.8021450
   1.7720484  15.4002619  46.8626642   2.3883413  15.8136035  47.4672747
   0.9450220  15.8579589  47.0135689 101.4212335  16.4204264  47.9652929
 102.2225107  16.8412448  47.6536894 101.0810484  15.9567691  47.2000933
  43.8070432  10.4682589  62.9412937  43.5562504   9.9823619  62.1556520
  42.9764060  10.6804610  63.3670235  76.1427392  30.3078795  12.9243517
  75.7082261  30.5570460  12.1086633  75.4826082  29.8077632  13.4042919
   3.8529012  95.0766373  32.3563194   3.8872290  96.0297489  32.4378514
   4.0052202  94.7546101  33.2447600  46.9497919  97.6414108  33.0902648
  47.1816492  97.8180504  34.0020061  47.5728321  98.1588936  32.5801134
  64.0352869 103.2565117  61.9255877  63.7754488 103.9037609  61.2700176
  63.8470316 102.4120235  61.5161467  12.6420891 108.5852051  32.2518039
  12.8876305 108.4350300  33.1647038  12.1030283 107.8285980  32.0211911
  40.6334686 103.6231518  76.3441849  40.7066393 103.7522411  77.2898102
  40.0849676 102.8443050  76.2505007  82.5206150  18.5304690  83.4034252
  83.0266775  18.6504222  82.5998402  83.1776918  18.5075808  84.0991020
   6.1702847  80.4192829  45.0047445   5.9920216  80.4659176  45.9440422
   5.3062069  80.3400421  44.6006155  47.8827823  13.2027102  52.0522213
  48.0588086  12.9597998  51.1432457  46.9283957  13.2521201  52.1064186
  26.4782369  58.0287843  14.6175021  26.5911281  57.3725134  13.9299125
  26.2075985  57.5263982  15.3860015  71.7580951  11.8478251  51.6968870
  70.8381261  11.6675902  51.8902874  72.1646775  11.9657469  52.5553846
   2.2859885  74.3081808  37.0437479   1.4296073  74.0378046  36.7124796
   2.4972235  75.0976467  36.5453911  79.0356649   4.7959090  36.5530872
  79.2771496   5.5509139  37.0896244  79.6257032   4.8383094  35.8005643
  62.1374846  89.9378777  61.4335203  62.4043846  89.0339470  61.6005802
  61.3191795  90.0397205  61.9195557  55.6532526  83.2040215  74.6231508
  55.9430027  82.7916527  73.8093805  56.0221148  84.0866375  74.5889568
 112.3754605  99.6649456  53.2339907 112.6215663 100.5018425  53.6280251
 111.5118786  99.8242855  52.8531122  27.6159000  87.5802135  56.5928125
  27.1451688  86.7881489  56.3334131  27.4632764  88.1953049  55.8754539
  75.9914435  22.4390174   5.7268637  75.6723894  22.8411151   4.9189350
  75.3674949  21.7358447   5.9070611  52.2260332 101.7938614  51.5973234
  52.2961664 102.0297146  52.5223589  52.9639149 101.2037277  51.4440012
  61.1510671  18.8072539  60.5020046  61.8894995  18.9852477  61.0844755
  61.4727439  18.1292964  59.9077606  36.4381411  10.5600882  59.8669529
  36.5432576  10.6528807  60.8138275  36.3946195   9.6148825  59.7222853
  34.3225734   3.9774085  24.1506577  33.7944151   4.5193053  23.5644531
  34.6786411   4.5937205  24.7906637  68.9349474  13.4702159  35.1089835
  69.1005219  13.8944293  34.2670465  69.0856041  12.5397921  34.9421144
  51.0402822  85.6018925  58.8090420  51.3693094  84.7478485  59.0893602
  50.2484798  85.4014683  58.3099365  27.0401239  98.1173325  43.8857555
  26.6614151  98.7710381  43.2979727  26.2838316  97.6726913  44.2685652
  36.0360980  93.5445499  38.1183481  36.0651112  94.5011616  38.1352043
  36.3580179  93.3104610  37.2478271  38.8867283  89.8995686  35.1391888
  39.3287611  90.6794262  34.8035455  39.4836068  89.5526314  35.8022118
  21.7720163  61.6248422   2.8862876  20.9197557  61.6677671   3.3199233
  21.9171608  60.6908422   2.7353019  84.9538625   4.9972487  44.8394299
  84.4948972   5.2140094  45.6509733  85.7081617   5.5863906  44.8261738
  34.9461746 101.2406921  37.1466470  34.8280287 102.1904945  37.1339750
  34.0697765 100.8882332  36.9919586  43.8974810 100.0904560  62.4413824
  43.0600405  99.6646023  62.6246071  44.5250797  99.6366692  63.0039024
  28.6808348  96.1280346  16.3335812  28.9929152  95.2852154  16.0042071
  27.7330637  96.0187721  16.4112043  10.6637573 107.5630188  54.2746973
  11.2190139 107.5512314  53.4950924  10.1367295 108.3565998  54.1814089
  68.7048292 101.3397980  57.0476675  68.7918282 101.8426228  57.8574991
  69.1803026 100.5267525  57.2183132  62.5384712  93.6337471  25.2907157
  62.5450659  93.7667465  24.3428230  61.6291142  93.4163475  25.4957461
  21.2903404  85.3240204  49.4625187  22.2237563  85.5352592  49.4810915
  21.2191939  84.6086597  48.8305092  10.9927225  81.7578697  43.4374094
  10.9008312  80.8580112  43.1242800  10.4883683  81.7811584  44.2506266
  44.3366575 102.9684830  72.7864361  45.0976801 102.7145386  73.3085394
  44.6759844 103.6144543  72.1669102  66.5300751  95.4990196  79.3623829
  67.4081564  95.8796310  79.3437624  66.0945129  95.8638382  78.5920382
  82.5481428   4.6539832  54.2613363  83.1964506   5.1868964  54.7216988
  81.8441213   5.2658797  54.0464592  37.8385015  57.9676581  55.3361082
  37.8053165  58.8215590  55.7673597  38.6503197  57.9866553  54.8293352
  67.5862182  14.8550463  55.8125877  66.6924585  14.7310687  55.4931259
  68.0458964  15.2704669  55.0829601  50.7353021  10.1429988  23.4255791
  51.2103046  10.7319213  22.8392482  50.3660001  10.7184745  24.0954137
  31.3076138  91.1712360  53.8068581  30.9694648  90.9005737  52.9532623
  32.2021031  90.8311844  53.8289165  75.2960504  22.1086264  43.4957647
  75.3706587  21.9737578  42.5510550  76.1083759  22.5525714  43.7392139
  30.7041240 104.5285797  24.2329931  30.6283283 105.3488159  23.7454462
  29.8593616 104.0963459  24.1073704 104.8334182  11.1444903  49.3388033
 104.2850078  10.4316855  49.6665049 104.5414938  11.2760115  48.4367418
  32.4326253  70.7863331  64.4752312  32.2811079  70.4332781  63.5985184
  32.2251725  70.0611877  65.0646019 113.2877027  89.2180729  84.0609550
 113.4741657  90.1548576  83.9984417 113.5498526  88.8644409  83.2109833
 105.3290357  93.6369514  43.9918280 106.0986557  93.1011105  43.8000059
 104.6607031  93.0077267  44.2632103  25.7401466  84.5013428  58.9545584
  25.5117154  84.7465897  58.0579519  25.4815030  85.2565765  59.4827223
  33.9973308  39.6007968  57.3714924  33.2089872  40.1351405  57.2754955
  33.6874272  38.7853099  57.7654076  83.8379778   6.5695430  56.3932943
  84.0197290   7.0520068  57.1997833  83.9898313   7.2055960  55.6942940
  27.0431042  91.3072014  56.7982006  27.4151278  91.1354828  55.9331369
  26.4253521  92.0242596  56.6552210  61.7664922  26.7502738  10.2834451
  62.3135866  27.1324015   9.5972264  61.9555367  27.2757388  11.0608661
 102.7253212  45.5527354  33.9270353 103.5414327  46.0394622  34.0423250
 102.8975977  44.6988631  34.3238401  59.3004465  92.8366947  60.2111006
  59.1227961  93.4508801  60.9234619  58.4400225  92.4924946  59.9714613
  58.3188642  18.9698840  46.3181114  58.3153523  19.9108840  46.4934301
  59.1530503  18.8117076  45.8761311  91.4002230  80.9666162  16.3154620
  90.5821493  81.3671117  16.0211963  91.3561013  80.0666624  15.9924048
  55.3394175  86.9330883   0.5426546  55.6902409  87.7931118   0.3113147
  55.8252811  86.3199520  -0.0089144 104.1881241  10.1674224  24.1108131
 103.5478653   9.5441676  23.7675238 104.1865410  10.0162841  25.0560045
  32.3945546  99.5579433  61.8570948  31.6391897  99.9519730  62.2934389
  32.1009755  99.4085598  60.9583569  80.2709783   1.7198420  55.6482983
  80.1008571   2.4940634  55.1117563  80.0428213   0.9818507  55.0830221
  86.2894774  29.8531957  91.9206074  86.0167045  29.1690488  91.3092422
  87.2243399  29.6965737  92.0537692  10.9178674  86.6605949  31.5814924
  10.7646048  87.5422192  31.2416649  11.8603873  86.5261936  31.4823651
  85.8960117  18.9415217  42.4408340  86.8138279  18.8279677  42.1939564
  85.8313526  18.5470153  43.3105564  14.9166691  97.6628590  65.6278324
  15.7128918  97.5540829  65.1078081  14.2838275  98.0450153  65.0197983
  60.7430029  73.8898230  65.1490355  60.1736593  73.2476664  65.5729628
  60.6035185  74.6972084  65.6439114  24.7920442 100.3717518  49.7397614
  23.9999461 100.2966881  49.2076111  24.4703078 100.4622841  50.6367111
 100.0803865   5.7804728  56.6671133  99.4682373   5.1660014  57.0719957
  99.6358217   6.6269160  56.7133236  26.5679049 103.1625462  54.4303226
  27.1906447 103.8888645  54.4601154  27.0460224 102.4546814  53.9983940
 110.7029750  96.8466854  56.3033676 110.2403881  96.8483448  55.4653645
 111.5025740  97.3457336  56.1365461  11.2566638  91.4486790  30.4905915
  12.0613921  91.1965275  30.0377488  11.0551012  92.3213100  30.1527810
  29.5793176 105.6489658  13.9825952  29.9512792 104.8090839  13.7134004
  30.2606606 106.2893295  13.7777817  92.5175489   5.3679610  72.5427103
  92.4216379   4.4495059  72.2907734  93.3989586   5.4243136  72.9117250
  27.1955514  94.9326706  56.6115332  26.5537930  94.8607445  57.3180771
  26.7962408  94.4667149  55.8769131  65.9559764   8.3221675  64.7919703
  65.0934995   8.1304789  64.4237041  66.0852207   9.2559291  64.6257687
  43.6121376   7.4499274  54.0329361  43.1171237   6.6425372  53.8939762
  43.8564677   7.7355910  53.1526327   9.0832514  92.3720169  62.3454857
   9.0924281  92.0794487  61.4341402   8.3752501  91.8712425  62.7506828
  73.3703150   5.4254962  42.1442986  74.1545762   5.8366729  42.5077438
  73.3027567   5.7803202  41.2578583  54.0584530   4.4955397  53.4754324
  54.6641101   4.7692157  52.7865839  53.2820846   4.1919184  53.0050087
  48.3858109 106.6235638  32.6687574  48.1548500 106.8602467  33.5670161
  47.6247692 106.8831348  32.1494579  58.8529444  96.3553715  75.4237652
  58.6425257  95.4755306  75.1109791  59.6532583  96.2422466  75.9365368
  42.7945423 109.7242737  46.7812490  43.4016657 109.0970612  46.3885307
  42.2674274 110.0393105  46.0469913  37.2746944  92.2614861  59.5548820
  36.6583943  91.7390251  59.0416193  36.8486762  93.1138515  59.6454573
  96.1616768  27.3608828  70.4631329  95.2578605  27.1061946  70.6488132
  96.5687765  26.5656996  70.1193428  13.1829345  98.0391884  32.5023389
  13.1989419  98.7823296  31.8992496  13.9613044  98.1559944  33.0470657
   2.8662752  19.0426493  71.2750816   3.7684130  18.7289763  71.2118101
   2.3798918  18.4998275  70.6545877  20.3771210 100.3604317  64.3777704
  19.6818686 100.4512310  63.7261486  20.4582715  99.4160938  64.5114231
 116.2876853  98.7179565  32.8909612 116.7894093  99.3562222  33.3980346
 115.9190573  99.2238522  32.1667933  28.4812498  83.8065529  56.5513706
  28.9063263  83.0798626  57.0068550  27.5559545  83.7258244  56.7827702
  33.4490252 102.5452518  32.0064402  34.1173768 103.1879902  31.7688966
  33.7930632 101.7119312  31.6847992  11.5628171  92.1171951  39.2635083
  11.4956486  91.1980820  39.0047550  12.3453474  92.1546173  39.8134875
  28.5703206  97.9583454  51.2348509  27.6820326  97.6159096  51.1353159
  29.0091419  97.3246002  51.8023300  59.9891520  95.1853561  57.5139809
  59.0559769  95.1853657  57.7270889  60.0180435  95.3046703  56.5646839
   5.2790159  89.6712685  75.7401037   6.0112339  89.7873211  75.1346111
   5.1083428  88.7294483  75.7318401  32.6480436 102.6475620  56.5482235
  32.9815865 103.3396816  57.1191454  31.8839860 103.0360126  56.1221313
  18.7156332 101.4989948  37.1313930  19.5681703 101.0742569  37.0364666
  18.4717083 101.3451672  38.0441189  93.3798565   2.0725871   2.3286855
  92.5154079   1.9438887   1.9383016  93.3874477   1.4928008   3.0902773
  81.1543955  18.0020190  39.8761272  82.0472301  18.2323790  40.1330614
  80.8816446  18.7120677  39.2950273   6.4508986   3.9164973  37.5241899
   5.7448553   4.3949748  37.0896769   6.9057058   3.4635974  36.8140769
  40.2564764  41.0925722  24.7323942  39.6378708  40.3788424  24.8878074
  40.5630159  41.3381720  25.6052876  22.4242531 108.0729541  18.1798863
  22.5871359 108.0697718  17.2366524  21.7299544 107.4260605  18.3052313
  14.7552049  46.2830305  39.2387080  14.0658307  46.4302063  38.5911489
  15.5391634  46.6662264  38.8452601 113.0222546  26.1498761  36.5581822
 113.7577762  25.6378484  36.8944359 113.0596255  26.9721532  37.0467496
  38.8087273  51.3612509   3.9078161  38.4590268  52.0854568   4.4269165
  39.4701099  51.7662191   3.3467397  35.0487947  53.8487101  33.7241578
  35.4142237  54.5004749  34.3224049  35.4367518  53.0204058  34.0063572
 106.1979940  61.9488144  22.8049970 106.3485875  62.1646404  23.7253094
 106.8992545  62.4002695  22.3352623   9.2697442  35.7273746  18.4069431
   9.8265970  34.9692202  18.5839975   8.8988376  35.9563565  19.2591321
  91.5998377  66.0277939  49.7495651  90.9597435  65.6771946  49.1302204
  91.2913098  65.7320023  50.6060410 112.3324777  13.1583924  78.3421522
 112.3419524  14.1046996  78.1984955 113.1369234  12.8452821  77.9285544
  25.5205059  23.3546829  49.6927500  25.0053954  23.0872297  48.9315891
  26.3704848  23.6051059  49.3307352 109.0200724  37.5322127  18.3019471
 108.3110358  37.5611043  18.9443374 109.1952529  36.5990639  18.1803870
  88.8316550   0.3734313  55.6370544  88.3588113  -0.3481637  55.2223873
  89.0347852   0.9713968  54.9177456   3.3112872  37.5556183  58.4882069
   3.6903942  37.1652770  59.2756987   3.2910204  38.4947252  58.6723280
  43.5827210  89.0816731  84.3953448  43.0311316  88.3215541  84.5802742
  43.1773016  89.7967882  84.8857289  97.1767738  70.5276918  30.0402236
  97.9503681  69.9858761  30.1958466  96.5586342  70.2640438  30.7218575
 111.3833608  57.9437590  18.4204948 110.7634213  57.2154570  18.3820069
 111.4693781  58.1359863  19.3542421  44.1811466  26.0764503  43.7636757
  45.0747252  26.0393119  44.1047955  44.2608500  26.5472293  42.9340649
  94.0791883  16.8391514  29.3769526  94.4057335  16.2890434  30.0889802
  94.2998161  17.7316713  29.6433425   7.5991017  41.1929989  24.9607325
   6.7147893  41.5569115  24.9184442   7.7816689  41.1154652  25.8971548
  83.6999883  55.4806900  40.7835674  83.4687938  54.5587587  40.8968163
  84.3703069  55.6428051  41.4473629  43.4072304  38.6988068  39.7294664
  44.3217659  38.7607384  40.0051880  43.1626225  37.7917814  39.9130487
  10.7606971  30.6700253  17.4470770  10.1423204  30.6428242  16.7169392
  10.6789815  31.5571260  17.7972329 114.8272577  91.7826653  44.4488621
 114.3286364  92.1803188  45.1626396 114.4155171  92.1187782  43.6527872
  87.1268835  84.9570179  45.2698183  86.4736714  85.3705502  44.7054243
  87.1418681  84.0422440  44.9884224  20.5104876  32.9780841  34.9847293
  20.6168556  32.4177527  35.7534599  20.0962400  33.7721133  35.3225875
   4.7732455  22.5993991  45.1741600   4.1536567  22.5318885  44.4476700
   5.4581177  21.9643497  44.9646521 103.5790493  54.5887280  49.4648266
 103.4794905  53.7841797  49.9737692 104.3176856  54.4134665  48.8817930
 111.0006275  50.9878445  14.1353416 110.6643738  50.8524942  15.0212574
 111.7854889  50.4417133  14.0910184  84.2817940  30.5848622  44.7563076
  83.6454382  30.7210732  45.4582548  84.1187968  31.3013697  44.1428947
  99.7003736  22.1664214  41.6884089  98.9300038  22.1990561  42.2555876
  99.5222845  22.8126764  41.0051250 106.2996544  86.8034077  11.6564083
 105.9614362  87.3648548  10.9588253 107.0515957  87.2818565  12.0055580
  23.2159734  28.6655760  31.6952372  23.5742283  27.7817869  31.7777038
  22.2670054  28.5403085  31.6952276   0.6266273   2.9029739   5.6673688
   0.6176161   1.9816823   5.9269303  -0.2278538   3.2370657   5.9402722
 107.3725994  11.5533078  20.4469776 106.5175023  11.2458336  20.7478094
 107.6773789  10.8686852  19.8514664  14.4003356  37.6561117  66.8622589
  14.9677145  37.7844048  67.6224232  14.3453574  38.5209560  66.4557409
  71.4214792  26.0227203  46.3287163  71.5240135  25.1800513  45.8864164
  71.7754116  25.8773232  47.2061110  29.6554780  33.5036206  33.1680250
  28.7774754  33.7322140  33.4731317  29.9215603  34.2462730  32.6258993
   7.7096361  37.0798492  23.2333732   7.0587063  37.1863651  23.9270401
   8.4001124  36.5502548  23.6321235  66.8238259 109.7125332  43.2038927
  66.9815482 108.7710293  43.1337070  67.6715303 110.1125106  43.0098677
  16.8543863  43.3457756  21.0804796  16.5524232  43.2708120  21.9857025
  16.1332297  43.7774324  20.6223965 105.9743824  46.7846155  30.8341527
 105.0368740  46.8966150  30.6767750 106.3959803  47.2786999  30.1310420
  17.1010005  49.9367380  36.9421768  17.7053142  50.2553749  37.6126313
  16.5446436  50.6899452  36.7437387  19.2296910  52.3937559  27.3299551
  19.7472453  52.6687288  26.5731454  19.8651886  51.9892645  27.9205132
   5.7693785  71.8750143  13.2995248   5.6643063  72.6643276  12.7683163
   5.0430250  71.3102341  13.0355847  14.0071642  66.1900330  43.5544205
  13.4311509  65.5936623  44.0327311  13.7238896  67.0638704  43.8234901
 107.0052566  75.6530762  50.9220695 106.1306216  75.7450533  50.5441999
 107.5899734  76.0374880  50.2689505   6.7947084  57.7905369  35.5410552
   6.6202384  57.3652172  34.7014737   7.7494943  57.8086424  35.6065392
  15.4571438  44.6399307   9.5998746  16.2490714  44.5144558   9.0770561
  15.7415688  45.1751089  10.3407669  90.8217802  36.8647718  44.5247459
  90.5475845  37.2105145  45.3741646  90.7915845  37.6201582  43.9376259
  28.3763218  45.5557680  36.9765925  28.6854506  45.4965925  37.8805661
  27.4545431  45.8017683  37.0543003  12.0231199  42.5723457  17.9018760
  12.1428919  42.0116806  18.6683869  11.0903883  42.5034857  17.6981556
  13.3648705  27.2860885  65.6259394  12.9357195  27.0955038  66.4600515
  12.6530921  27.2908282  64.9859571  30.6575418  34.5082617  43.7957382
  29.9841952  35.1664734  43.6237097  30.6898785  33.9839125  42.9955864
  95.9166946  49.5906973  38.9524007  95.4722585  49.6904707  39.7942758
  95.6772270  48.7120104  38.6577988 110.8666857  49.1264582  27.0382476
 111.2387755  48.2641029  26.8535233 110.3201570  49.3196630  26.2765312
 113.0049848  34.9705315  11.4164460 112.5323500  35.4330206  10.7243824
 113.2855239  34.1512561  11.0086262  85.6516947  29.3562365  38.0102134
  85.1398983  29.7734714  38.7031865  85.3244843  29.7492576  37.2010779
  96.9154658  29.4452453  29.7727799  97.2340181  28.5557723  29.6191788
  96.0199656  29.4406652  29.4347095 100.7220127  11.1367469   1.6242904
 100.5569889  10.2861410   1.2175101  99.8518994  11.5161567   1.7475051
  96.5477314  55.5191374  32.5435638  96.7552676  54.5914221  32.6554155
  95.9288897  55.7127142  33.2476878  97.6675429  31.3591671  51.7951727
  97.9731264  30.7219887  51.1495304  96.9992222  31.8658924  51.3338614
  93.1489720  42.5870895  57.0803356  93.3088865  43.4585333  57.4426174
  92.3505654  42.6861238  56.5617132  99.4804349  82.9948997  52.2827101
 100.3490963  82.6292801  52.1154404  99.4975152  83.8547611  51.8625021
 101.1369922  43.9369678  27.7906346 100.6529631  43.1258345  27.6356936
 100.4626026  44.5804977  28.0081296  24.5854735  44.8901892  36.2926602
  25.1454401  44.1255999  36.4270735  24.9749708  45.5716181  36.8405485
   7.8483140  29.2368770  16.1708581   7.2096425  29.9276972  15.9945130
   7.9462570  28.7820220  15.3343499  25.2059698  91.0955715  24.9298549
  25.3175020  91.2285805  23.9885235  26.0778570  91.2407875  25.2972245
  18.8419366  33.0704355  28.2457972  19.4961047  32.3836303  28.3746171
  18.8268781  33.2123685  27.2992969   7.9036528  58.3417702  32.3679113
   8.2087249  57.5640821  32.8352070   8.6876887  58.6880779  31.9417763
  92.7521648  24.3856359  32.2896433  91.9290914  23.9549851  32.5205564
  92.6459732  24.6276546  31.3696527 106.6556438  41.5092754  16.3632762
 106.7308195  41.2197256  15.4540229 105.8601870  41.0848856  16.6847968
 113.0163856  79.8642969  46.2669086 112.2210618  80.2425194  45.8918858
 113.6763497  80.5509663  46.1711407  37.6688695  23.9297032  38.6897492
  38.0196667  23.8995218  39.5798421  38.3715272  24.3179226  38.1684160
   4.0437230  73.9222527  40.1682520   3.5275829  74.7151995  40.0231075
   3.5696298  73.2380342  39.6956968  13.5924685  29.4792295  43.7793636
  14.0056980  28.6559534  43.5191917  14.2931330  30.1285553  43.7187243
  40.1596546  69.7523689  12.9055548  39.3145347  70.0715685  13.2219613
  40.7639694  69.9165154  13.6294973  88.2757344  73.1256104  39.3947554
  88.8866272  73.6543417  39.9080634  87.4969878  73.0556917  39.9469304
   8.2152665  49.1302443  35.4836321   7.6533318  48.3679533  35.6228209
   8.2129747  49.2595148  34.5352030  94.9315586  33.8489866  26.4322877
  94.4428696  34.0904570  25.6454563  94.3132462  33.3325171  26.9491839
  93.2230534  45.1154041  46.1415434  92.8634157  45.7789040  46.7303181
  93.9596643  45.5502987  45.7120037  86.2487616  22.0803571  51.9033241
  87.1225133  22.4676824  51.8507004  85.6519403  22.8165126  51.7687511
 111.8038418  59.2504072  20.7753873 111.0135074  59.7898865  20.7516575
 112.5110092  59.8510838  20.5401659 113.9141013  69.5304298  27.1337557
 114.1459241  70.0762987  27.8851008 113.0859750  69.1198301  27.3824453
  38.7829971  30.5034685  51.4824438  39.4418216  30.4035163  52.1696043
  37.9482484  30.3594732  51.9281912   0.3954872 101.9937038  55.2340794
   0.2977557 102.7181721  55.8520031   0.9473468 101.3603306  55.6929207
  49.1550970  41.7568684  26.4090753  48.2180643  41.6869497  26.2265587
  49.4679642  42.4275541  25.8020115 107.4333247  45.4227448  23.6321473
 106.7859211  46.1245298  23.6999679 107.9141976  45.4597712  24.4589615
  11.6923809  62.6166725  64.7144890  11.6782260  63.3914661  64.1525984
  10.9576690  62.0851326  64.4080687   9.3065721  53.1599140  40.8858347
   9.1239828  53.9596272  40.3925323   8.4599978  52.9071331  41.2541342
   0.1659499  48.0964851  49.4404602   0.9919063  48.2206249  48.9728928
   0.4267929  47.9148483  50.3433418 108.9733126  11.5147817  41.7942095
 108.5470476  11.2015676  42.5919724 108.5775765  10.9979117  41.0924482
 106.2955751  25.9126258  38.8521099 105.7065704  26.5672255  38.4768748
 106.3640728  25.2372122  38.1773090 112.8917032  23.4355855  33.7944961
 113.4440499  23.6777949  33.0512047 113.4977462  23.3724022  34.5327044
  65.2577449 108.1129479  20.8406472  64.3732012 108.4753566  20.7909179
  65.4766012 107.8903519  19.9357808  39.9284244  58.9446449  26.0830712
  39.1210151  58.5527611  25.7502842  39.6682310  59.3734074  26.8983579
   1.9440225  56.6178179  38.0065560   1.7457382  55.8124447  38.4843493
   2.8541920  56.5137768  37.7290702  97.0989623  20.1358223  35.6592584
  96.8917610  19.4806862  34.9928522  97.9102673  20.5409098  35.3527927
  40.4816437  24.2313313  38.5591698  40.8527374  23.7929773  37.7934241
  40.9382296  23.8399601  39.3038774 107.4358745  30.8358645   7.2907162
 106.7067113  30.9132075   6.6754347 107.4690016  31.6852331   7.7308381
 110.9250351  48.4012365  40.5001640 110.0879230  48.2448626  40.0630999
 111.2699457  49.1900921  40.0818682  85.0538911  44.6419096  20.1563859
  85.3517451  44.7255182  19.2505586  84.8987784  45.5423689  20.4415917
  25.2894306  69.2586231  25.2445745  24.4371748  68.9149475  25.5124903
  25.3368759  70.1243067  25.6502461  98.4593536   8.0538756  56.7057991
  98.7690093   8.8834226  56.3422060  97.6545038   8.2818675  57.1710587
  29.9468756  60.3709030  23.7465858  29.4712329  59.9119854  24.4389653
  30.7975006  59.9334955  23.7099004 116.1860516  81.1608410  17.4801648
 115.4987752  81.1239815  18.1453896 115.9061088  80.5355740  16.8116570
  15.0811827 109.2497444  46.0910940  14.4901001 108.6755562  46.5780878
  15.4426229 109.8387146  46.7534447   9.9029398  86.5813351  35.8383512
   9.6785808  87.4957085  35.6656742  10.4826736  86.6165447  36.5992069
   3.4193882  52.6595306   9.0792274   4.2924887  52.3702860   8.8141572
   2.8210878  52.1018982   8.5819203 108.4585359  74.5648289  56.8687201
 108.2511540  73.9953709  56.1278105 109.2832198  74.2207050  57.2118092
  39.2330599  54.0446520  34.0903950  39.9345851  53.9784622  34.7382498
  38.4523296  53.7363291  34.5504260  -0.2367819   0.4757876  76.2945634
  -0.1203574   1.2817283  75.7914382   0.3702890   0.5624480  77.0295375
   9.5688891  59.2006063  51.6415977   9.5375961  59.0535212  50.6962824
   9.8340338  60.1158047  51.7329454  26.2838864  51.2122250  35.2273536
  26.1219311  50.4548550  35.7898378  26.1937881  51.9666195  35.8095956
  37.0662427  19.9492300  27.9392338  36.4129829  20.3876305  27.3939943
  37.2355962  19.1207683  27.4906778  19.9280798  84.9784946  17.5794780
  20.4047942  84.2053604  17.8815329  20.6074548  85.6366825  17.4329424
  17.8426802  61.0254145  51.2360334  17.3418045  60.5558634  50.5690432
  17.2894239  60.9951067  52.0165586 107.8554537  52.2580528  49.7406387
 108.6714258  52.7484989  49.6412325 108.1132068  51.3415956  49.6411180
   4.0092042  56.6888857  29.1337562   3.1056517  56.4578009  28.9182949
   4.5040777  55.8827734  28.9870930  12.5575018  79.5651007  28.6216402
  12.4002743  80.3479004  29.1495872  11.9489026  79.6453190  27.8872013
  54.3540859   9.0017927  42.8344011  53.8743877   9.7499967  42.4789953
  53.8510704   8.7390202  43.6052132   6.7441648  62.4908781  31.7179847
   7.1983200  63.0787420  31.1143398   5.9640092  62.9772520  31.9844913
 108.3510300  96.7020893  16.1630905 108.3020165  96.3980484  17.0693934
 109.2516150  96.5170479  15.8967531 101.0223498  59.7904682  51.5380335
 101.7879512  59.9684477  50.9917641 101.0853233  60.4243422  52.2525024
   9.1841722  37.3824883  46.7027283   9.4692475  37.2821593  45.7944918
   9.9599391  37.1709323  47.2220182   7.6386267  84.3921471  27.8716874
   8.2691169  84.8353577  28.4393859   7.8149098  83.4600735  27.9997420
  17.3222744  53.1191444  61.6569948  16.7271018  53.1381845  60.9075689
  18.1432128  52.7778769  61.3022709  20.1781011  59.6709251  48.5764408
  19.9290681  59.2805624  47.7386904  20.1720667  58.9388037  49.1930389
   2.9094121  46.9744968  42.1279097   2.1701044  46.3961267  41.9404364
   3.1822553  46.7350340  43.0136013   5.5673587  46.6105127   2.8903258
   5.9311271  46.6436052   2.0055607   5.1084471  47.4443626   2.9919523
 115.2515705  65.6381321  16.3775611 114.5326253  66.0574961  16.8503022
 115.5140107  64.9085760  16.9389021 108.3201941  44.3393183  78.2841635
 108.5077479  45.1313829  77.7804899 108.6363061  43.6240244  77.7322006
  21.0081363  86.4325237  66.5603924  20.8386159  87.1573734  65.9586620
  21.6077185  86.7969513  67.2114849 107.5692578  57.2738075   9.7097731
 106.7094364  56.8789768   9.5646876 107.6327308  57.9602575   9.0457058
 108.2783391  98.3133316  68.0939770 108.7304666  99.0495491  67.6819038
 108.9614310  97.6557064  68.2249117  94.5870390  78.7417126  26.0952401
  94.7072949  79.3521500  25.3678226  95.3047242  78.9411259  26.6964006
   9.3289059  68.2831717  12.0717299   9.3720716  67.4402618  11.6202033
   9.0417141  68.0654335  12.9584897   2.0153660  84.1481590  28.0694008
   1.9145526  84.0139008  29.0117598   2.0258023  83.2645988  27.7013564
  98.8341071  76.9734430  53.3421564  99.3623879  77.2736406  52.6025391
  98.2451238  76.3193703  52.9659605  10.6915152  50.1193237  29.8621559
  10.7377350  49.2246628  30.1993155  11.4332426  50.1873302  29.2609501
 110.8512236   5.9148879  77.7628165 111.1404181   5.0377221  77.5114625
 111.3971544   6.1404033  78.5160321  29.6659756  42.7649021  37.4325323
  29.9020815  43.3434534  38.1576300  28.8839459  43.1647158  37.0519900
  22.8006244  67.0745039  27.5154018  22.3690534  66.9396400  28.3590794
  22.3457861  66.4824724  26.9163585   0.8413112  39.3776202  44.9259090
   0.4653342  38.6183882  44.4804430   1.4237761  39.0033317  45.5868721
  97.5865104  47.0243835  58.6258698  98.1429627  47.3210526  57.9057455
  97.3916080  47.8198481  59.1213322   2.4341580  73.4266758  44.0054226
   2.3115629  73.4133196  44.9546432   1.8526638  74.1223383  43.6985826
 111.3484897  38.1516790   4.8926973 110.4869576  38.2199144   5.3042042
 111.9311111  37.8772688   5.6008518  21.4941406  52.9820538  51.8349171
  20.6666422  53.4629536  51.8494701  22.1570349  53.6396027  52.0457029
  11.6179085  62.0494270  27.3940277  10.8054352  61.6284323  27.1131706
  12.2277427  61.8989372  26.6717482  80.1594057  90.2428341  64.2131662
  80.2293410  90.6579113  65.0728464  80.8263530  89.5563221  64.2236948
   1.4466745  56.2992191  46.7133951   1.8492973  56.0946894  47.5573683
   2.0513792  56.9174576  46.3030958  26.4106393  83.4375954   9.3240267
  27.3097181  83.2358837   9.5832598  25.8776307  82.7885056   9.7831821
 113.4920194  30.0850725  27.1356034 112.9207255  29.4454098  27.5606751
 114.3135442  30.0344777  27.6242423  16.0070908  58.7826443  61.4303780
  16.7507136  58.2939529  61.0776234  16.3945925  59.5785332  61.7945671
   0.5742039  63.4322405  30.2799964   0.5512771  62.4753284  30.2856088
  -0.3448951  63.6941576  30.3337193  17.6129687  56.2580633  31.5986443
  18.1478059  57.0408487  31.4666390  17.9799986  55.8463383  32.3809505
   1.4835607  97.8316498  38.6183119   1.2735921  98.7215710  38.9014912
   0.7969572  97.2887611  39.0057087  20.0020170  28.1611419  39.9396849
  20.5949354  28.7232399  40.4384089  19.4550204  28.7702942  39.4437408
  39.3834170   4.7024108  52.5449562  39.1695670   5.3323794  51.8567467
  39.9033519   5.2023841  53.1741858 114.9908197  71.9790363  28.8203287
 115.8097054  72.4356365  28.6275172 114.8314700  72.1543503  29.7477484
  10.4046416  72.0049572   9.1305631  10.6095660  71.2141752   9.6294618
   9.8768795  71.6940546   8.3950102 112.4454161  64.6956253  46.4185047
 112.9088127  63.8702917  46.2759733 112.7173882  65.2521324  45.6887341
  60.6263924  44.6873379  35.6395793  60.0530100  45.4492664  35.5563593
  61.2779427  44.9478722  36.2906075  23.1221509  94.1910648  23.1177616
  23.4912872  94.9182796  22.6166296  23.7934756  93.5097408  23.0810475
  12.3620820  62.8076220   7.7479106  12.6110172  62.0189047   8.2297683
  12.3437202  62.5325012   6.8312842  12.3718524  87.1922588  18.3119035
  12.8073227  88.0335140  18.1745028  12.8455019  86.7938137  19.0420592
  26.9025445  63.0730534  21.8446088  27.3727250  63.6488152  22.4476528
  26.7346478  62.2795534  22.3529387 102.6968875  67.7039719  28.6370277
 101.9898560  67.0797396  28.8003445 103.1763782  67.3341942  27.8956890
  40.3030252  49.9762678  34.4559574  39.9802065  49.3587255  33.7997103
  41.0959625  50.3458309  34.0674877  32.4722409  41.0465813  37.1549726
  32.6851940  40.4367495  36.4485812  32.0735884  41.7959023  36.7124486
  26.2723494  78.1833124  16.2199473  26.9829369  77.6025391  15.9479141
  26.6770911  78.7770891  16.8522775  14.7575021  28.8490915   3.0368572
  14.0104127  29.0338039   2.4676721  14.4791555  29.1488194   3.9022577
  96.1890449  39.0808344  38.3559179  96.5989699  39.8341393  37.9308009
  95.4878249  39.4579291  38.8872576  25.0022936  56.7992401   0.8533487
  25.3295922  57.5953865   1.2719809  25.7233119  56.1743879   0.9303255
   0.4562270  11.7797322  83.7519818   1.0593020  11.1272616  83.3958822
   0.5271231  11.6785951  84.7011786  96.9943430  57.1934605  15.2186513
  96.6822805  56.2991905  15.0803304  97.1067204  57.5470877  14.3362975
 109.2556777  22.1272182  40.1373100 110.0504871  22.6561046  40.2065182
 109.2354794  21.8437004  39.2232847  60.2118397  39.5786262  22.4942422
  60.7176876  39.7375131  23.2911754  60.8692884  39.5193243  21.8010759
  18.7883019  84.1019249  56.9186354  17.9506004  83.9857769  57.3669624
  18.8756406  85.0495815  56.8159580  14.1934645  64.1516304  18.3401728
  13.3847249  64.6586752  18.2689250  14.5303988  64.3593550  19.2116988
  10.4455674  66.3013220  71.6219616   9.5123112  66.4499855  71.7741585
  10.4734755  65.6736660  70.8998156  23.8615346  65.7244587  59.4364595
  23.4360075  65.7788563  58.5807753  23.9754605  64.7862387  59.5880890
   8.2831800  48.0780935  24.0643954   7.6753050  48.4341049  24.7124529
   7.7861738  47.3895264  23.6227059  19.9980283  47.9432011  26.9914460
  19.1653574  48.3931351  27.1344447  20.2768636  48.2264376  26.1206651
 113.8544627  34.7771692   1.8222255 113.8175603  34.3331194   0.9750596
 112.9417353  34.9819469   2.0252685  44.8503971  52.1817207  36.4352274
  43.9246321  52.0981646  36.6637135  44.8465014  52.5099897  35.5360842
  13.2097983  78.8497639  49.6355867  12.4630105  79.4092512  49.8489189
  13.9589441  79.2846155  50.0429106   4.0769708  31.2287879  19.4001198
   4.1918814  32.0062947  18.8537598   3.1921607  30.9236932  19.1994703
  17.4874556  56.0932446  49.8338079  16.7229116  56.2869072  50.3762054
  18.1501079  55.7888412  50.4538584   4.9635673  73.3440495  48.7149477
   5.5855858  73.6917400  49.3540382   4.1115171  73.6638927  49.0114975
 113.3743267  69.0492725  40.5817747 112.6070764  69.1177368  41.1499929
 113.6011051  68.1194401  40.5965567 104.3615403  91.9360352  49.7968864
 104.8672809  92.5159836  50.3661966 104.9495890  91.2018394  49.6197176
   3.7206805  64.4494820  30.1111984   4.3108600  64.3173742  30.8531332
   2.8443411  64.3355274  30.4789948  22.4164140  84.8362679  76.3762277
  21.9804978  84.4399113  75.6218344  21.7065608  85.0303764  76.9883245
  29.1836977  39.9179029  22.3779821  28.2518196  39.9696755  22.5904822
  29.2742229  40.4265356  21.5721726 112.2973349  32.6718235  18.7570310
 112.4973353  33.5024810  19.1885865 111.4999430  32.3639774  19.1878772
  11.0071290  64.6647167  23.4725952  11.0203862  64.0029669  22.7811170
  10.4244661  64.3021965  24.1399121  97.4686601  56.3158846  43.0980587
  96.8890478  55.8965540  43.7340164  98.3466484  56.0277843  43.3477926
 108.5068830  35.9740043  34.5152235 108.8916304  36.6219544  35.1054430
 107.6205113  36.2959599  34.3511438   7.6318693  28.0560899   9.3048346
   8.3182621  28.0288768   9.9714351   7.9535705  27.4860787   8.6063874
  10.5170834  91.0831070  45.0411224  10.1183045  91.5536213  44.3091249
   9.7916567  90.9179974  45.6433916  20.2540517  69.1813421  47.5862932
  19.9692690  69.4748163  46.7208433  20.6429529  68.3205414  47.4313259
  88.6509837  16.4769311  83.0349380  88.7028957  17.1428819  82.3493403
  88.8520218  16.9489379  83.8430375  12.5044012  66.7307091  26.2749720
  11.8338943  66.4944744  26.9159460  12.5202537  67.6877069  26.2865806
  25.0730133  62.9948521  42.0813751  25.4447913  63.3286428  42.8978300
  25.1498365  63.7249327  41.4671183   6.2548310  90.9777069  63.4231615
   5.6469589  91.2846947  62.7504921   5.6937373  90.5844593  64.0915632
   1.7556530  44.8480034  50.6432295   1.1836191  45.6123734  50.7121468
   1.5776688  44.4934082  49.7721338 102.5321676  79.1817188  34.2669249
 102.3939457  80.1125145  34.0915680 103.0328335  78.8678885  33.5138798
  13.7195170  66.3147163  30.9052157  13.3331418  66.8084574  30.1819158
  14.2844045  65.6694937  30.4799843  12.6600564  59.3924046  34.9683833
  11.7147219  59.3471432  34.8251104  12.9883325  58.5440159  34.6705532
  19.3944716  62.9778481  20.3702831  19.5887005  63.2993221  21.2507153
  18.5800862  62.4847507  20.4695940  38.2845449  98.6386776  15.2396894
  38.2790208  99.5519829  15.5261707  39.1439557  98.3100700  15.5036175
   7.7589673  88.5330582  36.4470196   7.3507285  87.7539730  36.0693955
   8.2913399  88.1985378  37.1687579  34.2969632  89.0785408  13.2239676
  34.5899081  88.8450336  12.3431206  35.0369930  88.8567924  13.7891364
  11.1796212  62.5934696  36.0091710  10.5030167  62.4400949  36.6686535
  11.5568233  61.7287207  35.8474183   3.7053439  66.8504238  54.4798946
   3.9678097  67.7485275  54.6817780   4.3008506  66.5780544  53.7817430
 112.4475624  61.2087917  36.3302732 111.6435858  61.3075924  35.8202791
 112.9443504  60.5350018  35.8661151  20.2703929  40.0526142  49.7223425
  20.1155376  40.5154514  48.8989162  19.5817089  40.3680038  50.3075552
   4.4687244  72.5055790  19.5532191   5.0328517  73.2675505  19.4213498
   4.0838566  72.6395321  20.4193401  24.6302724  57.6100397  33.7855816
  23.9465714  56.9627857  33.9583206  24.7674727  58.0440474  34.6276307
   9.6556711  78.0188656  37.1673203   9.4953108  77.1787739  36.7374802
   8.7857914  78.4044218  37.2716713  90.0174488  24.7505755  89.3607676
  90.4972673  25.1536317  88.6372000  89.1224123  24.6601386  89.0337145
  32.4036622  53.5089636  33.2962418  33.2759809  53.6607504  33.6599040
  31.9237041  54.3164825  33.4800458   4.7422540  75.1042128  30.7647014
   4.2272127  75.6956005  31.3135409   5.5420125  75.5930758  30.5707240
 102.9630508  94.5752525  55.5827808 103.4952666  93.8705826  55.9521341
 102.9409160  94.3916130  54.6436214 104.6630599  66.8185997  26.6605234
 105.1105740  66.3930035  25.9292006 104.2094411  67.5622225  26.2636781
 108.3075275  87.9224682  15.0968850 108.4761103  88.8543892  15.2359688
 109.0521761  87.4808216  15.5051470   7.8552252  48.5413599  32.7258039
   7.3271251  47.8167439  32.3907256   8.7592238  48.2386446  32.6398849
   2.4566297  41.6733360  37.6553059   1.8701628  41.1835861  38.2318735
   2.0844281  41.5578938  36.7810225  17.2323978  47.6519012  56.9139004
  17.5322020  46.9717932  57.5170612  16.7696762  47.1743774  56.2253571
   6.2121737  83.9744282  49.2535496   6.3042367  83.0342197  49.4077158
   6.7944062  84.1542435  48.5153723  31.4377069  51.1898708  16.9594967
  32.2443938  50.6914568  17.0901513  31.5978360  51.7010736  16.1662352
  20.6892586  87.5745010  61.5852118  20.1622224  86.9071102  62.0245886
  21.5482378  87.1668816  61.4746189  13.8393891  49.0942955  39.1143656
  13.8976824  48.5560656  39.9037600  13.9357829  48.4726143  38.3929420
 115.7040804  28.8097024  46.5110970 115.0192261  28.8020229  47.1797848
 115.5801119  27.9904318  46.0318708 111.7394229  36.2963295  39.4209456
 111.0117139  35.6745386  39.4278884 112.4437245  35.8459711  39.8871732
  26.1296988  56.9910622  29.6570873  26.3162422  56.5454149  30.4834247
  25.8340120  57.8635740  29.9169445  24.5639133  59.0747643  31.2152982
  24.5741010  60.0046062  31.4422870  24.3387008  58.6310577  32.0330024
 108.9959904  65.3989840  42.8406763 108.7451281  64.6955395  43.4393978
 109.0812536  66.1708307  43.4003305  10.5382454  35.9882975  56.6790342
   9.7890359  36.4779878  57.0183277  10.5547202  36.1930895  55.7441425
  22.3856950  54.3906927  37.9501009  22.9183745  55.1655769  37.7711010
  21.7971063  54.6621513  38.6544490  30.0599074  32.6718426  12.2468615
  29.7821045  32.0357537  11.5877342  29.8370624  32.2629905  13.0831707
 105.5718138  68.1683779  31.2136674 105.5522861  68.3160305  30.2681255
 104.9435236  67.4609423  31.3586402  75.9463535  28.9733262  90.8799913
  76.7350553  29.0058179  90.3385812  75.6573551  28.0622907  90.8277648
  22.1812630  33.0362916  37.5006199  22.4538469  32.8948951  38.4072280
  22.7926636  32.5130558  36.9823098 112.2048368  51.6177320  24.9022102
 112.5339364  51.2333727  24.0896893 112.4026458  50.9646225  25.5734420
  43.9050102  64.8848486  27.8099728  44.8553085  64.9831438  27.7507687
  43.5824871  65.7706213  27.9761386  99.1232695  81.4470387  34.3680120
  98.5497560  82.1021175  34.7657347  99.1074576  81.6509533  33.4329176
  12.5406551  15.0769305  19.5337582  12.3064518  15.5567527  20.3282070
  12.6201797  15.7526731  18.8604975 116.1896794  51.7164660  46.7590284
 115.5114500  52.2165585  47.2130585 115.9464455  50.8012915  46.8987656
  41.7514896  54.5677757  41.3391447  41.5284204  54.9217844  42.2000456
  41.7064333  55.3217316  40.7511377  16.1081958  73.9050484  18.7395608
  15.6303453  73.5113525  19.4695568  15.5881858  74.6716928  18.4985697
 102.8227450  89.1268063   5.2035749 103.4376707  89.7455025   5.5976808
 102.4394002  89.6054459   4.4685987  34.2604899  42.2977304  55.3633690
  35.1411510  42.5450850  55.0814438  34.2383027  42.5126791  56.2958574
  15.0737202  73.2777214  53.4446764  15.2822721  72.8045416  52.6391745
  14.7770452  72.5991488  54.0511036  25.7535291  47.8397751  27.1851969
  25.6961989  46.8957615  27.3327589  26.5309453  47.9498386  26.6377091
  16.6662192  55.6012297  25.8290958  15.8748829  55.2464962  26.2342906
  16.4156532  56.4796114  25.5429363  12.0159972  64.0467453  10.1239669
  12.9297531  64.3029642  10.2489984  11.9718754  63.7534237   9.2138863
  37.6607013  70.9814930  13.8822961  37.1888995  70.9072351  14.7118258
  38.3897328  71.5716028  14.0733886  13.7116086  63.9337587  53.1570768
  13.0261159  64.2102814  52.5489140  13.2383716  63.5233593  53.8808537
  12.1116328  69.4221878  26.2194371  11.3720524  69.8688316  26.6314602
  12.6855171  70.1298523  25.9260082  15.9169257  69.7555399  36.6363025
  15.8634126  68.8443708  36.9246435  15.2860940  70.2186298  37.1875095
  54.1355181  38.6166549  18.1130993  54.0712118  39.0986705  18.9375734
  54.2742205  39.2932010  17.4503183 116.1131184  48.8885880  38.1565309
 116.4175541  48.7951231  39.0592027 116.7637659  48.4191465  37.6345062
 113.4984239  49.1804171  50.1852179 114.2309653  49.4814682  50.7227898
 113.7054508  49.4897985  49.3033695 102.1175017  66.6754389  12.9585576
 101.2817325  66.2135267  13.0245721 102.2268881  66.8399954  12.0219755
  39.2019057  44.9703455  45.5531168  38.5999656  45.2572727  46.2398291
  39.0626073  44.0253067  45.4920292  41.2030363  57.6610565  12.4399424
  41.4147043  58.5186052  12.8087854  41.8767500  57.5128508  11.7763317
   6.4057910  69.6439981  44.1341352   6.0655087  70.1415825  44.8776674
   6.1473882  70.1538467  43.3663368   7.6617509  45.6222200  70.6942701
   7.3211038  46.4879179  70.4689789   6.9762754  45.0150919  70.4154301
  42.8371191  52.1995258  40.1626348  42.6424456  52.9783869  40.6838942
  43.7510920  52.3092270  39.9002385  99.3109145  51.8130922  43.9685869
  99.2375364  51.3167048  43.1534529  99.0546991  52.7040577  43.7303400
  22.2947526  82.2979164  49.7296715  23.2487559  82.2472095  49.6701956
  21.9915509  82.1687794  48.8309908   8.3740938  60.3210020  45.1273155
   7.7616674  59.8923397  44.5294714   8.8232243  59.5996332  45.5679369
  77.5281560  86.9076151  91.1036536  76.9824183  86.6626782  90.3563860
  78.4123623  86.6408700  90.8521384  14.9911880  55.7176781  11.1419451
  14.3021190  56.0654879  11.7080212  15.7269013  55.5552101  11.7323363
  -0.1227804  69.8782825  37.3102164   0.2217257  69.4598293  36.5212631
   0.3130001  69.4246435  38.0316997  94.8647799  51.1324120  35.4152036
  95.5430808  51.3294554  36.0612011  95.3436579  50.7804966  34.6648288
 114.9318749  36.2413335  48.8647985 114.3373527  36.1426544  49.6084642
 114.7803073  35.4608512  48.3317804  18.1658041  49.5428514  55.0657940
  19.1227233  49.5635509  55.0553513  17.9488015  48.7013292  55.4670191
  19.5770562  29.6343279  21.3383436  18.6936080  29.9697971  21.4907002
  19.6559465  29.5914865  20.3853607 116.2534438  53.7767744  69.3447638
 115.5261093  54.1873407  69.8123693 116.3549111  54.3021059  68.5510588
 108.4567948  47.4834299  48.2070303 108.1965562  46.6572523  48.6143827
 108.0933758  47.4393272  47.3226023  55.0810170 106.3963599  75.3532213
  54.4757724 106.7606015  75.9991616  55.4836249 105.6496662  75.7965964
 114.6397695  59.9268961  12.8591156 115.2956079  60.4732466  12.4259734
 114.6062910  59.1290474  12.3313427   4.6855646  95.4172611  27.6400042
   5.3606343  95.7004070  27.0232868   4.9114096  94.5093060  27.8420997
  30.8764505  24.2823815  32.4573827  30.3648257  24.5638657  33.2158279
  30.5228543  24.7911549  31.7277575  52.3981392  98.4370083  76.0249513
  52.1701169  97.5517029  76.3086289  51.6297936  98.9641041  76.2441450
 108.6625846  37.8871441  36.6247773 108.6652233  38.5152411  37.3470807
 108.5650589  37.0346594  37.0490313   9.2308545  75.0569248  33.3688378
   9.8997790  74.4226313  33.1110740   9.7243690  75.8408785  33.6098552
  97.8761580  66.8981886  36.3727570  98.2260170  67.2095633  37.2075462
  97.1993997  66.2669420  36.6172075 115.9004359  45.2061176  69.5228386
 115.4214694  45.1632404  68.6952019 116.7370917  45.6113052  69.2946672
   3.5223660  43.0952692  31.0487485   3.9106897  43.9176702  30.7502604
   3.0910352  43.3194447  31.8733287  14.9510479  56.4172268  39.6138430
  14.9907470  56.6034555  38.6757755  15.1880598  55.4925442  39.6846962
 108.4758898  97.6992321   6.4990824 107.6196887  97.4406338   6.8400812
 108.2773908  98.3279037   5.8051038  25.6243443  60.6804132  15.5756652
  25.7311177  59.8736238  15.0717580  24.6839380  60.7337093  15.7460368
 109.1871103  75.9041357  14.3264782 108.6584028  76.3400173  14.9948394
 108.6866256  75.1207066  14.0984750  20.6808066  35.0579691  18.0456960
  20.0697398  34.7191834  18.6999536  20.6543088  34.4146466  17.3374104
 113.5207426  46.1883497  30.0331807 113.5641565  45.2573586  29.8149920
 112.6873841  46.2878752  30.4934406 108.6631157  22.6965690  43.9307117
 108.0873128  21.9965577  44.2383909 108.0835815  23.4493518  43.8137007
  30.0169301  40.3184938  46.6015673  30.0423074  41.2464237  46.8350983
  29.3845916  40.2691412  45.8846712  57.9911555   4.2948962  50.1914883
  58.0665005   3.4078551  50.5432081  57.9498066   4.1737128  49.2428875
  30.8747673  86.3693428  10.5976415  31.4494967  87.0596313  10.2668500
  30.1484632  86.3434219   9.9747097  27.0496345  63.3493805  19.0804279
  26.8524551  63.1358242  19.9924290  27.8496552  63.8730621  19.1246414
  12.9404020  62.4924326  13.4330261  13.3172119  61.6533995  13.6981142
  12.2741854  62.6757622  14.0954292   9.3247640  56.5651608  33.9931560
   9.1578221  55.9331417  34.6923780   9.7738010  57.2901821  34.4278288
  80.9674275  87.9945201  87.9782486  81.7286026  87.5870532  88.3915514
  80.3263008  87.2873253  87.9070914 112.0953347  77.6045942  11.8385589
 111.9567021  78.4340763  12.2956896 112.1837135  77.8504562  10.9177053
  46.3632102  17.3347998  63.9791584  46.8058295  17.5235415  64.8066235
  47.0086737  16.8463660  63.4682369  11.2579679  66.7687416   8.2230377
  10.5639672  66.8449354   7.5682175  10.7952178  66.7425203   9.0605378
  11.9705832  66.9809437  67.2478151  12.8057098  66.9618225  66.7804480
  11.9926894  67.7989674  67.7443838   6.6321921  78.7111139  51.2112570
   6.3946408  79.6313667  51.3250160   7.5827909  78.6936665  51.3221121
  28.3758497  81.1573219   4.9876767  27.6948309  81.6357422   4.5148537
  28.9202070  81.8402386   5.3795022  88.1950570   1.4781804  73.9718133
  87.4115170   0.9365172  74.0661412  87.9332519   2.3376460  74.3019873
  27.3121428  79.2783117  30.8548665  26.9483566  79.8497677  30.1786065
  26.5892601  79.1416025  31.4672232  13.8470697  75.9262085  46.5000248
  14.2829263  76.7742729  46.4160442  13.4853482  75.9295368  47.3862410
  24.8855567  74.8418999  21.9881439  24.1444182  75.0564766  22.5546265
  25.5255556  74.4375467  22.5739169  21.4839053  56.5586662  12.4921155
  20.7403612  56.0636139  12.1481764  21.4589643  57.3892832  12.0170498
   2.5813594  73.6693430  34.0528440   1.7330952  73.9143610  33.6831880
   3.0153000  74.5038462  34.2303991   2.7128294  25.3939557  13.9927173
   1.8106759  25.3415179  13.6771214   2.8128770  26.3007355  14.2824960
  10.5380571  83.1929874  38.1875801   9.9496019  83.4391403  37.4738860
  10.0135887  82.6152229  38.7419701  60.5636252  14.8729945  24.2789292
  61.1078395  14.9521971  23.4954810  59.7575797  15.3399993  24.0588617
 112.7835180 103.9059353  36.9819856 112.7248623 103.1090355  37.5089955
 113.6389708 103.8491440  36.5563011  17.4813104  86.1041260  48.2938004
  17.0519531  85.6199455  48.9991093  18.2386684  85.5670261  48.0610800
   5.5020821  84.2000294  38.2913256   6.2967193  83.9453125  37.8223896
   5.6913614  85.0771809  38.6245108   5.9742337  81.2626934  48.1534815
   5.5318034  80.5315590  48.5846710   5.2725798  81.8815708  47.9512215
   1.9872010  53.7719822  26.7454386   1.9333681  54.4470453  27.4219179
   1.3085094  53.1401777  26.9830060  23.2081652 102.9108334  29.9690890
  24.1481972 103.0335522  29.8367548  23.1419468 102.1088696  30.4874563
  17.4538589  48.4181595  72.6076794  16.7249310  48.6849308  72.0475674
  17.1524465  48.6028528  73.4972143  13.1852055  74.1414261  27.6374292
  12.5129950  73.9895916  26.9731164  12.7087736  74.1287184  28.4675407
 113.2785766  59.5076942   9.5545852 112.4793430  59.2372847   9.1025507
 113.8967242  58.7943697   9.3955427   4.5669240  73.4793520  15.6270444
   5.0490606  72.7084684  15.3278506   3.6971253  73.1467724  15.8485699
   4.0991437  96.2551308   5.6594157   3.5725656  95.5723667   5.2437490
   3.9561898  96.1300182   6.5975749  78.5170002  35.0067372  88.7578296
  78.1602580  34.9649758  87.8705740  78.9794884  35.8441491  88.7908506
  16.3382113  81.4103699  32.9721522  16.6605484  81.9320011  33.7071586
  17.0939875  81.3221073  32.3914266  10.4308891  97.8949356  54.1503286
  10.1209581  98.4444809  54.8701715  11.3472927  97.7171898  54.3620920
  56.2907219  37.8028297   3.7578079  57.1879101  38.1003189   3.9087474
  55.8472109  37.9454947   4.5939770  15.6301057  49.3464565   5.9758162
  16.0359323  50.2070856   5.8716333  14.8218310  49.5196295   6.4584482
  37.0179629  90.6595325   3.9882177  36.3537955  90.1679039   4.4713446
  36.8812704  91.5695286   4.2517814  53.0209483   3.3022929  49.4910431
  52.6096739   3.5679675  50.3135443  53.5472943   4.0584040  49.2312670
  37.9679275  95.3497124  33.4339213  37.3241925  95.2459621  32.7331519
  38.5883832  95.9952831  33.0955386 112.6361071  94.3758583   6.5134239
 111.7338498  94.6875381   6.4425999 113.1694617  95.1671124   6.4380133
  18.1195223  94.2577648  19.2975807  18.6520779  93.4878159  19.4970453
  17.2659004  93.9013577  19.0515387  58.3893872  21.9462056  89.1481489
  57.8148139  22.0756907  89.9026882  58.2644154  21.0284419  88.9066428
 111.2735637  88.8285637  39.8150349 110.5380460  88.4909534  40.3261805
 111.9799851  88.9335346  40.4523563   5.0921166  59.4338512   3.6905774
   5.4902536  58.6455250   4.0597075   5.6458485  59.6534967   2.9413316
  41.6974258  79.3139791  16.5117800  42.3758888  78.9793730  15.9253013
  41.4606762  80.1650715  16.1432290  34.8164797  98.5008240   9.5545167
  34.2726851  98.3455372   8.7822455  34.8262048  97.6608658  10.0134373
  10.1079631  56.5122461  37.0097804  11.0383534  56.7371178  37.0161033
  10.0904894  55.5696917  36.8438840  23.0797005  66.9398975  52.4742794
  22.5385976  66.1701584  52.2983837  22.6036310  67.4171019  53.1538868
  32.7613711  88.3859825  16.9225681  33.5238814  88.9266968  16.7165697
  32.9743147  87.9822254  17.7639163   9.3638647  51.5796995  36.0457087
   8.9402425  50.7965565  35.6943345   8.8488632  51.8031740  36.8209934
  19.2888784  90.8051777  43.9415741  20.0555444  90.3080273  44.2266941
  19.4215024  91.6801167  44.3064547  99.2874970  78.2458496  45.3890800
  98.8826575  77.5192404  45.8627653  99.2009356  78.0078316  44.4659948
  61.9846964  71.6823626  16.2004328  62.4376392  70.9042978  16.5255332
  61.4910793  72.0047474  16.9545174  77.2343147 107.9895586  73.8569933
  77.2993672 108.8169331  74.3339139  78.1385290 107.7718300  73.6306745
   6.1348997  24.8483987  93.9747453   6.9867884  25.0162931  94.3776385
   5.5273472  24.7951932  94.7125029   9.1500968  62.9591799   8.0736220
   9.7634292  63.1459665   7.3628724   9.4326031  63.5282946   8.7895346
   7.3346215  66.3437796  37.0798779   7.8977621  66.8873644  37.6308942
   7.0816076  66.9173622  36.3565397  18.6550093  68.7445498  29.2333126
  18.7067628  69.6845722  29.0603518  18.0189145  68.4185410  28.5966539
  24.6698833  91.1571884  29.3767715  24.7900295  90.8839417  30.2862406
  25.4824162  90.9010601  28.9403987 113.1977262  88.8170815  23.8061929
 112.7781217  87.9801369  24.0054011 112.5145384  89.4698811  23.9589524
 110.4463436  78.4015179  44.9700499 110.2397587  79.0268135  44.2753839
 109.9195238  78.6891651  45.7156706 115.0920633 102.0875835  28.2456255
 114.3914643 101.5920162  27.8215885 115.0433168 102.9577637  27.8498530
 106.0371794  32.0686698   9.7720516 106.6659262  32.7800179   9.6500158
 105.3129127  32.2858500   9.1851085   2.4714556  85.0776863  10.4335153
   1.6246690  84.9824238  10.8695316   3.1045818  84.7292042  11.0611653
 101.4004173  63.7068176  54.3674135 101.2752285  63.5648584  55.3057146
 101.8319358  62.9096031  54.0600395  72.0296801  12.1675444  23.4111881
  71.4804472  12.8620482  23.0475426  71.7697037  11.3808490  22.9318523
 113.3369162  81.6692162  41.9610071 112.6947301  82.0426464  42.5646448
 114.1123303  82.2207165  42.0649576  31.0519791  78.1572199  31.9503593
  30.4561949  78.9004183  32.0448589  30.6603169  77.6225853  31.2597060
  12.4905360  73.1691790  13.1605065  12.3802042  72.9126692  14.0760732
  13.3090508  73.6652660  13.1477273  81.2403454  40.1664305  17.3912692
  81.2341512  40.8422518  18.0691040  82.1615184  40.0826598  17.1449840
 115.7182583  52.4941349  37.1129704 114.9344586  51.9592619  37.2386789
 115.8672007  52.4822950  36.1675024   1.9852783  85.4861832  56.1780787
   2.7566022  84.9202156  56.1468601   2.2007400  86.1487007  56.8344927
  98.4387364  63.6522007  29.9422646  98.9356007  63.8609552  30.7333279
  97.6508727  63.2133818  30.2631068 115.4841042   4.5969100  87.9254347
 114.8546768   5.2791925  88.1589710 115.6615425   4.7426505  86.9961840
 115.1316885  56.0475683  26.9013238 114.8691164  56.4578056  26.0773134
 114.6656311  55.2115583  26.9118452  13.7202311  67.6829052  11.5039372
  14.1495597  66.8471909  11.3209343  13.3932149  67.9755163  10.6532490
   7.3706657  77.5450182  32.5010204   6.7439604  77.2008514  31.8646073
   7.0710999  77.2007513  33.3424306 109.4901039 100.6577873  66.9068289
 109.2506882 100.3101158  66.0477352 108.8612952 101.3621807  67.0638657
  30.6165409  74.2785788  29.8676372  29.6842408  74.4731331  29.9635339
  30.8038306  74.4523573  28.9451647  17.8486907  55.2178335  42.2901201
  18.1610548  54.3201685  42.4035120  17.5353074  55.2500057  41.3862467
   2.5212246  87.1142197   2.2605556   2.4112946  88.0601120   2.1633817
   1.9202942  86.7360592   1.6186015  13.4515810  83.6763096   3.5825977
  14.3947148  83.8062668   3.6818036  13.3736110  82.9520226   2.9616708
  12.1100593  74.6438551  35.4478121  12.6775110  75.0452566  36.1059213
  12.4958932  74.9004698  34.6102500  17.0136106  85.3376961   8.4279007
  16.4222288  84.7529411   8.9017797  16.8404531  85.1562691   7.5041401
 108.8850733  63.0550575  38.3223987 108.2154848  62.3770809  38.2316756
 109.1410550  63.2607126  37.4232817 103.4203293  84.0685081  93.6004543
 102.7284159  84.2754936  92.9722500 104.2064359  84.4721603  93.2325745
 108.6625059  49.6084929  24.7648644 108.9272436  49.3151569  23.8930273
 108.0903192  48.9125919  25.0882196   2.8477657  59.6893787  32.5823689
   2.7140555  60.6302595  32.6968098   3.5714525  59.6243477  31.9592476
  98.8310613  85.3763580  83.0507946  98.9799215  86.0515213  83.7127781
  98.6721482  84.5780277  83.5544205   9.4722950  42.5610924  35.0449657
   8.6328292  42.2102833  34.7475410   9.9559575  41.7951202  35.3541327
 109.9058302  96.8853664  53.6434269 109.3846168  96.0880756  53.7376881
 110.6336488  96.6301060  53.0765486  15.5000162 107.2883606  33.2963419
  16.3880932 107.1800232  33.6366534  15.5760801 107.9871655  32.6466370
  16.7009640  94.1124058  24.8821545  16.7917931  93.8051891  23.9801574
  17.5661016  93.9782143  25.2691460  21.6443348  62.9440832  26.5856934
  22.3528528  62.8426743  25.9501243  22.0598316  62.7901363  27.4341607
   6.1728221  81.8981361  27.5084734   6.7693996  81.9609261  26.7625618
   5.6269860  81.1359596  27.3151159  14.1134918  93.7019730  48.2318783
  14.2653167  92.8858376  48.7084341  14.2792547  93.4788799  47.3159170
  32.7274013  72.8572035   4.3854833  32.0632410  73.3122015   3.8677034
  32.8158140  73.3852959   5.1789153  15.6128633  81.3473892  15.6804097
  16.3628006  81.8453598  15.3550661  15.1685345  81.9474506  16.2793434
  90.7779730  53.6389680  93.6983645  91.4173985  52.9333253  93.6012147
  90.8335162  54.1272874  92.8769667   8.2306105  62.0876217  20.2401948
   8.3424878  63.0001450  19.9737132   7.3222739  62.0345449  20.5374146
  11.5519202  60.0390482  37.8389597  11.6774678  59.1788483  37.4383044
  10.6741071  60.0005817  38.2186890  43.9368057  95.1100540  36.8986797
  44.4259548  95.9247589  36.7837548  43.1735659  95.2065563  36.3291335
 113.7909134  93.6849976  30.8756042 113.3770641  92.8392029  30.7036138
 113.5475539  94.2276478  30.1255751  97.2776617   2.6723624  23.5110593
  97.4565376   2.0796443  22.7810407  96.9483818   3.4699870  23.0968189
  70.8473052  12.4184275  37.5135326  69.9831546  12.8300429  37.5209475
  70.8793915  11.9437743  36.6829300 105.5054035  84.5503616  21.8990517
 104.9252357  85.0521851  21.3264990 105.7119646  83.7611103  21.3984108
  30.3817558  98.9317703  24.3584943  30.5193472  99.6132469  25.0164366
  30.2055430  98.1401062  24.8668742 112.7197941  92.5940037  24.0389824
 112.1987252  91.8114662  24.2188787 113.3564790  92.3120308  23.3822036
  37.8589043  18.5416175  46.9984865  37.4470906  17.6776076  47.0103121
  37.1542669  19.1460086  47.2317839  62.7332783  65.5891228  25.2762222
  61.8881893  65.1811504  25.4649377  62.6497173  66.4806461  25.6145000
  27.8246355  40.5614805  45.0199413  27.6216292  41.4078331  44.6215677
  27.4621868  39.9173594  44.4116879  22.7347112  92.2526264  31.5965724
  22.4281049  92.9215240  32.2087789  23.4050560  92.6943016  31.0752344
  18.5260987  72.6407385  18.6373210  18.6470187  72.1936274  19.4749975
  17.6264930  72.9663754  18.6673045  24.8333478 101.6268253  32.8733611
  24.8842764 101.2776375  33.7631416  25.1526856 102.5259018  32.9502559
  29.1834760  93.6598778  12.3899102  29.9591279  93.2369614  12.0214808
  28.6682343  92.9399395  12.7538478  91.0049152  88.8362122  24.6116829
  90.6088829  89.0599918  25.4538941  91.8901825  88.5468674  24.8326206
  10.5064118  89.0650654  37.6206565  11.3517594  88.6304092  37.5079894
  10.1158714  88.6356640  38.3817935  46.7281723  86.3806152  17.5948238
  46.2258339  85.9535313  18.2887220  47.1719074  85.6624413  17.1436465
  34.8485065 103.0451679  23.6918235  35.0834537 103.6022663  22.9497480
  34.3317771 103.6130142  24.2634654 100.0257028  15.4238558  45.4495907
  99.7891105  16.1964083  44.9363422  99.4205202  14.7443629  45.1524687
  86.7540849  11.8772937  21.8041492  86.4890159  11.3210536  22.5366569
  86.3568033  11.4671183  21.0359335  29.6665835  89.8991013  33.1768274
  29.6620464  90.7117176  32.6709938  30.5553508  89.5585728  33.0750275
  66.1482477  89.3997669  64.0861559  65.9147024  88.9057827  63.3002377
  65.3263092  89.7990704  64.3711329  25.9662318  82.6332188  37.3245096
  26.4243364  83.4696102  37.4071145  25.8834410  82.4976826  36.3805771
  69.8832273  98.3772469   4.7300959  70.0289202  98.3034897   3.7869281
  69.4088459  97.5789547   4.9623191  21.6916156  89.5520306  30.9858084
  21.4887786  89.0440273  31.7713165  22.0384312  90.3797245  31.3187838
  10.6528437  85.5445194  22.0286655  10.2941370  85.8220005  21.1857152
   9.9772340  85.7784081  22.6651263   1.7489909  96.3563728  36.3902354
   2.0377588  95.5873299  36.8815732   1.5755889  97.0175076  37.0603585
  20.7187557  66.4437962  16.1993444  20.8017397  67.1480894  15.5564499
  20.1876545  65.7796955  15.7598710  15.7226610  84.2931271  58.2624674
  15.9152174  85.2287197  58.2007313  15.5238175  84.1500664  59.1877937
  14.7955406  68.7402678  28.3573961  13.9168024  68.9520979  28.0424690
  14.8996866  69.2675638  29.1494489   5.3559572  71.9389915  51.6309834
   5.0112647  71.0770798  51.3974762   5.0046670  72.1086645  52.5050735
 113.3993076 101.4678288  23.3626723 113.7131091 101.9352722  22.5885510
 113.9937096 100.7226276  23.4498000   7.0041543  68.9486742  65.1011562
   6.7554617  69.0511322  66.0197878   7.9337406  68.7220621  65.1285219
  12.6226687  86.9796371  40.2840090  12.5937927  86.9242096  41.2391663
  11.7459774  86.7183018  40.0023174  40.3400230 101.9880676   8.7168604
  40.7076025 102.6607800   8.1436431  39.4098115 101.9643021   8.4924197
  74.9142040   2.4886275  34.3821669  75.7434500   2.8558207  34.0759730
  74.2928685   3.2139254  34.3179631  49.6157385   9.5633269  47.9725361
  50.1799871   9.5269919  48.7448978  49.5456148  10.4964019  47.7708244
   5.2145118 108.6232567  44.3568993   4.8314396 107.7508450  44.2653894
   6.0164249 108.4811783  44.8598719   1.6600956  96.0573483  22.1946406
   1.7228116  96.5684891  23.0015063   2.1356060  96.5754986  21.5453005
  32.1581841  90.2306080  25.0721192  31.5735197  89.7161388  25.6286478
  32.6643109  90.7639885  25.6849551   1.5530296  97.4271297  47.0340919
   2.3003110  98.0249786  47.0535231   0.8013556  97.9759312  47.2577572
  15.4068160  96.9169712  37.4166512  15.9735250  96.1517906  37.3188591
  15.0811017  97.0882893  36.5330243  19.2251480  76.6042042  13.5954070
  20.0496507  76.2732887  13.9516687  19.1011906  77.4505901  14.0249407
  46.7376757  64.4969559   5.7539523  46.2255144  63.6897755   5.8028591
  46.4570808  64.9095249   4.9370760  50.5385542 106.2418270  38.0722094
  51.4517927 106.1140060  38.3289027  50.0782251 106.4012432  38.8961720
  52.5440979  98.8989925  15.7909703  51.6149712  98.8532925  15.5654252
  52.9039764  98.0631161  15.4942846   7.9635416  38.8645501  91.2467867
   8.8447510  38.8137097  90.8764985   7.7355276  37.9569192  91.4479112
  31.6333294 105.0002480  11.0949743  31.4921069 104.3911362  11.8197310
  32.1465707 104.5013905  10.4593968  90.9913052  53.8646932  89.9796843
  91.2621237  52.9899259  90.2583745  91.3368941  54.4488092  90.6546733
  16.5637147  81.5319633  54.6976042  15.8164072  81.0901356  54.2944288
  16.9847584  81.9979000  53.9752007  65.1711178  74.0606642   8.1005239
  64.8250484  73.6639881   7.3010778  64.4193935  74.5055580   8.4919554
  62.4674463  94.5054436   8.7529892  62.4829102  94.6250916   7.8034222
  62.0774651  93.6404324   8.8790840   1.3871326  81.4171982  21.0114837
   1.9629456  81.7991161  20.3490543   1.8054020  81.6322899  21.8451619
  44.4557714  95.3967190  50.2887821  44.3004465  96.1124420  50.9050941
  44.9235392  95.8051586  49.5603561  67.2521830  83.5685730  21.7561984
  66.4710999  83.8599491  21.2858319  66.9170570  83.2100868  22.5780296
  56.6368532  96.6702080   3.1769872  55.7270002  96.8366814   3.4233233
  57.0348310  96.3013458   3.9655241  24.7643232  64.2447805   9.4182473
  23.9302468  64.4483757   9.8414487  24.9279332  64.9901342   8.8403952
  84.9036850   2.0249320  31.4331627  85.3784813   2.8442336  31.2933731
  85.3086818   1.4066268  30.8249593  16.7048120  86.6856766   2.5060469
  17.2561765  86.1178780   1.9676913  15.8224237  86.3288689   2.4045226
  16.7824566  79.3785191  66.4348221  17.3291457  79.2156315  65.6661654
  16.0875893  79.9549007  66.1167336   5.3104669  63.6239529  25.0531459
   5.3688937  64.4928074  24.6557713   5.8086133  63.6988449  25.8670712
 107.3675657  35.8628507  72.3773676 107.2001196  35.6547589  71.4581901
 106.8414379  36.6445775  72.5456553 107.4323274  51.1284680  63.5333735
 107.6118756  50.2401967  63.2251912 107.5513507  51.0815091  64.4819838
  23.5652256  76.8317223  24.3736649  24.4766307  76.5551233  24.4688749
  23.6127496  77.6431894  23.8682008  42.4105644  37.8224134  42.9800177
  42.4505758  37.2717524  42.1980953  41.7386723  37.4143791  43.5261917
   9.1394877  71.3933086  41.3376427   9.3379176  71.1719942  40.4277658
   9.8164266  72.0236540  41.5839195  33.6732793  82.2894192  19.9434972
  34.1784549  81.5546036  19.5955324  34.3104362  82.8056622  20.4372168
  92.6402153   0.8686209  15.2629793  92.8782238  -0.0095510  15.5603015
  92.1589864   0.7234622  14.4483769  25.0628710  78.2433176   3.4774250
  25.3480005  78.7064791   4.2650887  25.5393171  78.6680841   2.7641195
  33.6099362  95.9875965  30.5481815  33.7045860  95.7870770  31.4793468
  32.6671028  95.9448147  30.3885984  75.3898802  10.6040521  93.8849312
  75.0484003  10.9840865  93.0754894  76.0554268  11.2258382  94.1793193
  28.0581784 101.6709042  17.9107821  27.8435421 100.8562660  17.4563444
  27.7474117 102.3610687  17.3248363  61.2059821  19.8242522  20.9302092
  61.1594595  20.5896998  21.5030551  60.3761734  19.3685389  21.0715365
  44.1258907  89.0921879   5.8894897  43.8792181  89.9937630   5.6832469
  44.8187256  89.1772842   6.5444481  79.5792259   2.7119113  49.1378164
  80.1132406   3.0777884  48.4326982  78.7996305   2.3738814  48.6971331
  19.1103673 109.4117832  18.2232153  19.5167804 108.5486031  18.3005536
  18.2594121 109.3150330  18.6507010  32.4609184  96.9158268  50.7801676
  32.0161271  96.6027260  49.9925423  32.4584937  96.1633301  51.3717556
  25.4038858  91.7552280  35.3624988  25.6582904  90.8342171  35.3054380
  26.1822128  92.1982098  35.7004476  94.0608419   2.9278517  21.0166883
  93.5211576   2.7861262  21.7944336  94.7505153   2.2671176  21.0800838
   3.5331768  79.9772215   3.5392657   2.6954883  79.5152617   3.5724655
   3.4291992  80.7060146   4.1510534  57.1561826   7.1062422  66.1204433
  57.9998840   7.3030902  65.7134438  56.6192855   7.8788996  65.9444666
 107.0939060  93.5244465  22.0408082 107.1297052  93.7411499  21.1091471
 106.8572565  94.3471050  22.4691367 107.1329428  40.3490682  79.5545643
 108.0286528  40.0247331  79.6480578 106.7161990  40.1464505  80.3921217
   2.8452381  74.8595953  28.7828708   3.3625394  74.6980143  29.5718718
   3.4796011  75.1811695  28.1422424  39.6956372  83.3274364  13.7347782
  38.9224315  82.7873135  13.8980210  39.5169616  83.7544537  12.8969479
  10.4596174  86.9076920  46.8502522  10.7031393  87.3453522  47.6659584
  11.0334253  87.2957706  46.1896706 102.7502788   8.6086131  22.6241636
 103.4557308   7.9741908  22.4973679 102.1450056   8.4413291  21.9017458
  58.4994936  70.3526974   4.0812036  58.5398340  71.0475492   3.4241021
  58.7668943  70.7778215   4.8960650  35.2245522  83.5664558  58.5893202
  35.8619714  83.8067436  59.2617702  34.6925998  84.3534565  58.4714127
   4.8876569 104.6635818  47.6241493   4.9082303 104.4146919  48.5481977
   5.1330805 105.5887794  47.6197815  33.6249614  93.6282730  17.6880538
  34.1738820  92.8658867  17.8716016  32.8488827  93.2670784  17.2597122
  59.4689405 108.2661814  78.9908868  60.3973090 108.4570975  78.8570326
  59.3246495 108.4214348  79.9243253  61.9231892 108.8004017  54.4540548
  62.2973824 108.0421448  54.9026632  62.6764441 109.3561172  54.2540026
  21.5446663  90.5073738  22.9033542  22.4538183  90.3796577  22.6324987
  21.5128660  90.1742268  23.8001418  26.1570358  77.9518032  24.2172670
  27.0340824  78.2470798  23.9726639  25.6202412  78.1301117  23.4450698
  84.6012129   8.9223242  23.0755401  83.7321008   8.9209891  22.6744437
  84.5157922   8.3448649  23.8341379  40.2039385  68.7793684   7.0697480
  41.0446644  68.5850525   7.4840635  39.9473262  69.6263838   7.4343693
  51.6519309   5.2070857  26.6577840  51.1304964   5.4194117  25.8836699
  51.6793812   4.2503978  26.6730499  43.3661222 107.3075008  44.3919992
  43.2450676 107.7172852  43.5354662  42.4870777 107.0321178  44.6521473
 103.2373109  96.3334179   7.6741141 102.6568319  96.3484478   8.4350675
 102.8762629  96.9952679   7.0843428  13.4977388 103.3196449  63.8579988
  13.4449124 103.7964153  64.6863270  13.9855504 102.5239182  64.0703392
  78.2135094  11.5945864  31.5634847  77.7155126  10.9398127  31.0740948
  77.8260411  12.4313403  31.3066983  83.9948429   1.0805655  20.5038524
  84.7474827   1.4902926  20.0773668  84.1086353   1.2793875  21.4332342
  28.9805865  70.7609940  19.3050277  29.8810601  70.6948519  18.9872146
  28.4909534  71.1190701  18.5645747  22.1947670  84.8344040  63.9073181
  21.2721610  84.8879528  64.1566420  22.6012039  84.3173790  64.6028233
 106.9707108  47.1511502  85.3044116 106.7103148  46.4880509  84.6650928
 106.5538526  47.9563565  84.9976498  42.3102236  77.1957016   9.2315078
  42.3266220  76.8463230  10.1225162  42.9704475  77.8887606   9.2338121
  30.4771256 100.1446629  17.5850475  29.8118734 100.0509357  18.2668710
  30.5758095  99.2636776  17.2239828  94.8188032   4.7356940  24.5695519
  95.5363001   5.0571395  24.0235639  94.2959846   5.5143500  24.7608280
  67.8104210  91.2212563  15.2884722  67.9731798  91.0481453  16.2157130
  66.8825483  91.0202217  15.1665568  31.1865425 109.6112919  40.6584597
  31.5941310 110.2759743  41.2137127  30.7070112 109.0508175  41.2685013
 114.2259451  88.0434608   0.9180173 113.8944878  87.1743774   0.6920493
 114.8166414  87.8902340   1.6554658  18.0291522  81.1611748  18.6735976
  18.1956887  80.5485725  19.3899858  17.6909220  81.9465256  19.1037798
  26.8198991  55.8903313  34.6679568  27.2464323  55.6790066  35.4984045
  27.1014738  56.7845583  34.4748187 104.6368528  44.3385453  85.9681636
 103.8648988  43.9673467  85.5409276 104.3944097  44.3966813  86.8923235
  58.3775091  91.4517975  22.3944283  58.2975578  92.3743820  22.1522021
  57.7614689  90.9987545  21.8186879  20.2105165  96.9065857  54.5946693
  20.5903268  96.1114311  54.2208862  20.6538105  97.0108795  55.4365969
  44.4752169 102.3875713  22.1304154  44.7552204 102.0827866  21.2673187
  43.6321115 102.8123951  21.9725037  95.7171310  15.1422925  93.9214439
  95.7341696  16.0855145  94.0835456  95.0170697  14.8148246  94.4861661
   5.7315665  88.8566875  19.8690021   6.3941294  89.0691948  20.5263305
   6.2117726  88.8414764  19.0411103  14.1966689  89.8175526  40.2797222
  13.5233104  89.1848946  40.5298519  13.8549900  90.6609631  40.5765963
  11.7114722  57.2273870  89.9913925  11.3695227  58.0512471  90.3386098
  10.9997784  56.6000791  90.1186692 114.8989590  72.8941631   3.5514268
 115.8439103  72.9738522   3.4212404 114.5335453  73.6770153   3.1392953
  42.6313829  97.1373463  48.0875683  43.5222006  97.0192814  48.4173203
  42.7220154  97.7681065  47.3733139  49.9266624  73.5579777  10.9894025
  50.4311991  74.1288757  11.5688407  49.7504044  74.0957212  10.2173948
  78.8404669  10.6507922  48.3608580  79.4205202   9.9975730  48.7521029
  78.8801874  11.3960410  48.9602423  66.3890934  82.1802330   9.6714842
  66.3758278  81.3441658  10.1373696  66.3027525  81.9415283   8.7485558
  58.2924200   8.0302764  33.6274314  57.9221739   8.6360026  34.2694926
  57.7893115   8.1905413  32.8290415  24.1436243  97.2736645  62.4690676
  24.4054508  96.4681816  62.9150248  23.5460019  97.7029705  63.0812550
  37.3797441  93.9961147  49.7880745  37.6588964  94.0579605  48.8745737
  38.1784868  94.1474819  50.2933788  52.4509716 109.5208645  45.8395576
  51.9725466 110.0730038  45.2211046  51.7900896 109.2438030  46.4741516
  20.9930706  59.5930338  42.9910994  20.5427670  59.4512844  43.8237858
  21.3244867  60.4892540  43.0475664  40.6138134  88.8137722  11.0235775
  39.8875713  88.2612133  10.7346344  40.9409904  89.2187023  10.2203226
  53.9507676   1.7290736  42.6785564  53.4639515   2.4679518  43.0436563
  54.5203401   1.4414836  43.3920765  59.9835290  12.9471446  34.7177744
  60.4307331  13.4248687  35.4163599  59.6162690  12.1768904  35.1514339
  66.4287663  63.5850334   2.4977560  66.8375063  63.3345461   1.6692513
  66.7546654  62.9436636   3.1291598  43.0946779  87.0882034  22.2658300
  42.5871181  86.7451096  21.5303707  43.9882660  86.7870808  22.1013474
   3.6084822  96.3371754  68.6792946   3.7326014  95.3923035  68.7689924
   2.9523700  96.5564346  69.3408680   8.2381713  81.9935226  25.3810525
   7.7516437  82.7165127  24.9850678   9.1144538  82.0581245  25.0013328
  21.2544513  45.5160999  31.2034106  21.6944599  45.2559566  32.0127010
  21.1399865  46.4627790  31.2866640  11.8107176  93.6869717   0.6099332
  10.9394038  93.4134102   0.8966531  12.1417892  94.2245865   1.3293734
  60.9718180  67.1313667  22.8594518  60.7215977  66.8468189  21.9804454
  61.8928862  66.8831205  22.9384375  10.8195484  72.2924852   4.4006985
  10.6357181  71.3831758   4.6364778  10.0555480  72.7792406   4.7099003
  18.6988783  87.2419357  12.5152731  18.7346590  87.3914814  11.5705061
  19.1645443  87.9877377  12.8936303  44.7325134  44.9004936  29.1901922
  44.2199516  45.5857182  28.7612677  44.2018270  44.1095448  29.0952873
  42.1327400  90.5903816  12.6173401  42.7465057  90.0477028  13.1123412
  41.5471935  89.9633598  12.1928179  25.1662064  93.7559891  61.9573355
  25.7607055  94.4947720  61.8269300  24.3760920  94.1472530  62.3299837
  42.5060034 109.6164131  33.4343791  43.2626009 109.3336487  33.9480281
  41.7861414 109.6458244  34.0645885  36.6889095  79.2003727   4.5055112
  37.4624109  79.0233088   5.0408393  36.2498808  78.3530331   4.4313446
  32.1895051  78.6916685  18.2167387  32.9418015  79.2740536  18.3221543
  31.6524053  79.1132402  17.5458920  52.4586582  91.7534447  28.8887072
  52.1518469  91.4186192  28.0460978  52.5719547  90.9721565  29.4299936
  34.8530030  86.0510826  12.8959322  34.7822571  85.2153206  12.4347031
  33.9857268  86.1885452  13.2769382  43.1818492   2.5348044  57.2691107
  43.2628889   3.4631682  57.4877405  43.2748349   2.0822955  58.1074572
  31.7770563  26.6879888  94.5989610  31.2842976  26.0830350  95.1534425
  31.7152869  26.3123174  93.7207313  28.5601950 107.3631763  29.4725537
  27.7358127 107.1780014  29.9223757  28.7857342 108.2533455  29.7426677
  28.7142062 102.5590515  25.9419394  28.4599757 102.7197361  25.0332141
  29.6458077 102.7768612  25.9721112  41.7221594  98.2771492   6.3417619
  41.6889906  99.1027927   5.8586049  41.5025663  98.5174084   7.2419202
  68.9724922  80.6263447  10.8580983  69.6085644  80.2156734  11.4437461
  68.1223297  80.3258228  11.1792541  23.9107013  70.7730484  16.9013369
  23.1093001  70.5064106  17.3517752  23.7904572  71.7073536  16.7314959
  97.5764502  57.1641202  91.9139680  96.7834509  57.6769872  91.7579186
  97.4477697  56.3634248  91.4054873  14.2135680  57.2881889  26.5243459
  13.3831489  57.5435829  26.1225891  14.6426082  58.1174326  26.7353249
  39.9830484  91.9861507  27.0845056  39.3436050  91.2924385  26.9229436
  39.7064543  92.7041912  26.5151620  46.4568806  79.1931772  60.7117891
  46.1303568  79.7833300  61.3910007  46.3888979  78.3207130  61.0996294
  91.5914310   6.4012194  38.1596446  90.9109987   7.0729018  38.1139445
  91.2728990   5.7818843  38.8163018  30.7444574  19.9291278  51.1564541
  31.0484279  20.0550318  52.0553350  31.4104862  19.3715525  50.7542706
  31.5414901  12.6561404  35.8708835  31.9182379  13.5359336  35.8868861
  30.9913851  12.6168872  36.6532373 109.2444278  77.9430051  78.1229716
 110.1254011  78.2973237  78.0022257 108.7451888  78.2844396  77.3810702
  58.9184178  21.8150664  14.1013813  59.7370399  22.2098017  14.4018400
  59.1931165  21.0550547  13.5883880  69.6048154   0.1543666  16.9860756
  69.8559107   0.5239058  16.1395419  68.8106502  -0.3473901  16.8022990
  37.5456166  87.5882912  21.8974042  36.8360233  86.9463444  21.8726373
  38.3220673  87.0975494  21.6281009  47.7449942  69.5804024   1.1183709
  47.9590988  69.4890404   2.0468339  46.8214941  69.8319817   1.1091624
  89.5765842  26.4561034  32.3230457  90.2253641  27.1094275  32.0613575
  88.8022293  26.9678546  32.5569654  54.3449593 100.7283211  31.4992666
  53.5028648 100.5510235  31.9184089  54.2481089 101.6055965  31.1288023
 102.1513714  18.6422969  10.8446968 102.2950472  18.2930423   9.9651450
 101.9791664  19.5738078  10.7073379  30.9952474  81.0494137  12.4124527
  30.7953143  80.3527069  13.0376387  30.3710866  81.7445755  12.6208186
  95.4385484  11.7151499  37.5123501  95.3344310  10.8917285  37.0355177
  94.8720325  12.3328925  37.0500875  45.0495434 102.7814484  53.2165766
  44.5756578 102.0157242  52.8920460  45.7320929 102.4190617  53.7814045
  48.4249830  99.2492485  37.8507423  49.2879343  99.1983509  38.2617927
  48.6047173  99.5130825  36.9483447  23.6992884 103.4238148  21.5294290
  24.1655874 103.1122112  20.7537365  22.8854585 103.7936592  21.1871910
  13.3088470  92.2809982  27.3004675  13.3906436  91.5279961  27.8857255
  12.7054584  91.9888783  26.6172242  49.9949766  25.4380751   3.3155030
  49.2958666  25.8164168   3.8487345  49.5379759  24.9966574   2.5995880
  79.3392671  16.7690039  31.1480379  79.0028156  17.5709010  31.5480280
  79.4884933  16.1777068  31.8858242 102.7108587   9.3881083  31.6327882
 102.8025116  10.0758506  32.2922158 102.7379860   8.5720874  32.1324015
  90.2980722   6.5351535  49.3254137  89.9985326   5.9854842  50.0495529
  90.2384151   7.4290038  49.6626186  15.5336964  87.9845047  16.1692953
  14.8404217  87.3418236  16.0190761  15.3604662  88.6771297  15.5317199
  66.1128473  97.3064804   9.5852190  65.7010269  96.7320061  10.2306676
  65.6367874  97.1341419   8.7728810  33.4108996 105.1721954  70.6054735
  32.4989629 105.4321957  70.4750681  33.4113693 104.2245197  70.4707575
 100.5940975  11.2484599  78.1783915 100.8957590  11.4837599  79.0558147
  99.9370540  11.9111205  77.9652929  47.3162556  91.5868473  22.7630091
  47.1160841  90.6524754  22.7072096  46.6953850  91.9267368  23.4073877
  84.3901409   4.2540312  21.6056609  84.9286712   4.4236327  22.3786092
  84.9453987   4.5043803  20.8672571  43.3464266   0.6414176   9.0012169
  43.2470698  -0.0297403   9.6764243  42.5850056   1.2102080   9.1150111
  33.3263969 101.0478115  49.0026569  32.5402260 100.6826496  48.5966730
  34.0004969 100.3834724  48.8595295 112.7992214  11.9421435  43.4040594
 113.6268057  11.6292620  43.7693501 112.2542680  11.1578799  43.3393192
  63.8081598  92.0148659  56.4271164  64.1382456  91.9973850  57.3254347
  64.5954227  92.0160961  55.8826494  64.7185768  18.7318660  50.4583597
  65.6215919  19.0464831  50.5008459  64.2728604  19.1858817  51.1735058
  72.3740829  32.3807002   2.1255501  71.5448202  32.6556922   2.5166219
  72.6584877  33.1361819   1.6111583  37.4910140 108.3014870   4.9942350
  38.2627034 108.4345913   5.5446970  36.7583466 108.2808208   5.6098676
  18.3088481  86.6258049  83.5270786  18.1659746  87.2899818  82.8527737
  17.5398886  86.6902256  84.0934563  70.4459990   4.6006823  58.0911970
  70.2407778   5.1768256  57.3548698  71.3922061   4.6875907  58.2068396
  45.2923489 109.3118286  52.6639700  45.4716015 109.3724918  51.7256594
  44.3396711 109.3766689  52.7304983  26.1270738  95.3151131  24.8177934
  25.2561045  94.9390697  24.6903944  26.5636873  94.7103119  25.4176378
  56.3239206   8.0200339  57.4488831  55.7605315   7.6057864  56.7952585
  57.1607174   8.1427241  57.0006084  59.5379962   6.9885302  74.3840408
  59.7872056   7.2636080  73.5017347  60.3541769   6.6813327  74.7786427
  33.3989382  91.6963673  27.4548554  32.7979612  91.3140678  28.0943155
  33.1336617  92.6141644  27.3957181  91.6588987  35.7496978  15.9700656
  91.9919075  34.8630477  15.8315110  92.0285333  36.0155154  16.8120492
  21.6645265  81.0844612  47.4006367  22.3825073  80.4560757  47.4772167
  22.0177412  81.7862415  46.8538427  68.4548200   1.2073374  45.3581285
  67.8709449   0.9071398  44.6615648  68.6279906   2.1247054  45.1467514
  38.7476431  18.9277787  92.8534789  37.9317271  18.7178845  93.3078544
  39.1119276  19.6649022  93.3435595  31.6245747  87.3039150  51.1329412
  31.9480443  87.4055195  52.0280838  32.1287346  87.9377270  50.6227064
  55.1431395   5.5914260  55.9722853  54.4784023   5.4286147  56.6415024
  54.8127748   5.1446582  55.1928663  59.6270789   4.2495013  71.3309908
  59.8052777   4.9586631  70.7132816  59.9200762   3.4584952  70.8785486
  42.8524303 106.9975376  31.4933872  42.4755144 107.7985191  31.8575358
  43.3745527 106.6322803  32.2076702  60.6982374  74.1672707   8.0849779
  61.0584021  73.7561178   8.8707685  60.2891254  74.9724627   8.4020370
  76.6086615   0.8305121  36.3798213  76.4274229   1.3020564  37.1928573
  76.0991372   1.2942363  35.7153082  40.6982613 104.7036839  14.3495047
  40.0389051 105.3956509  14.4011128  40.2130032 103.9316940  14.0583205
  31.2905693 105.5888653  45.7304192  30.7158399 106.3452339  45.8479881
  31.5445638 105.3405952  46.6192865  81.3159466 106.2777328  13.8714361
  80.4336071 105.9935951  13.6327374  81.3055229 106.3134575  14.8279119
  29.2183304  82.9521942  13.6044002  29.3426585  83.8053036  14.0202916
  28.3348870  82.6873302  13.8605499  75.8251036  20.5550624  41.1907005
  76.7238964  20.4517699  40.8780766  75.3368677  20.8512641  40.4225063
 115.9134973  28.0147029  16.1968863 116.8479217  27.9298545  16.3863122
 115.4922594  27.9961062  17.0562124  16.0445439  47.1916432  70.0844794
  15.2977024  47.7900643  70.0655466  16.0613333  46.8018289  69.2104131
  47.0089865 109.3818855   7.3641628  47.4243546 109.5008945   6.5100306
  46.7286921 110.2610111   7.6187521  22.3712254 108.5182667  34.2234063
  22.1220207 109.3746281  33.8758731  21.9556880 108.4792137  35.0848222
  17.6550853  84.2428017  45.0346565  17.3553205  83.5893059  44.4027424
  16.9036245  84.3807316  45.6112957  87.1107591   2.7537776  58.0198193
  87.9675544   3.1191683  58.2403469  86.5291275   3.5130549  57.9819584
  48.7703657  99.9392414  28.1456017  48.5831928 100.6757164  27.5635219
  49.1808224 100.3385067  28.9126396  38.7488658   0.5123187  15.6629491
  38.5620615   0.5216838  16.6016972  37.8969556   0.6471587  15.2478600
  10.0205529  88.8065529  25.2182221  10.4031658  88.6644936  26.0840511
   9.3273735  88.1497765  25.1519966  95.9294904  28.6292029  42.8289557
  95.2550520  28.1489421  42.3486328  96.2148107  29.3125201  42.2224045
  53.5404576  11.4979792   8.8253850  53.9156986  11.1289073   9.6248925
  53.9995826  12.3294974   8.7069976  66.0829926  89.7103882  19.0242028
  67.0005322  89.7280025  18.7521064  65.9409046  90.5595016  19.4426060
  41.7063808  96.5754414  57.8361559  42.4891949  96.6141224  57.2866726
  40.9773684  96.5944386  57.2161436 103.9284338  36.8901396  46.3907576
 103.2819046  37.1752024  45.7450247 104.2108787  37.6979399  46.8196058
  89.7970546  10.4693938  31.8874359  89.9881614  10.4260970  32.8243637
  90.4149736  11.1160994  31.5465903  71.2745775  30.7049895  40.7199097
  71.2593330  30.0949336  39.9824595  70.6515230  30.3381301  41.3471603
  78.8297987  76.2655163  10.4717469  78.9224052  75.6043720  11.1577094
  79.2904377  75.8954668   9.7186810  71.0238637   4.4063235  39.5212007
  70.5789603   4.6833277  40.3221750  71.0347761   5.1890517  38.9703369
  10.1187407  36.8927331  88.8744986  10.6095444  36.0759587  88.9651853
   9.5829426  36.7645402  88.0917340  60.4342175 109.6548843  68.7696075
  60.1590586 109.4532681  69.6639633  61.3902140 109.6167278  68.7987900
  82.4643673   4.5443869  13.8046932  82.6124300   5.3688765  14.2678583
  83.3383478   4.2590094  13.5383296   3.6760401  12.2106505  61.0768032
   3.2386087  11.6993857  61.7576075   2.9829191  12.4170829  60.4497433
 106.3698769  91.1793041   8.2729411 105.5205059  91.3265610   8.6890054
 106.5468979  90.2490330   8.4125400  56.8046093  90.9970665  46.5840864
  55.9344721  91.1017895  46.9689608  57.1421099  91.8896103  46.5085983
  54.2589773  24.8652888  24.2987633  54.4881881  24.2381144  23.6129451
  54.9391438  24.7532035  24.9628735  36.0268378  89.5748425  45.3721571
  36.2535715  88.8793945  45.9895611  36.6504860  90.2758789  45.5614567
 115.4052987  81.9687557  50.2572107 114.7879120  81.2568378  50.4252529
 115.7561003  82.1901894  51.1198473  46.7161417  93.9021873  41.8420124
  45.9036589  94.1246986  41.3874817  47.4020147  94.3312645  41.3304424
  24.7648692  85.4821968  56.5538597  24.7099066  86.0924435  55.8184624
  24.3202186  84.6931744  56.2441015  75.7752575   4.6258975  21.6328835
  75.6365765   3.7058783  21.8577552  75.3408135   4.7337771  20.7868028
  34.6137166 102.7696991  41.6291428  34.8963523 103.6519909  41.8697977
  33.8901711 102.5788212  42.2260332  57.8326511 105.8644962  26.3023782
  57.9893780 106.0922909  27.2187734  57.4141741 106.6410255  25.9307432
  22.2960901 101.4433575  55.9266949  22.5715280 100.5415154  56.0911512
  22.3213911 101.5315437  54.9738979  77.3994793  26.9447184  54.8294163
  77.2455896  27.6409960  54.1908693  78.1690944  26.4818431  54.4982481
  39.4754148 105.2507782  74.4184160  40.0186825 104.6847248  74.9667549
  38.6679411 104.7537708  74.2872572  65.0817537  83.4659004   2.4855666
  65.8259916  83.7738991   3.0027506  65.4068089  83.4475803   1.5854347
  62.6121439   3.4799720  33.5774708  62.5096716   3.9766551  34.3892837
  63.4530438   3.7699080  33.2238269   4.7361502  89.5702839  65.1242781
   4.2394775  88.8697433  64.7014284   4.5518777  89.4648075  66.0576344
  48.5211420  97.2775555  28.3006287  48.4713697  96.9978046  27.3865747
  48.2265520  98.1882191  28.2887745  16.2057543  98.4968472  27.9725242
  15.4073370  99.0219402  27.9173756  15.9313691  97.6885033  28.4055710
  68.4816087  15.4052020  58.1825399  67.8739060  15.1955176  58.8917398
  68.0894340  15.0069476  57.4054766 104.7750248   7.2539569  34.9305511
 103.8848556   7.3729563  35.2617121 104.6616138   7.0785952  33.9964128
  38.8196015  90.3561974  57.8835583  38.5326314  89.8917294  58.6697817
  39.5359492  90.9155655  58.1838799  22.8750896  95.0137901  18.6288750
  23.7691116  95.3508282  18.6868477  22.5515509  95.3364563  17.7877784
  29.2892861  92.6341724  40.3021622  29.6745968  93.4445190  40.6354856
  28.9873409  92.1729469  41.0846806  55.1389742  90.0827122  30.5636692
  55.1272964  90.0612068  31.5205550  54.8319435  90.9613228  30.3400731
  11.4325047  77.0783710  29.6131563  10.6320465  77.3905087  30.0351381
  11.9444561  77.8714180  29.4543695  60.6744612  17.2458792  51.1190224
  61.4671029  16.8491317  50.7577181  60.9915961  17.9860736  51.6364861
  90.3371490  20.4276324  41.6545868  90.9074224  19.7450782  41.3008404
  89.4703592  20.2202655  41.3054371  42.6546669 104.5176792  53.8187695
  41.9339895 103.9592361  54.1103315  43.4173155 103.9393044  53.8097715
  51.5567732  98.0065632  26.9598913  50.6398010  97.7336884  26.9903898
  51.6009331  98.7636375  27.5439429  25.2142811  88.8123608  50.0633526
  25.3789473  89.4409084  50.7662296  24.4719291  89.1791153  49.5831108
  50.9057617 106.4120293  21.1072946  50.9172630 107.2715759  21.5283489
  51.3572216 105.8367252  21.7249012  97.0231546  30.4055930  37.7487707
  96.4087547  29.6986724  37.9462719  96.8212856  30.6532717  36.8464756
 109.7915090  30.4608489  25.5450368 110.6245197  30.9161711  25.6675529
 109.1692175  30.9513140  26.0820937  59.2904080  31.6312361  45.2683640
  58.7433351  31.5354491  46.0479593  60.0095094  32.1974993  45.5484867
  59.6167124  14.1835261   9.3387020  59.8981775  14.9736167   9.7999567
  59.8043026  14.3642474   8.4176260  81.4839519  16.9339419  37.0276523
  81.1571373  17.3622370  36.2364578  81.2895073  17.5519419  37.7322769
   7.5411648  99.4456291  36.5127015   7.5261784  98.5752296  36.9107103
   8.3505368  99.8423767  36.8347931  62.4643553   2.7681781  49.1244888
  63.0285562   2.0649482  48.8029766  62.9546775   3.5701705  48.9438391
  21.0869217 102.0576191  50.2303696  21.7210269 102.7178383  50.5101061
  20.4216385 102.5521374  49.7517395 105.7886089  19.6342993  30.8153057
 106.3753999  19.9837256  30.1446319 105.4612030  18.8151026  30.4438758
   0.8197474  21.9422484  36.1547732   1.3331007  22.7172614  35.9266162
   1.4511942  21.2230826  36.1374474  64.3107666   5.3170634   7.9326218
  64.2517079   6.2322474   7.6584101  63.6014045   5.2106906   8.5664368
  27.8234839  99.0960026  68.2743263  28.5865188  98.5597801  68.4898949
  27.8818655  99.2261028  67.3278046  51.1698103  90.9885216  42.2851038
  50.3350782  91.3724232  42.0166206  51.8279314  91.4754295  41.7890930
  33.1022263  94.2627430  33.2922292  33.6671901  94.8691559  33.7710929
  32.7993274  93.6429024  33.9557672  71.7346324  11.5487624  27.3903513
  70.8268799  11.8506861  27.4229550  72.2530497  12.3524237  27.3502755
 109.8607679 103.1892109  17.2413301 109.2886086 102.4376202  17.3961937
 110.1403888 103.4614754  18.1153536   8.6738545 104.2394924  28.0274916
   7.9056418 103.6821842  28.1519222   8.5022676 105.0086784  28.5707688
  68.4874010  65.1738644  16.6095543  69.0006685  65.8255148  16.1319184
  68.0982733  64.6278334  15.9264243  77.1077002   5.5815173  65.4231310
  77.0724333   6.5380622  65.4228401  77.8136648   5.3676844  64.8131132
  49.3047619  95.9656048  43.8815498  49.0526772  96.8740845  44.0469074
  49.5320606  95.9455204  42.9519463 102.9375649  52.3539968  67.2967630
 102.5801207  52.4336953  68.1811362 102.3424817  51.7509027  66.8513590
  50.4492712  99.3966293  46.8449640  50.7232761  99.1370964  45.9653091
  49.6630859  98.8773918  47.0138884  89.2103161  10.5835486  47.0743227
  88.2891573  10.5224181  47.3272276  89.5487083   9.6950961  47.1856022
  41.7453384 103.2714272  57.2092199  42.5826073 102.9103661  56.9179296
  41.9843531 103.9608002  57.8287935  64.0539980  85.8977890  78.0741978
  64.4742489  86.6684532  77.6924896  63.2468462  86.2335491  78.4640694
  37.8748226  74.4792032  14.5817983  38.4536457  73.7202024  14.6532702
  37.4189281  74.5127821  15.4227889  22.2519636  98.5308743   7.3954284
  21.5357137  97.8987122   7.4553412  22.9058123  98.2116604   8.0173749
   8.0800854  51.4172692  77.2931868   8.9033924  50.9332700  77.2288161
   7.6620041  51.2930913  76.4411181  33.7699771 109.2915249   9.4186294
  33.4175062 108.4130669   9.2761332  34.7196960 109.1721821   9.4140792
  77.6252460 104.8151016  10.0627744  77.3372984 105.3682518   9.3365860
  78.4231901 105.2360153  10.3826940  77.7410663   4.9186755  48.3100319
  77.1420301   5.6510688  48.4549379  77.7061952   4.4160891  49.1239214
  54.3308414   7.7580310  73.5910082  54.6086837   7.0766879  74.2032290
  55.1188530   8.2799388  73.4397411  17.9081106  76.1809826  37.7369833
  18.2803392  76.3072014  36.8642020  18.6682093  76.1313438  38.3166552
  18.5429406  71.0512924   9.7711211  18.8872182  71.5561533  10.5078840
  17.6151741  70.9327888   9.9746823  59.4744968 102.2833538  50.6326723
  58.5808897 102.0973969  50.3443718  59.3663454 102.7599144  51.4557314
  46.7135620 104.6631527  47.5313234  47.3886919 104.6238804  46.8539095
  46.6321993 103.7610817  47.8409672  28.6662793 107.4961281  21.8398404
  28.5005879 107.0529938  21.0077262  29.5947671 107.3408699  22.0131588
  48.6762381 105.4685116  26.7119503  49.1107988 105.0334644  25.9783840
  47.8644896 104.9765205  26.8353868  90.5963230  95.5073166  17.5245333
  90.5602455  94.6884632  18.0189133  90.7903481  96.1755753  18.1818116
  28.0842352 106.5567493  52.1498156  28.1960344 105.6347656  51.9181347
  27.7825761 106.5405941  53.0580997  79.9528040   8.5979319  44.5950317
  79.9747146   9.1653395  43.8244486  80.3617109   9.1177893  45.2869654
  67.0352663   7.8896189  19.3427157  67.3139394   7.7520610  18.4373713
  67.3069299   8.7852336  19.5434868  88.5999025  34.0240145   7.6097566
  87.6854576  33.8019133   7.4345660  88.8558210  33.4396601   8.3233893
  28.6895537  91.3616371  25.9042287  29.4739437  90.9887600  26.3066316
  29.0166020  91.8472099  25.1469374  96.4095653   0.5237151  54.4947910
  96.9190992   1.1535216  53.9849377  95.4984821   0.7778025  54.3478012
  90.3746128  97.4618912  57.7562761  90.3687096  97.5817013  56.8066216
  90.8339691  98.2316589  58.0919552  86.0275091  13.3991194  49.6163416
  85.6172670  13.8606787  50.3477097  86.6310466  12.7823973  50.0306225
  68.7066711  18.7518550  33.8927937  69.4442238  18.1667090  34.0655518
  67.9419745  18.1762458  33.8807654  45.9470701  86.3085461  20.9063220
  46.5932703  85.6029606  20.9346151  45.2513647  85.9736252  20.3405857
   4.2353796  12.0107222  37.4138451   4.9814390  12.3204184  36.9003153
   3.9781450  11.1908389  36.9921231  55.6055260 105.9842205  17.4160206
  56.1329794 105.5358315  18.0770588  55.5489492 105.3610611  16.6916537
  87.8666462   8.8915206  44.5451546  87.5475897   9.6777297  44.9882269
  87.2530616   8.7580538  43.8227081  64.4515241   0.5622531  33.4766865
  64.2052401   0.6810809  34.3939948  63.6215867   0.5886508  33.0005121
  71.6425432  10.3388549  19.0322268  71.3927807  11.2542296  18.9059639
  71.8577207  10.0259162  18.1535923  44.2990112  96.5668201  20.4126406
  43.9146233  95.8871746  20.9663296  44.9781036  96.9641781  20.9577775
  25.8729577  91.1094952  51.2003183  25.7913017  92.0575619  51.0966825
  26.6127467  90.8703613  50.6419611  72.0816898 105.0466728  60.1989031
  72.0300817 104.0979767  60.3152514  72.9860878 105.2060127  59.9288845
  79.3885530  27.4061919  52.3709249  78.6184419  27.8723193  52.0455265
  79.9139894  28.0817176  52.7996492 106.8245662   6.0823775  56.2882423
 107.7598537   6.0860778  56.0846472 106.4288677   5.5645705  55.5871487
  43.8989735 102.6408768  34.6024871  43.0788946 102.9306889  35.0021172
  44.3149662 102.1006107  35.2742743  70.3778410  88.2283306  26.6449285
  70.8726168  87.4606705  26.9315052  69.7807026  87.8925514  25.9764218
 109.8329211  23.1885858  90.7439631 110.4512955  23.0561872  90.0254136
 109.7427488  22.3240132  91.1447277  54.9271727  95.9509850  59.6629381
  54.0458202  96.0444546  59.3013906  54.8775005  96.3641548  60.5249453
 112.9181720  53.5293145  94.6903909 112.7863956  53.3826871  93.7537128
 113.8306881  53.2850976  94.8450026  96.6859068   7.6945544  42.0926428
  95.9728779   8.1608248  42.5290155  96.3225282   6.8310881  41.8961287
   7.7076817  90.1663399  43.7637138   8.0499959  91.0591316  43.7193298
   7.4889898  89.9483585  42.8576803 103.8034738   4.9207450  54.6214247
 104.6040834   4.5001174  54.3078423 103.1088413   4.5488215  54.0779352
  42.6438856  84.4082165  17.1148062  42.0556879  83.9258003  17.6957822
  42.3856640  85.3240013  17.2191799  18.7008870  94.5345497  31.4651012
  19.5220602  94.5814800  30.9755039  18.3587456  95.4282856  31.4451790
  56.3374175  23.3935881  33.7256098  57.0831193  22.8124667  33.5757303
  56.7159380  24.1650916  34.1471839  75.3065634 100.2109718  31.0690832
  75.2870941 101.1614227  31.1808658  76.0042763 100.0590134  30.4316354
  39.6536255 102.5528240  21.0019326  38.7980723 102.9002857  20.7498741
  39.5295978 102.2368717  21.8969321 115.6333297  94.8753071  20.8665633
 115.4916573  94.2432022  20.1618600 116.5841340  94.9771214  20.9094191
  30.1394987  83.0206108   6.2544912  30.3310037  82.7423573   7.1501076
  29.7993279  83.9104557   6.3477135  61.6307592  97.8793526  73.9983225
  60.8348083  97.7330399  74.5094919  62.1004534  97.0464993  74.0428114
 105.9593858  90.2880859  46.5872240 106.0590984  90.2343750  47.5377035
 105.8401575  89.3805504  46.3072443  75.1667070  91.1028767  18.3324373
  75.9127665  90.5284882  18.5048246  75.5602407  91.9479275  18.1150603
  30.7183409 107.0591354   8.3157158  30.2073121 107.5736046   8.9405388
  31.4962626 106.7917633   8.8051885   1.6733013  51.6953034  87.2937780
   1.4724003  51.8982263  86.3801634   2.4571358  51.1475987  87.2507018
  22.4628019 106.4105606  24.1864991  23.0776596 106.7331791  24.8453593
  22.5518560 105.4581642  24.2217779  35.2929163  96.9391251  19.1940546
  35.9024906  97.6396847  18.9619613  34.5236111  97.3945713  19.5360649
  40.7832432  85.1403332  31.3060045  39.9589491  84.8932457  30.8868146
  40.5966377  85.0994587  32.2439504  46.5771151 101.2553310   9.9073118
  46.1533880 100.4086208  10.0478637  47.2540951 101.0788631   9.2540216
  99.6794523  11.9150973  37.6727057  99.9017299  12.8157283  37.4367189
  99.9374736  11.8375350  38.5912037  54.4268228   6.7970038  12.0434785
  53.7710537   6.9298888  12.7279782  54.4068874   5.8554507  11.8722415
  91.0505928  33.9547492  35.5640388  91.7123140  34.4057799  36.0883713
  91.2018741  33.0252505  35.7354331  35.1972198 106.7245293  39.5703340
  34.5484972 107.1685314  40.1164579  36.0199189 107.1748543  39.7616816
  79.7206939  39.1774321  47.9305029  79.9850191  38.2574511  47.9278803
  78.9949049  39.2163325  48.5533571  42.4724722  91.1699581  24.0605760
  41.8097496  90.5384731  24.3403125  42.8944302  90.7565403  23.3074021
  18.7593924  33.0801721  88.1905436  19.1590105  33.9174790  88.4260303
  19.5013510  32.5033517  88.0088573  18.3385611  97.9393673  29.3372273
  18.6650443  97.1857166  28.8456368  17.6114726  98.2718945  28.8109207
  99.0354599  18.1072283  60.4449224  99.1279472  17.9111052  61.3772392
  99.3580164  19.0040160  60.3556681  53.4787131  15.3904391  30.2406883
  53.6453665  16.2325431  29.8172283  52.6918234  15.5377722  30.7654047
  45.8833790 106.9596195  54.1590023  45.8292103 107.7486134  53.6197519
  45.0623369 106.9489002  54.6509409  37.1007538 104.6018696  37.4302673
  36.3175392 104.4984245  36.8898010  36.7944288 105.0655651  38.2096148
  84.6246971  18.2236338  72.1189880  83.7566580  18.4333564  71.7743731
  84.6174110  17.2721911  72.2235727  27.6632309  88.7717247  52.5911093
  26.7643976  88.9302540  52.8795481  28.2060432  89.2061996  53.2490015
  89.8345960   1.2855674  71.0381794  90.3845705   1.3836814  70.2609158
  89.3187441   2.0912505  71.0698318  94.8087336  79.2957826  89.1066706
  94.4472254  78.4651322  89.4158184  95.6678916  79.3534513  89.5247060
 111.9998134   8.1879283  23.4670210 111.2359012   7.6994372  23.7736940
 111.6425384   9.0181876  23.1519914  66.5671349  91.9404411   7.2851777
  67.0484209  91.4482689   6.6200680  67.2398758  92.4424934   7.7451658
 107.6856817   3.7011386   3.2732600 106.9770349   3.9123679   3.8810715
 107.2448600   3.5339881   2.4402094  97.5271511 107.5128269   8.3427227
  96.7752075 107.6619720   8.9159399  98.1877232 107.1181107   8.9119977
  75.5564690  95.6250668  49.7516632  75.9336185  95.4889488  48.8824892
  74.8688412  96.2767696  49.6149921  99.6228088  17.3971415  52.1277142
  99.7984089  17.6374102  51.2179518 100.3351749  16.8014384  52.3598909
  34.6669388  99.5254803  53.6569500  34.6701574 100.0426197  54.4624233
  33.7531662  99.5317173  53.3719683  40.5780363  94.1350651  44.8941708
  41.2362480  94.3345833  45.5598927  39.7804022  93.9559746  45.3920984
 100.3132595   3.8782263   6.5528983 101.1955417   4.2057944   6.7275685
  99.9430717   3.7130404   7.4200225 105.9310617  86.6528320  57.8284693
 105.7459142  85.9744453  58.4778881 106.5076854  87.2676373  58.2820654
  78.4204854  17.4307299  61.7561960  79.0442623  18.1512881  61.8452358
  78.8476957  16.8165065  61.1591625  36.7102324  58.5983033  89.3942582
  36.1551558  59.0904088  89.9992031  36.1587988  57.8739305  89.0985596
  76.6719927   9.3729544  47.0164061  77.5397266   9.6546508  47.3060846
  76.3735999  10.0740386  46.4370394  82.7436413  14.5789576  32.6628494
  82.8416408  14.6267939  31.7118812  83.0294765  13.6938334  32.8888655
   0.3476357  18.1855632  19.3394899   0.9122967  18.9542723  19.2590058
   0.9215712  17.4451590  19.1429389  32.6677728 107.0456791  43.7913179
  32.8728962 107.8857517  44.2017221  32.1148634 106.5957069  44.4301081
  78.7003936  65.3988791  29.5660830  78.4665598  64.5253516  29.2522335
  77.8616823  65.8479834  29.6715069  55.9302187  96.3640118  40.4046679
  56.7639065  96.6629887  40.7677317  55.9065676  96.7345238  39.5224023
  53.8136864 107.8204536  36.2484336  53.4382296 107.0017529  36.5724635
  54.7526836 107.7351856  36.4134812   5.9999119  40.1716657  90.0883221
   6.2386118  40.3690381  89.1826188   6.6050373  39.4775910  90.3496843
  89.7192968  21.0680438  35.3022242  90.0167717  20.3414393  34.7547007
  89.8962988  21.8500376  34.7793531  42.3824124  42.6703025  43.0484152
  41.8084992  41.9086886  42.9659081  41.8015481  43.4218550  42.9300976
 107.4253143  21.2338019  14.2924559 107.8069748  21.2502337  15.1701236
 107.3007740  22.1559668  14.0681326  45.9953070 102.4151897  36.5619516
  45.5931044 102.7352524  37.3694324  46.3283968 103.2027340  36.1317801
  59.6172131  49.7557784  23.5331535  59.8768343  49.0380812  24.1108561
  59.2329062  49.3226767  22.7709508  21.2549757   5.1223613  56.3391972
  21.0852789   5.8182097  56.9742012  20.6897902   5.3332568  55.5960131
  46.4779949  92.2287750  -0.0860649  47.1526384  92.6220512  -0.6396197
  46.8867731  92.1588707   0.7766315  83.1796659   6.7119742  39.9227858
  83.3923305   7.6147509  39.6861434  83.9918817   6.3628913  40.2897644
  34.6426010  94.9019337  43.1231499  35.0543261  94.8551273  42.2602940
  33.9873838  95.5945969  43.0386305  97.1397461   8.4023047  76.3080692
  96.2698950   8.3091498  75.9195948  97.7410711   8.3448363  75.5655479
  83.0110325   8.3855773  42.9459047  82.7417387   8.6208010  42.0579958
  83.0782903   9.2225505  43.4054422  94.7988332   6.6896010  11.0102129
  94.3033518   5.8760405  10.9161162  94.8683227   7.0321513  10.1191092
 103.0899013   8.9845992  57.3811626 103.0345787   8.4069205  56.6199350
 102.3451914   8.7330199  57.9273748  86.8983425  10.2453566  32.7058625
  86.4949096  10.0762702  31.8544626  87.2827066   9.4062567  32.9596496
  83.0177559   0.7801486  55.4753494  82.1680082   1.2207270  55.4677773
  82.8038562  -0.1528310  55.4714298  77.7590990 101.6641331  36.0364938
  76.9969797 101.6530609  36.6155291  78.4088039 102.1875381  36.5057015
  48.6363935 105.1044464  23.1848073  48.0072212 105.6187248  22.6789474
  48.1753254 104.2893028  23.3827615  69.6047677   9.8000193  30.1550508
  68.7168325   9.9361182  29.8244715  69.9296535   9.0447093  29.6649599
  33.3695626 104.5981693  39.3352294  33.6784530 104.0737057  40.0739813
  34.0476322 105.2626610  39.2131186  40.4380322 101.6703892  36.0515428
  39.4942522 101.7853737  35.9406686  40.6730032 100.9933281  35.4170299
  96.8127693   7.6383544  73.0139875  97.5360454   8.0574084  73.4803581
  97.0428528   7.7238131  72.0887899   6.1882471  14.2620230  21.1342645
   5.7699846  14.3610049  20.2789879   6.4457773  15.1507807  21.3792372
  63.5046900   3.4853411  26.9993663  63.4821809   4.3919707  26.6931677
  64.1276826   3.0511332  26.4166403  84.4306673   0.0654650  33.4684467
  83.9203657   0.5684901  34.1031027  84.7937311   0.7245112  32.8767729
  57.7550030  96.6229248  23.5890698  57.3118877  97.4540424  23.7597346
  57.9846859  96.2912941  24.4571114  97.8705181  16.4852095  19.0652275
  97.9108490  15.6205893  18.6565208  98.3359731  17.0595122  18.4571517
  60.2510023 105.7488441  31.0683084  61.0476112 105.5792522  31.5711880
  59.8991919 106.5567303  31.4421678   2.4046301   7.2347975  47.3488712
   1.8517660   6.4702178  47.5100756   2.1049379   7.5734759  46.5052414
  79.0107168  11.1434699  25.6730127  78.3828653  11.3167144  24.9715710
  79.8659385  11.1883975  25.2454495  56.7473937  50.8166457  11.9261277
  57.2960664  51.5271903  11.5940058  57.3634578  50.1120425  12.1267378
  22.8700399 105.0251484  44.1340256  22.6478839 104.5190525  44.9155283
  22.5250793 104.5068550  43.4069633  33.7237382 102.2416878  12.0915520
  33.1139469 101.5848541  12.4276435  34.4213891 101.7321396  11.6793883
  53.8419200  18.7065459   2.1693008  54.6389962  19.1129065   1.8290566
  53.5494496  18.1270362   1.4658314  88.1154550  11.6861869  65.2986622
  87.8642715  10.8664370  65.7242680  87.9658188  12.3574019  65.9644794
   8.1148981  30.9472705   5.1999938   7.1990084  30.6771804   5.1334649
   8.6116194  30.1848460   4.9029779  52.0543623  95.1910973  34.8405313
  52.9423809  95.5481243  34.8268461  52.0953417  94.4251060  34.2679787
  67.9162550 108.4596634  73.4412479  68.6257076 107.8495121  73.2396936
  68.0927753 108.7444592  74.3378925  46.6163921  87.3317146  67.5770998
  47.4421215  86.9826317  67.9125738  46.7289209  88.2818604  67.6054096
 101.4437736  15.6039954  13.7274480 101.4200844  15.5191947  14.6805894
 101.4022125  16.5472079  13.5698056  92.5002207   9.0070105  30.3245735
  92.5252641   8.8969947  31.2751007  92.2841133   9.9305869  30.1959682
  69.7483648   1.6502238  19.1354036  69.7908748   1.1746073  18.3058167
  68.8446439   1.9614363  19.1870260  39.6893311  94.6645260  40.8298492
  39.5832229  93.9775085  40.1718283  38.9232969  95.2268124  40.7147217
   6.5696978  22.6738120  30.5213118   6.9279169  22.5612879  29.6408296
   6.2131380  23.5621215  30.5231071  97.6717247  24.8860980  23.6193633
  97.1373905  24.7339774  22.8398895  97.3088659  25.6826449  24.0067697
  55.6396198 102.7148247  22.6657796  54.9467278 102.9107571  23.2964468
  55.4584312 103.2919121  21.9239092  43.8800764 102.6975822  49.0133810
  44.0443230 101.9924927  49.6395588  44.0180588 102.2939014  48.1565046
  61.7141784   0.5768920  42.7136087  61.6252769  -0.1244401  43.3589458
  62.1162046   0.1544142  41.9545889 102.4272073   5.2638484   7.8068775
 102.6227726   5.9126425   8.4829408 102.8172125   5.6232691   7.0100391
  42.8595448 104.1358757  59.5914888  42.7005148 103.1937695  59.6495485
  43.7739277 104.2410755  59.8543024  82.4053873  22.6610614  59.7669649
  81.6569723  22.0699931  59.6848392  82.1576036  23.4333182  59.2585850
  91.3587488  30.5084086  24.6663880  91.2522043  29.5671511  24.8038936
  91.5022482  30.5981017  23.7242651  80.6367220  13.4207488  41.1944056
  80.5941309  13.5207129  42.1454191  79.9384893  13.9852668  40.8627224
   8.6029505   2.4736548  30.7665658   9.4142412   2.0015956  30.9541631
   8.5504030   2.4892379  29.8109365  76.8777704 100.3288746  33.7155390
  77.0838022 101.0418415  34.3200684  75.9412813 100.4248428  33.5422850
  97.4180855  22.8050280  15.0689781  97.0296062  21.9375849  15.1823449
  96.7658390  23.2961226  14.5693433  67.9340495  20.7055140  35.9662509
  67.0064462  20.9074259  35.8437204  68.3288492  20.8633757  35.1086712
 106.6173853   8.0252887  43.9426422 106.4433826   8.0391074  44.8837948
 107.0610202   7.1903563  43.7933254   4.8631167  30.1560832  58.5581684
   4.2924952  29.8764277  57.8423405   5.7311415  30.2231074  58.1603241
   7.6758360  16.7428542  47.2702599   7.9384016  16.3297415  46.4476871
   7.7503656  16.0463191  47.9225779  75.9276403  24.0160704  16.1101115
  75.9720553  23.6679793  17.0006704  74.9910153  24.0678645  15.9196329
  56.8107319  93.8652706  49.9730206  57.2448826  93.7162590  50.8129835
  57.4948788  94.2290020  49.4109917 103.2464660  15.7551623  66.9815826
 104.1351141  15.8647681  67.3199940 102.6797212  15.9852267  67.7178526
   6.6865419   2.9411555  33.3410668   7.6385759   3.0266619  33.3916426
   6.3531279   3.7723971  33.6788487  46.6952085 104.8762798  35.2313805
  46.5866613 105.0039864  36.1737919  46.6969967 105.7619476  34.8683000
 101.1727823  32.0572901  51.6839838 101.5431369  31.2106658  51.9335938
 101.4054025  32.1577025  50.7609272  21.7452288  91.1624432  41.2349033
  21.8435454  92.1004009  41.0711956  20.8524036  90.9625053  40.9536076
  31.0191083 106.6992188  64.1844559  31.4146161 106.7536354  63.3144855
  31.7537284 106.8064404  64.7886610 100.0729084  90.5414581  28.0547142
 100.8962059  90.7920456  27.6356435 100.0976181  90.9733391  28.9085865
  24.4984317 103.7026787  36.1283469  24.4656777 104.6592903  36.1355758
  24.5346570 103.4712696  35.2002478  69.3089581 103.7567616  72.8628159
  69.2369795 104.3217850  73.6320972  70.2493858 103.7019539  72.6930428
  91.1648477  24.0792227   9.9908036  91.4757074  23.2763243  10.4090738
  90.2148069  24.0566683  10.1054502  97.0045294  13.9048434  28.8424444
  97.5645841  14.6461631  28.6121798  97.5951065  13.1515837  28.8494420
 112.0527650  44.3922563  94.3315962 112.5724913  45.0534387  93.8744843
 111.9832850  44.7200246  95.2282404 107.9944242  30.4537917   3.6282524
 108.3853496  30.9782935   4.3270409 107.1583523  30.1589442   3.9892021
  64.5125151  87.4038410   3.7830251  65.2610016  87.0573711   4.2687824
  63.8715029  86.6930294   3.7917742  87.9100097   3.2427073  49.1957760
  88.0836834   3.7951613  49.9579239  88.6157478   2.5960875  49.2028570
  73.8561286   0.5196048  40.4833269  73.2458438   0.0104285  39.9499130
  73.7780727   1.4132643  40.1493835  46.4774704 102.3404217  13.3727181
  45.7285404 102.8526306  13.0678022  46.3852310 101.4956760  12.9321206
  71.1630381  29.2868853  23.8906169  71.7963136  28.6999560  24.3037796
  70.3380288  29.1037703  24.3401313  76.4650965  77.7489138  61.3032961
  76.0087872  76.9583368  61.5914011  75.7780886  78.4124470  61.2402058
  83.5304464  20.2947093  50.1500988  83.8539613  20.3711940  51.0477209
  82.7711834  20.8767462  50.1187420 100.3054012   6.1223746  19.1416037
 101.0438455   6.1115790  18.5326552  99.5427860   5.9279967  18.5967493
  25.7544589  36.7706156  41.2640476  25.7115436  35.9122777  40.8425617
  25.2621579  36.6627240  42.0778227  11.4860022  15.0181937  56.2713671
  11.6668630  15.9274662  56.5095806  11.2025261  14.6083379  57.0886135
  11.6756558  55.4850245  81.1005783  12.5220895  55.1013184  81.3298225
  11.2105393  55.5545855  81.9342804   8.2295495  55.0628662  10.6758380
   8.2322413  54.1240883  10.4889548   7.7184629  55.4473829   9.9636805
  26.8954468  57.9874802  23.0934072  27.8392053  57.9105568  22.9532886
  26.5282416  57.2022915  22.6873660  16.9881952  36.0358739  21.4571095
  16.9971514  36.7058420  20.7735205  17.2038019  35.2234840  20.9991074
 116.4343006  39.7754812  37.1784258 116.4178653  40.2691126  37.9983616
 116.0910145  38.9128327  37.4112821  72.8382957  95.3004021  85.6129187
  73.4900200  95.1469988  86.2969917  72.7686083  94.4620914  85.1561779
  25.9852195  23.0754709  15.7865489  25.1552916  22.6261497  15.9464169
  25.9950852  23.7929106  16.4201224  37.3188758  18.6862838  44.3660402
  37.6257396  18.5985816  45.2684689  36.9839907  19.5814133  44.3128586
  19.0949523  68.6385870   4.4829270  18.2061934  68.3143616   4.6285915
  19.3119657  69.1117144   5.2862239  20.8955598  40.7617426  42.8599977
  20.3812146  40.0666380  43.2704973  20.9675288  40.4967833  41.9430208
  15.8074141  39.6722054  15.8635807  15.1126575  40.3299093  15.8947694
  15.5500996  39.0208721  16.5161037   0.8759108  50.1115942  35.1738691
   1.1009422  49.9977779  36.0972548   0.7595790  49.2205524  34.8441052
  11.4144623  27.9648614  18.6434269  10.5523896  27.6114345  18.8628662
  11.2761652  28.9096928  18.5771096  35.0766420  71.1209554  76.8755263
  34.6980342  71.4727551  77.6812094  34.9912822  71.8319780  76.2403947
  25.5224967  42.8554058  28.7805438  25.2505541  43.2899666  29.5888972
  26.1293507  42.1731853  29.0678382   5.4565126  42.8968573  20.2861643
   4.7701940  43.4801817  19.9622345   5.0272727  42.3755169  20.9645367
   0.3604706  77.8672934   9.1854101   0.8315789  77.2644091   9.7605789
  -0.5081900  77.4769211   9.0891302 107.1026803 103.4810125  15.7930684
 107.1229864 104.4327413  15.6929100 107.8603769 103.2818341  16.3430262
 115.3571150  57.8209162  11.4023340 116.0198625  57.4810553  10.8010924
 115.1120715  57.0674562  11.9394410  33.8981080  29.3657351  60.0660992
  32.9694533  29.1560984  59.9666786  34.3213224  28.5185456  60.2053499
  27.7488279  28.1965828  21.1994433  27.5927687  27.2849965  21.4461994
  27.3564720  28.2799911  20.3303456 111.7672404  90.0105095  32.7496886
 111.8297719  90.5863476  31.9876289 111.5967484  90.6014919  33.4831071
  10.2076972  35.5260277  38.7298155   9.3754405  35.6326365  38.2691479
  10.7964659  35.1483631  38.0764008  89.9401536  45.3169489  28.1048703
  89.5118370  46.1634064  28.2324886  89.5126404  44.9461699  27.3328686
  41.9891500  44.9218607  52.0299339  42.8627205  45.3116035  51.9952393
  41.8846607  44.4922495  51.1809635  23.2080245   9.7966117  39.3724489
  23.7732553   9.1590029  38.9363289  22.3227119   9.4525945  39.2536783
  45.7306004  36.8581605  24.9758339  45.6599379  36.1887240  24.2953229
  45.5441141  36.3919210  25.7907438  13.8946474  48.4805822  30.6759429
  14.8187912  48.6604357  30.5031848  13.6537743  49.1028166  31.3622642
  96.9304242  21.8493509  27.5397801  97.8866448  21.8664289  27.5795364
  96.7227831  22.1276355  26.6477752   7.1878618  89.5374966  41.2833691
   7.5097978  88.6492634  41.1296225   7.0776671  89.9072838  40.4073906
  30.1564145  49.9350166  28.8369346  30.9512925  50.3980207  29.1015649
  29.6359110  49.8755741  29.6380448 114.0867639  27.7933359  29.5335340
 114.0054831  26.9316912  29.1246414 113.2282998  28.1985903  29.4108939
  11.6814840  59.7032452  23.4811211  11.8309152  58.8188601  23.1468081
  10.9191990  59.6172571  24.0536237  10.2350068  71.7443800  17.9979086
   9.8402900  70.9070683  17.7543104  11.0469735  71.5053701  18.4449160
  88.0960238 102.6540322  75.7614106  87.6581967 103.1592221  75.0763374
  87.8732311 101.7436308  75.5670935   8.7137151  36.8946862  13.3642399
   8.6478835  37.3322654  12.5154638   8.1036592  37.3711562  13.9273036
   6.8515128  23.7325001  14.4546568   7.2482818  24.5690465  14.6975505
   6.7643452  23.7762666  13.5024393  28.9983892  36.1338019  45.3962803
  29.4488168  36.3319969  46.2172937  28.3234215  35.5004478  45.6402397
 108.9860471  33.3235884  34.7358632 108.9626183  34.2672491  34.8945737
 108.1140318  33.0171418  34.9846840  29.8194408  68.0893183  18.2267368
  29.9187112  68.9763308  17.8809237  30.4487062  68.0410051  18.9464068
  46.9411564  60.3159237  16.1517107  47.6921129  60.7315636  16.5754354
  47.2183084  60.1885509  15.2444100  45.9742355  30.4993820  70.4775524
  45.1980591  30.4204655  69.9229813  46.2564516  29.5966005  70.6244373
  16.7992294  41.4598894  44.3519115  15.8576405  41.4133883  44.1861391
  17.1086979  42.1623516  43.7800694   4.2182484  34.2353797  52.1627474
   5.1438105  34.4575596  52.2637558   4.1779542  33.7445068  51.3419867
  31.6486359  36.8574214  16.5416944  31.5938735  37.6835752  16.0613811
  31.2071800  36.2226152  15.9774542  17.3240721  27.2135878   5.1496005
  17.5974154  27.3968291   4.2507467  17.1337402  28.0744696   5.5222791
  95.7410611   1.8381639  75.2109045  95.4641200   1.8264289  74.2947179
  95.4508139   0.9953351  75.5596667  62.9904938  62.4392271  22.6090455
  63.1312227  62.7954149  23.4862900  62.0389509  62.4250746  22.5061011
  28.5143113  25.3860521  21.3325214  29.0564442  25.1203680  20.5897307
  28.4391069  24.5966506  21.8686366  18.8775051  45.5594826  39.6324110
  18.8864326  45.5805922  38.6754847  18.7823606  46.4760780  39.8913217
  16.0545230  31.4558911  54.8493052  15.6954134  31.8708181  54.0650177
  15.3097785  31.3881826  55.4468060  21.3137126  66.7110729  46.9629478
  21.3643312  66.1811256  47.7584505  22.0946479  66.4701939  46.4645958
  31.0999823  51.2443495  35.3594995  30.2707529  51.4058352  34.9094629
  31.7445254  51.7474699  34.8618364  44.1982317  26.1789227  30.1435375
  44.8349142  25.7851529  30.7400417  44.7288704  26.5563273  29.4419551
 104.9773779  56.8525696   9.4580436 104.2582943  56.4883518   8.9418101
 104.7250332  57.7631092   9.6112376  26.8053293  48.8889360  33.4442782
  26.2518978  49.6195173  33.7203169  26.2009907  48.2749462  33.0271149
  48.3436775  50.0294399  23.1230068  47.5250340  49.7293711  23.5179901
  49.0265751  49.6978474  23.7060404  67.6745426  69.2589266  93.0360438
  67.1760285  68.6872441  93.6199040  67.0261109  69.5916445  92.4155080
  49.1819715  44.5748425   7.1807623  48.6112261  43.8116646   7.2704124
  48.7404776  45.1299095   6.5379465 101.1110618  78.3605766  51.5408134
 101.6517558  79.1029024  51.8106890 100.8682766  78.5574818  50.6360960
  22.1562552  40.0690413   0.5014084  21.3734984  40.0794840  -0.0494235
  22.6171494  39.2694521   0.2475055 107.0485928  40.2704954   8.6446416
 106.3645615  40.0122595   9.2624193 106.7012717  41.0526705   8.2159185
 114.5535242  19.6788788  20.9419131 114.5057351  20.5147362  21.4059091
 114.1883044  19.8640001  20.0767112  22.9912162  16.6650426  26.3583803
  23.3183908  17.4836361  25.9854269  22.1572828  16.9029045  26.7636085
  23.8423562  55.2827692  20.8266950  23.3010960  54.6634531  20.3370881
  23.5101652  56.1438704  20.5729580  14.4343698  50.8294392  10.6861806
  15.0715601  50.1347446  10.8523893  13.7296212  50.6627989  11.3121140
 113.0551579  68.8912010  37.6487899 113.5743680  69.3760490  38.2903290
 112.6555197  69.5684481  37.1030283  16.0945797  58.1651783  20.8056974
  16.8141484  57.9188681  21.3868904  16.4626777  58.0933046  19.9250329
   6.0342485  19.9659884  17.1972835   5.4930067  19.6454310  17.9187620
   5.5795789  19.6721458  16.4078760  31.3560724  16.0241854  32.4055338
  31.6678882  16.3518882  31.5619612  32.0017648  16.3388622  33.0382228
  26.8981004  53.1294012  13.9961791  26.1239910  52.5721025  13.9161491
  27.5315261  52.7482414  13.3881295  29.0801716  59.2251301  15.2330077
  29.3903327  59.1977644  14.3278635  28.1262016  59.2504454  15.1586378
   8.4175199  36.1568356  86.8798351   8.0030113  37.0130420  86.7734146
   8.6429894  35.8875513  85.9893990   4.1258588  69.9430847  29.9159288
   4.7223222  69.7682858  30.6438756   4.0080869  70.8929634  29.9255800
  82.7745356  41.7403984  12.7305782  83.3309950  42.0200443  13.4574759
  83.3564891  41.7379856  11.9706070   9.6283191  10.1106215  20.6599116
  10.3981292   9.5525706  20.7703805   9.2878842  10.2274048  21.5468717
 103.4856012  44.8190880  22.8208423 103.3248081  44.6944618  21.8855119
 104.4010749  44.5672369  22.9421329  18.7398505  42.5485086  59.0700436
  19.6217084  42.2121859  58.9105225  18.3904374  41.9861078  59.7613096
  44.7914648  46.1910391  22.6611900  44.3603420  46.9701910  22.3100686
  44.0724039  45.6026220  22.8912973   7.6736927  33.9463091  23.0513191
   7.1215463  33.5676360  23.7354040   7.4685997  33.4357715  22.2680426
  15.6919014  36.2645340  24.0826225  16.3507926  36.9213963  24.3076277
  15.9298456  35.9789824  23.2005382  15.2098942  17.9350483  20.0259042
  15.9756708  18.0935812  20.5778885  15.3080893  17.0285237  19.7346973
  88.5943951  15.6738019   2.5155842  88.7035479  16.2116396   1.7313334
  87.9238906  16.1278462   3.0259749  28.9179730  21.3566542  24.5640349
  28.3840823  20.5789948  24.4014454  28.5997343  22.0019388  23.9327168
  43.3466911  18.1955671  34.0783715  44.2050505  18.6149597  34.1380191
  43.1969881  18.0889058  33.1389856  47.0351845  82.6897640  94.0205866
  47.8584021  82.2090597  94.1070027  46.3648760  82.0087356  93.9647563
  18.3319592  21.8199086  13.6509252  17.4205828  22.1124029  13.6593437
  18.6936975  22.1864486  12.8440630 104.3093038 103.6038178  12.2211850
 104.2517305 102.6709431  12.0146394 104.1596414 103.6497330  13.1654978
   1.9387759  53.4940624  48.3599043   1.4118794  52.8828478  47.8451014
   2.2600618  52.9726219  49.0955067  21.1650348  24.3428516  27.0247412
  21.4258957  25.1872683  27.3923635  21.8853140  24.1025782  26.4419055
  86.9996566  15.4661841  94.3974761  86.6529197  15.1480241  95.2310112
  87.4435134  16.2846799  94.6194845 115.5230965  16.8294489  21.3038468
 114.7236935  17.0641339  21.7751312 115.6292008  17.5225341  20.6522274
  39.7977485  19.5914102  43.5018682  38.9025869  19.2590368  43.5685396
  40.2256765  19.2893744  44.3030453  30.3442955  49.6563148  38.1357646
  30.6739187  49.2944956  37.3131657  31.1084199  50.0675535  38.5397744
 110.3157844  52.0742607  33.9344263 110.5871876  52.3755503  34.8014879
 109.7344120  51.3341904  34.1091585 108.9237275  34.5542264  21.3001251
 108.2266291  35.1386142  21.0021710 109.0720656  34.8038936  22.2122073
  25.7683253  40.5410957  26.8860769  25.1456237  40.9619427  27.4788380
  26.2044764  41.2679434  26.4414477 110.8787682  38.8421035  39.8283124
 109.9842640  38.7974381  40.1660967 111.1637791  37.9294109  39.7836590
  41.7532969  64.4856119  10.7056439  41.2527275  65.2964211  10.7964718
  41.2011862  63.9228010  10.1628292  53.5698486  20.8167167  91.7221182
  53.1487299  21.3043017  92.4300417  53.3661724  21.3174958  90.9321999
  30.3347898  44.7698450  43.5246325  29.7292662  44.8068857  42.7842283
  31.1412716  44.4087267  43.1566477  25.6845188  38.2057881  33.5720825
  26.3612652  38.8640904  33.4143376  25.0854182  38.6219311  34.1918707
  29.3532491  42.8090286  47.1624708  29.7991633  43.6375332  46.9864798
  28.5106540  42.8909206  46.7157555 108.0208673  61.1742401  10.8302438
 108.9175030  61.4479256  11.0235596 107.5630983  61.2445831  11.6679370
   3.9044026  41.3458157  40.9184551   4.8499915  41.2284184  41.0096216
   3.6794481  40.8671808  40.1206207  27.6266170  34.1921282  65.0367069
  28.1907439  33.4468150  64.8305464  28.2069969  34.9518824  64.9902105
  12.2893131  80.1412201  65.1611567  11.3868952  80.3285408  64.9027252
  12.2569621  79.2535496  65.5178356  97.9655028   2.6259942  84.9506575
  98.0519367   2.6169725  83.9974099  98.8624431   2.7193637  85.2716088
  80.1787684   0.9953351  90.3230062  80.7234172   1.7799945  90.3854731
  80.3586666   0.5139918  91.1305815  50.6436634  38.7114835  17.2595918
  50.3691196  39.2434692  18.0064845  51.0110521  39.3410969  16.6392326
  76.7020497  26.8369432  89.1282809  76.4324624  25.9355111  88.9523059
  76.1927688  27.3638101  88.5124230  31.5520167  27.6118135   4.3605322
  30.6521273  27.6561737   4.0373248  31.8948317  26.7927504   4.0029725
 106.2295451  69.7487068  21.1002421 106.6852077  69.3017244  20.3869319
 105.3270533  69.8326683  20.7925224   1.0439546  45.0690508  12.2389364
   0.8435880  46.0015869  12.1585536   1.8877400  44.9665594  11.7987621
  34.2190456  34.5685029  34.8798609  34.3030572  33.6457896  35.1202250
  34.7440481  35.0343132  35.5307269 100.9434892   2.9459138  85.8237093
 101.1434747   3.2040687  84.9239355 101.7541862   3.1094976  86.3056266
  40.6707789 103.4866947  90.1130947  40.2779786 102.7801461  90.6256699
  40.3243133 104.2882342  90.5051768  35.6706643  44.1710091  10.3734171
  35.4723120  43.2393551  10.4678023  36.6268587  44.2119074  10.3576016
  37.7560210  39.4345093  27.3927331  38.0507922  40.3240728  27.1977425
  37.6302791  39.0302706  26.5342379   7.2559804  73.2828999  43.9940214
   6.7518914  72.4692059  43.9891100   6.9034696  73.7874603  43.2609510
  14.1842949  16.6229534   3.3237955  15.1121604  16.8568552   3.3480459
  13.9579976  16.6369116   2.3938350  24.6168256  28.8694859  29.1961813
  23.8629937  29.2527485  28.7477612  24.3990064  28.9310503  30.1262331
  65.9068811 104.1381878  86.9025439  65.5041206 104.8472256  86.4012658
  66.1450326 104.5406050  87.7377540  39.0309262  37.8223658   7.4124944
  38.4852314  38.2499480   6.7524779  39.5500922  38.5321856   7.7904570
  59.2788076  39.4882822  42.4874449  59.7166348  39.5054150  41.6364193
  58.3460951  39.5372343  42.2779703  13.6609900  47.7598619  26.5038276
  12.7139282  47.6794434  26.3905215  13.9945352  47.9251432  25.6219769
 109.6871837   8.4214681  47.3912287 108.9492716   7.8399420  47.2080755
 110.4611405   7.9026681  47.1719790  16.4486909  68.3340693  31.8942046
  16.7666984  67.5907993  31.3817048  15.7598090  67.9661560  32.4476624
  41.0030603  45.5465364  41.0391188  41.3544703  46.4325142  40.9508705
  40.9432554  45.4056025  41.9839954  43.9530993  62.5480080   8.2693124
  44.5529604  62.9115057   8.9206719  43.4407949  63.2991219   7.9699743
  98.7293446 103.6139244  86.1944598  97.8364956 103.3839506  85.9372473
  98.6401808 103.9668650  87.0797360 105.3716494  39.5419927  81.7196387
 105.2241875  38.8486714  82.3628992 105.0171495  39.1903729  80.9029823
 102.9147126  34.9586535   9.6420711 103.3655848  34.8062634  10.4725671
 101.9844141  34.9115849   9.8624361  34.0333152  91.2622929  51.7707872
  34.8809004  91.4403439  52.1783733  33.9442992  91.9376945  51.0983706
  16.9976258  75.0574923   7.1496558  16.9994497  75.2446365   8.0883813
  16.6208160  75.8413553   6.7498946  74.8069954  52.8785467   7.5353462
  74.2820406  52.3838949   6.9060814  75.7040262  52.8043413   7.2096765
  35.3992939  42.0560265  28.9603519  35.4336429  42.7988911  29.5630193
  36.2552166  41.6366005  29.0481520  22.1907926  29.8878551  28.3656311
  22.4525833  30.6493139  27.8480625  21.7662120  30.2585912  29.1392684
  25.2294779  46.2069941  47.5204468  24.7704458  46.9685268  47.8748322
  26.0656142  46.1932039  47.9861879  43.8209963  42.3469973  27.6220512
  43.8089705  42.5392294  26.6844296  44.6727514  41.9366264  27.7715039
 114.6958201  58.8782978  27.8749561 114.9923036  58.0087566  27.6062059
 115.0522045  59.4686508  27.2110987  68.6406994  62.1541405  44.9698687
  68.5281897  61.9839382  44.0346670  67.8366899  61.8249512  45.3716516
  23.1666684  99.7041029  77.5535375  23.1457031  99.3110890  78.4260803
  24.0579486 100.0415510  77.4641973  20.9414959  37.4319077  14.6277189
  20.6235838  38.3000970  14.3799067  21.4064527  37.5734735  15.4523432
  21.2125921  84.4449902  29.1755152  20.8479619  85.0502300  29.8212433
  21.5004516  85.0070667  28.4561872 107.5440796  30.3315783  47.4000406
 107.1051165  29.5125675  47.6297426 108.3669158  30.3074837  47.8884983
  55.6774151 102.3793644  86.5120822  56.1678743 102.9157919  85.8892411
  56.2775755 102.2573942  87.2477197   7.6831204  31.1495876  22.0003462
   7.4229616  30.7576728  21.1667061   6.8664396  31.2278342  22.4934387
  41.0497176  90.7248778  91.9746488  40.7692180  91.6398019  91.9530579
  41.6479891  90.6753105  92.7202000  47.3445320  39.5640588  50.0675011
  46.8483305  38.8195443  50.4076719  48.1505871  39.5706296  50.5836964
 100.4566289  12.3267551  90.9472605  99.5274640  12.4886651  90.7839569
 100.7892776  11.9833846  90.1180011  18.5917222  62.9540157   9.8660892
  18.7094915  62.5602722  10.7305717  17.7331901  63.3750391   9.9096084
  20.9374547  82.5200272  40.0260448  21.7268753  82.1682644  39.6145725
  21.2638783  83.0868435  40.7249022  49.2722034  23.1845474   1.7622276
  48.8328934  22.8234291   2.5321829  49.6839571  22.4280572   1.3446005
 107.7007391  35.4627943  59.5835495 106.9979151  36.1102653  59.6387911
 107.2530546  34.6183276  59.6353865  35.3866172  31.4212108  25.1296043
  35.6248713  31.3207674  24.2079878  35.0635099  32.3197103  25.1969123
  47.6934099  52.1412420  27.9566455  48.4613848  51.7952394  28.4113216
  47.1450090  52.5020599  28.6532760  48.8961935  -0.1793626  67.7347279
  49.6206760   0.4205964  67.5575066  48.2498360   0.0188577  67.0571136
  67.5631762  39.9563479  29.3495035  66.6835499  40.2306509  29.0901852
  67.7078724  40.3829765  30.1940656  22.5909615  56.0554409  34.8050499
  22.2031546  55.1814461  34.7606468  21.8475175  56.6520548  34.7180414
  43.6017323  81.9189358  14.3995857  42.8507233  81.3673401  14.6185768
  44.0954494  81.9868183  15.2168167  19.3857062  64.2219877   1.0906091
  18.4806144  63.9124727   1.0554111  19.3574131  65.0909615   0.6902114
  18.7154186  33.9285207  49.1998482  18.3401024  33.3164334  49.8328733
  18.2350945  34.7442484  49.3416452 109.2084814   3.3437152  83.8855094
 108.7125278   4.1473241  83.7290543 109.7964073   3.2748218  83.1332940
   8.4279656  32.4049544  48.6254835   8.5938084  32.7398610  49.5067120
   7.5918424  31.9446015  48.6976290  17.3735178  49.7509527  13.7553775
  16.4603627  50.0379705  13.7559128  17.3965979  49.0244532  14.3781877
  55.5703354 105.6238407  50.1571923  55.7410955 104.9499316  50.8151561
  54.8417926 105.2768082  49.6423894   0.7138111  52.0146465  39.3710971
   1.4816010  51.5909863  38.9873719   0.0781696  52.0511961  38.6563540
  36.2333345  48.5644150  27.6444530  35.5924892  49.1680622  28.0201674
  35.7285118  48.0305147  27.0309901 115.6221806  20.7407284  38.2145548
 115.6945850  21.0395861  37.3080921 114.9288072  20.0811315  38.1946206
   4.8285666  46.8356371  68.3257580   5.5114818  47.0964050  68.9437056
   4.3037286  46.1946535  68.8052559   0.6961407  56.8472576   9.6910542
   0.4421707  57.5132084   9.0521175   1.4974402  56.4651394   9.3330908
  50.1235914  96.8037075  88.0914008  49.4292593  97.4451203  87.9406625
  50.0429177  96.1877961  87.3631310  23.3980513  38.8211226  13.9363182
  23.7652612  38.6599374  14.8054612  22.5073338  38.4739470  13.9844799
   0.0308585  42.4185181  12.4947047  -0.3444482  42.6554680  11.6466296
   0.3367056  43.2480812  12.8614652   6.0663496  17.4291558  92.9574851
   6.5641009  16.6358848  93.1554636   5.7667290  17.7430863  93.8106590
  38.8950181  20.1230335   6.7158324  39.8445320  20.2013826   6.6235542
  38.7673807  19.7898424   7.6040459  76.9896257  91.1028833  73.0148893
  76.2371003  91.0891551  73.6062866  76.8496811  91.8752593  72.4670893
  41.4120817  57.2646570  34.2352653  42.0795345  56.9243336  34.8310161
  40.6571531  57.4407148  34.7967982  24.1464353  55.0553608  23.8461447
  24.1443920  55.1427460  22.8929424  23.5208392  55.7137871  24.1483641
  20.7657242  79.0450711  76.8018478  21.5040385  79.5806021  77.0922428
  21.1155772  78.1548781  76.7645305  60.6558704  42.3972368  31.7505074
  59.7495842  42.2320175  31.4905405  61.1244011  41.5990734  31.5062761
 112.6294067  29.3297982  35.1331306 112.0094275  28.9132690  34.5344973
 112.5222342  30.2676630  34.9745321 114.2182698  35.1512575  32.6190948
 113.6033090  35.8527708  32.8334165 115.0322010  35.4050112  33.0542445
  19.7772634  57.4966288  17.8202593  20.0866652  58.2530546  18.3185780
  20.5767965  57.0625734  17.5226438 115.7121175  50.0708437  24.8823047
 116.6168619  50.3687525  24.9767447 115.2531571  50.4589748  25.6272483
  89.5832073 106.9372124  88.7661081  90.2398884 107.0089716  89.4588196
  90.0161135 107.2891278  87.9883021  14.8388612  35.8341718  38.0771565
  13.9729226  36.2310600  37.9830194  14.8885727  35.1961493  37.3653364
  35.2429938  24.2103457  21.8153000  34.5404506  23.6489201  21.4874840
  35.5858445  24.6454692  21.0346889  62.5681030 107.8579039  81.1730319
  62.1990239 108.6395306  81.5842134  63.4258759 108.1377501  80.8534342
 112.9914118   2.9308171  87.5595403 113.0224157   3.7580676  88.0400866
 112.7321101   2.2828574  88.2146328  36.4120324  99.3122811  86.4565295
  36.6085627 100.2488369  86.4782661  36.2850159  99.1156859  85.5283874
  18.0075419  60.2680159  26.6927600  18.0860651  59.7503328  27.4940515
  17.7596438  61.1416388  26.9953537  44.9312544  94.5577759  83.6758929
  44.3396556  94.9980587  84.2861336  45.7870298  94.5948309  84.1031021
  59.3716288  23.8400245   2.6459751  59.6734285  24.2235875   1.8225498
  58.8953876  24.5480776   3.0796689  14.7549736  40.2536869  48.8646841
  14.9895084  39.6836472  48.1323719  13.8854790  39.9553442  49.1315126
  40.9455919  56.7193079  39.9106145  40.9043169  57.6202965  39.5900798
  40.1224899  56.5952778  40.3832150   4.1301498  24.6598840  23.2457900
   3.9804491  23.9057755  23.8160038   3.2917389  25.1215816  23.2342148
  15.6380701  47.3564482  51.5857601  15.2416503  46.6615009  51.0602808
  16.3680494  46.9302988  52.0349360  11.1845911  35.8162308  14.0340614
  11.3362217  35.0480962  14.5847082  10.2573407  36.0196352  14.1567934
  85.4050219  65.6821138  85.0334626  84.5457756  65.2608675  85.0554400
  85.4725659  66.0424442  84.1492492 115.2992129  61.7741394  26.1408401
 114.9807975  62.6714563  26.2391615 116.1384252  61.7660046  26.6011524
  87.4764645 109.5163292  94.8821503  87.5729286 108.9444393  94.1206587
  86.8227112 109.0797610  95.4282693   5.3349960  58.2120848  26.1596346
   5.7333243  58.6109924  25.3860497   6.0347331  58.2051897  26.8127441
  17.2269356  96.5784454  47.6883411  17.2720766  97.1888828  48.4242487
  18.1173849  96.5598011  47.3376513  28.6024427  50.5956030  65.1744843
  28.4387827  51.4889622  65.4767370  27.7384830  50.2630091  64.9311972
  23.1182003  51.2517071   8.9615226  22.6110244  51.9780731   8.5990310
  24.0309834  51.5030003   8.8204062  63.7204599  30.0069070   3.1094423
  62.9147291  29.8872709   2.6067385  64.3383074  29.3863630   2.7228907
  15.4964900  45.4400158  33.1057525  15.4877937  46.3134813  33.4971809
  14.7001874  45.0224829  33.4340787  72.0761866  32.7655835  90.8726936
  71.9139404  31.9785066  90.3526854  71.3982190  32.7503057  91.5482366
 115.2317489  24.3518233  37.0454621 114.9730325  23.4302902  37.0369077
 116.1808914  24.3352795  36.9226336  50.6701136  49.9726915   6.0986370
  51.4592123  49.7758579   5.5938458  50.3078318  50.7544279   5.6816566
  14.0419817  63.1919479   4.1936791  13.7560093  63.3555126   3.2949591
  14.1859245  62.2463655   4.2308792  35.2094415  50.9496940  73.3186227
  35.4635623  51.4520461  74.0927654  34.2711863  50.7963604  73.4299689
  13.7913537  66.4269590   8.8180584  14.1090202  65.8611536   8.1143665
  12.8495717  66.4973593   8.6621016  12.1468222  15.7311618  32.8694010
  12.0338070  15.0385225  32.2184706  13.0293143  16.0665751  32.7114797
  46.5350533  55.4028845  41.0180140  46.1423922  56.2317085  40.7439804
  45.8569002  54.9788570  41.5438843  10.3491807  58.0769253  10.4536033
  10.5652606  57.4676991  11.1595666  10.7940471  58.8896465  10.6940460
  36.3442755  51.5458155  32.4113202  36.7766762  50.7481623  32.7163005
  37.0603991  52.1096325  32.1188998  35.5992937  41.2292814  49.5119286
  35.6670880  40.6114483  50.2398872  36.2176847  41.9263029  49.7309828
  14.1747022   7.8479284  30.8292294  14.9434948   7.6905441  30.2811241
  14.1549194   8.7976426  30.9470558  13.2565606  21.7043853  51.3348007
  12.6179612  21.6298771  50.6256676  13.2654810  20.8377528  51.7411232
  11.7807794  62.0903969  48.1445169  12.0922363  62.8886795  48.5711050
  11.0060668  62.3670053  47.6550913 109.9504175  61.7224693  24.5281100
 110.5545684  62.3409700  24.9388313 110.5167868  61.0505819  24.1486049
   0.0138867  45.8044243  47.9861641   0.0488235  46.5576553  48.5757828
   0.1056254  46.1809301  47.1109152   2.6459729  16.4532514  85.4093933
   2.1117960  16.7472405  84.6715182   3.4300648  17.0009131  85.3706616
 109.9452754  74.9446869   5.8975124 109.3141498  75.6121683   6.1665523
 110.6043788  75.4260111   5.3973711  11.7665005  80.3519630   9.0948135
  12.5702941  79.9260998   9.3927908  11.5159619  80.9246445   9.8197204
 107.2324409  60.8793640  38.4959793 107.4995365  60.4058886  39.2838311
 106.3128044  61.0972595  38.6477065  19.4208682  73.6878109  26.4752150
  20.1639795  74.2607689  26.2861681  19.6785450  72.8366518  26.1211538
  20.6092119  47.7421379   9.8077661  19.8430717  48.2192707   9.4890106
  21.3562846  48.2258034   9.4553685 113.8219633  55.6135225  45.3959227
 113.2881578  56.2056160  44.8660994 113.3646431  54.7738361  45.3510237
  30.9725213  42.1045780   8.3067697  31.5467501  42.2536469   9.0579504
  30.1597595  41.7731762   8.6886370  37.9514007  74.3428881  83.7673896
  38.7228982  74.1696221  84.3068355  37.4006304  74.9062199  84.3110269
  13.8764906  31.6437840   4.0229863  13.1519151  31.0201955   3.9744157
  13.4556210  32.4876642   4.1872084  55.0993013  48.1971455  26.0774517
  55.8017206  48.6057663  26.5832877  55.5259132  47.8956413  25.2753735
  31.4709633  91.9558663  58.5561114  30.7971984  92.5442142  58.2153469
  31.8665969  92.4393243  59.2813521  43.2606411  53.6351013  10.2082598
  43.6684608  53.5097980   9.3513995  42.5592136  54.2668152  10.0495970
 109.8744179   3.9791245  72.9048496 110.2600599   4.5908780  73.5319620
 110.5837036   3.7855525  72.2919255   1.2566009  30.8711648   1.0120133
   2.2010328  30.7318473   0.9422204   1.0303387  31.3746834   0.2300256
  47.2135544  40.7451057  10.0260425  47.8056765  41.4484692  10.2923262
  47.1515560  40.1798439  10.7960224 114.2147208  20.8600707  68.8256460
 115.0943376  20.4826922  68.8162166 114.0411402  21.0858245  67.9117876
  21.7467022  15.4146421  13.1196809  21.3490772  14.7755444  12.5283420
  21.9710612  14.9102437  13.9016509  51.0386419  43.8443613  32.4506855
  51.6143703  43.4320211  33.0946970  51.5005398  43.7450695  31.6182041
   3.9497113  48.2010603  21.8407512   3.8668036  48.5998774  22.7069521
   3.8002306  48.9224577  21.2296224  37.6744175   4.9627611  28.3481503
  37.6189733   5.3744411  27.4857831  37.7882504   5.6936908  28.9556170
  24.0018559  59.9878216  27.7776122  23.8563347  59.0452766  27.8592467
  23.3003759  60.3841257  28.2944274  38.3733082  93.8682270   6.7548007
  38.1384826  94.7407913   7.0705742  38.8400435  93.4659958   7.4873322
  65.5352461  97.5718493  94.5986749  64.8071801  97.3728937  95.1873785
  66.2430894  97.8515238  95.1791663  24.6991729  94.8417992  94.6344080
  24.5266223  94.7724289  95.5733679  24.4978869  93.9720816  94.2889991
 108.7826796  69.8744106  40.3669739 108.8967164  69.6318197  39.4480753
 109.2084982  70.7282209  40.4439020  35.6589580  58.6950827  29.3802524
  35.8286548  59.1359949  30.2127361  35.1638961  59.3339443  28.8674116
 109.8815180  12.0583148  94.3286958 110.0093389  12.0848269  93.3804393
 108.9634300  11.8113322  94.4398060  21.4055753  51.2331486  41.6267920
  21.3340640  50.2794361  41.6662455  21.6940355  51.4881611  42.5031424
   8.8940889  94.2077827   3.3852568   8.4753120  94.3432617   4.2352581
   8.2924449  94.6052742   2.7557662  21.5069604  32.2552991  10.0450838
  21.7081666  32.9424191  10.6803906  22.1249580  31.5530634  10.2479994
  33.6688948  15.2918184  14.3045342  34.3088913  15.9422743  14.0154982
  32.9908895  15.8028698  14.7465396  26.1130929  41.9695854   8.0081278
  25.4932904  42.5451803   8.4562027  26.7749476  41.7688465   8.6698550
 113.8456147  89.1566849  62.9488420 114.4428115  89.8163891  62.5961542
 114.4180005  88.5192871  63.3758307  20.2089739  30.0497389  47.3155880
  20.1483583  30.0091982  48.2700062  19.8557842  30.9101892  47.0894957
  18.9050198  67.9518604  19.0868521  19.1091144  68.4121752  18.2727945
  18.1342793  67.4244499  18.8770199  43.1383514  55.8390999  30.6388235
  42.2004652  55.9009171  30.4577637  43.1922865  55.7294035  31.5881848
  38.7479973  45.9298277  34.1115880  39.5283818  46.3746595  34.4422817
  39.0893269  45.2201509  33.5674524  13.0365396  56.9437313  34.2069697
  13.1869853  56.4689207  35.0243759  13.0219018  56.2632656  33.5339260
 114.8244016  17.5675881  17.9877627 115.4985854  17.9220259  18.5674894
 113.9991807  17.8693080  18.3675086  69.9906196  27.7869153   0.3499113
  69.4169130  28.4995508   0.6314158  69.8259773  27.0842671   0.9787296
  19.4488072  68.5907936  11.5090930  19.1380286  68.4044600  10.6231308
  20.4028893  68.5549164  11.4407361  25.5478048  26.6588736   2.4732989
  25.3100228  25.9862900   3.1115186  26.3227463  27.0793819   2.8459498
  39.2041874  52.9292917  21.0843349  40.0631380  53.3078337  21.2717915
  39.3888187  52.0187378  20.8540392  77.3816595  35.0643487  86.2853569
  77.7563491  35.9451718  86.2847560  77.3658999  34.8101468  85.3626638
  39.8695469  34.1077685  18.9868689  39.5629025  33.6623597  19.7766852
  40.7467985  33.7548518  18.8381648   5.3430158  63.0777740  20.4611802
   5.4324865  64.0226316  20.3368092   4.4956538  62.8639698  20.0706720
  44.7168732  54.9125195  17.9126680  44.3405485  55.7895708  17.9861069
  45.4966307  55.0311089  17.3703146  35.3126217  18.4789796  91.1799139
  34.6718813  17.7686496  91.2132522  35.5598236  18.6216302  92.0935738
 112.4358790  69.7768641   1.9962068 113.0435817  70.1819897   1.3774961
 112.7770986  70.0154352   2.8581148  29.5035958  61.1525679   4.4399256
  28.9549398  61.5127277   3.7431502  30.3681970  61.0592842   4.0399337
   8.5646099  58.2280397  38.8766646   8.9597481  57.4931908  38.4075260
   8.2177460  58.7938595  38.1869054  49.6581173  94.9756092  82.1741253
  48.9619362  95.3213114  82.7327412  49.2138934  94.3600530  81.5910405
  13.9503133  53.4619093  42.2627068  13.0899632  53.1285000  42.0080185
  14.4673991  53.4300613  41.4578247  28.2913852  51.2740993   4.0774354
  27.7012897  51.5625000   3.3811277  29.1625524  51.5299273   3.7743634
  10.4121602  23.6580348  44.4754028  10.9679210  24.4351935  44.4171953
   9.5689476  23.9891887  44.7845364  14.1902924  18.5112226  50.9356022
  13.6632156  18.6158943  51.7277288  14.6516490  17.6822317  51.0627031
 113.0905150  49.9679375  12.6464236 113.7269326  49.4018555  13.0831814
 113.4293910  50.0675058  11.7567718  44.6081114  40.8866310  33.4670353
  44.9743891  40.0023746  33.4797549  43.9865875  40.8989191  34.1949034
  91.9344082  43.9731646  38.1347227  92.6337757  44.6180916  38.0289531
  92.0246472  43.6678743  39.0374327  13.5381293  70.0689316  15.5384564
  12.6718342  70.3458786  15.8368945  13.3815718  69.2412233  15.0838983
  84.3201120  13.2602878  91.6312277  84.7489656  13.5227675  90.8167204
  83.5183597  13.7824626  91.6588324  39.0753174  58.8916826  36.5217972
  38.4256816  58.2784843  36.8655872  39.7594929  58.9157963  37.1907926
  20.5248141  21.3690805  16.4900398  21.3016438  21.8098545  16.8342602
  20.0661874  22.0459509  15.9923029 100.1944747  70.9617805  40.6910467
 100.5141153  71.2036180  39.8218083  99.3591406  71.4214706  40.7755184
  42.4324044  97.1959109  94.1938419  43.3515626  97.0995564  93.9446523
  42.4480569  97.2539753  95.1491506  35.6838560  35.0612140  16.5910614
  34.9449301  35.0717545  17.1994269  35.4964733  35.7688856  15.9743595
 115.5478631  34.6573925   4.0573764 116.0426514  34.1903543   3.3841065
 114.7152244  34.8722649   3.6369315  96.1454501  19.1497517  16.9390106
  96.5550604  18.2916820  16.8286932  95.5121984  19.2066360  16.2234771
  63.0780804  93.8269944  81.4287025  62.8588474  93.9781517  82.3481160
  62.5404656  93.0769533  81.1744624  20.4356623  36.1995554  25.5817199
  21.1155224  36.4384866  26.2117457  20.9178853  35.8972096  24.8121214
   7.9522741  38.6190462  65.8262873   8.4156507  38.2588267  66.5824318
   7.0713162  38.8046718  66.1513853  98.7787688  96.7856402  94.3140559
  99.2657673  97.4261183  93.7955470  99.4507372  96.2023539  94.6668512
  50.1567602  46.6823912  36.8543339  51.0128307  46.2558365  36.8920302
  49.5484686  45.9790087  36.6274762  53.7194777  45.7127333  54.7059774
  54.1269159  46.5720224  54.5970964  52.8551626  45.9020281  55.0711679
  34.2752123  33.5831571  29.4465113  33.5746765  33.8766050  30.0290656
  34.2890024  32.6315498  29.5489001  71.1330235 103.2043070  91.1853006
  71.9352472 103.1488795  91.7045253  71.2886321 103.9299769  90.5807978
  75.8257448 105.5156750  93.9265544  76.4217579 104.8947234  94.3453920
  75.0894177 105.5877775  94.5338870  36.3237405  65.5949402   2.2144172
  36.1201930  65.8758831   1.3223015  35.7186532  66.0910988   2.7657118
  44.3993807  15.2285671  21.9352508  45.3311348  15.4477119  21.9419909
  43.9691830  16.0213542  21.6148567   2.1022516  58.7392616  12.4136770
   3.0226943  58.9270163  12.5974321   1.9061725  57.9642391  12.9400969
 116.0126301  58.4243155  41.8431520 115.5824835  57.5775957  41.7236853
 116.3298176  58.6570644  40.9705400  35.2417803  50.3772211  54.7592163
  34.3633199  50.1862478  55.0879526  35.5963302  49.5228910  54.5129490
  23.8474083 100.2694321  30.9194398  24.3257141 100.6505299  31.6557956
  24.5278597  99.8954487  30.3596568  11.0176277  74.4020844  29.5636773
  10.1725066  74.2478180  29.1415358  11.0908043  75.3552628  29.6119499
  31.8605947  94.0023041  42.0877218  32.3614907  93.4145832  41.5221167
  31.9397807  93.6191654  42.9613113  73.4856939  84.8466206   8.5652506
  74.1628170  84.3030739   8.1623906  72.8744316  84.2199707   8.9524168
  12.8405320  11.5940661  92.5322887  13.0187022  12.1502538  91.7739102
  13.6963116  11.2425084  92.7778135  57.3350334  43.0198097  21.2444925
  57.9048967  42.7252579  21.9549322  57.3625898  43.9752388  21.2958097
  28.5883927  47.9082489  50.8646297  29.1038132  48.6437941  50.5336571
  29.0889215  47.5824118  51.6126490  23.9093661  82.5933075  25.8664441
  24.6464181  82.2870636  26.3948417  23.1343436  82.3516083  26.3735461
  15.6070362  25.3123899  89.3657750  15.5341088  26.1123414  88.8452089
  16.5460669  25.2137227  89.5230084  41.8693733  82.9026699  12.0045888
  42.5644588  82.5958920  12.5868070  41.1604214  83.1612396  12.5934494
   8.1334180  61.1478949  33.5005546   7.7970201  61.6421747  32.7530527
   7.5194097  61.3385963  34.2096782   5.6352139  38.0903387  28.1268620
   5.6857628  38.8640928  28.6880946   4.7858718  37.7000093  28.3329988
  20.6951737  62.4427128  18.0610085  20.4218674  63.0991888  17.4202466
  20.1291800  62.5962496  18.8175201  27.9374027  43.3572435  16.6345215
  26.9856453  43.2911682  16.7121434  28.2250428  43.6848116  17.4866915
   7.2950922  31.5640111  73.3598286   7.5490986  32.4844213  73.4273082
   6.6158043  31.4536138  74.0251165  11.1108577  54.8947239  24.2870378
  11.7846060  54.3462610  24.6888852  10.4573238  54.2739296  23.9649558
  63.8461256  81.0217667  23.2625508  64.4428968  80.2812958  23.3712125
  64.3925190  81.7935276  23.4110713  25.8581567   5.6537992  43.1165791
  25.4675055   5.5297554  43.9815903  25.1426339   5.9893543  42.5765228
   7.4110113  12.7641292  84.0564376   7.1037804  12.1449418  84.7185892
   7.7440535  12.2123332  83.3487361  10.5460179   3.1984589  62.2135782
   9.9208570   3.6607593  62.7718639  11.4019418   3.4098732  62.5863123
  16.9443095  54.8042822  29.0638995  16.0636997  54.9037361  28.7021446
  17.2483969  55.7010221  29.2039561  78.0286694  52.5380421  22.6418400
  78.1341171  53.4619761  22.8686738  78.9233875  52.2085047  22.5574923
  90.0522816  89.3032307  89.1037094  89.3777811  88.7149615  89.4431567
  89.6206963  89.7778720  88.3932990  90.9554100  50.3613138  29.3295813
  91.7214584  50.0410175  29.8058295  91.2455559  51.1834383  28.9344096
  41.7320347  63.1093502  28.9052176  41.7572451  63.1391859  27.9488158
  42.6224136  63.3339787  29.1754055  10.5237556  79.5673466   6.7952394
  11.2581229  79.0350485   6.4893043  10.7964921  79.8781586   7.6585138
  60.7454777 100.7746315  10.3235042  60.1382542 100.0370598  10.3825736
  61.0100317 100.9401321  11.2284088  20.1776600  47.3926926  14.1536546
  19.4623709  46.8181419  13.8807404  19.9347579  47.6753187  15.0353312
  30.4778147  41.9683743   5.6096798  29.8707438  41.2394094   5.4819989
  30.8194232  41.8433142   6.4950585  30.7175016  33.7650728   2.9069334
  30.0208235  34.3336296   2.5788870  30.6321526  32.9613614   2.3941024
  37.2749496  39.3202829  11.0006249  36.9538355  38.5038066  11.3833582
  36.5496302  39.9358892  11.1063313  62.6550281 106.5824503  87.9937017
  63.1441247 107.1845621  87.4329150  61.7869556 106.9784064  88.0705529
  92.7071631  94.0913290  89.9733090  92.1229470  93.3743185  89.7266978
  92.1463644  94.7046704  90.4482251 111.8520503  40.3814220  24.7158861
 111.4277198  40.3312206  23.8593483 112.1333378  39.4845414  24.8967624
  33.1572151  81.7601013  14.1582763  32.8161979  81.5624046  13.2860053
  33.6228323  80.9655094  14.4191647  14.4975770  60.7947826  31.5028048
  15.1422143  60.2606392  31.0387278  13.6821425  60.6591749  31.0202003
  20.6563163  70.8045149  15.3425395  20.6387091  70.5156660  16.2549472
  20.4414082  71.7364359  15.3821480  37.0269203  41.8247128  15.0931025
  37.7889156  41.5886879  15.6221437  37.1190619  42.7662086  14.9470758
  18.4577309  43.1986089  90.8958009  17.8362452  43.8011308  90.4872072
  19.2990433  43.6524720  90.8465349  16.3954818  61.0351562   1.6322570
  15.6820369  60.8164978   1.0327429  16.5195489  60.2434635   2.1557692
  19.2717159  63.8772154   4.1084534  18.9872444  64.1046619   3.2232550
  18.9140320  64.5722151   4.6609688  52.0165205  83.2955164  93.5243016
  52.8991055  82.9298443  93.5839519  51.7010402  83.3084363  94.4279261
  21.9027424  69.2142820  25.4291153  21.1574864  69.7883129  25.6060600
  22.1299005  68.8465500  26.2831688  40.9697390  54.6676064  32.0616984
  40.4186440  54.4692326  32.8187799  40.6454611  55.5101538  31.7435932
  14.5498204  77.6856375  26.9128251  13.9655328  78.3617830  26.5697956
  14.7161984  77.9494572  27.8177834  25.6522822  36.5595150   5.6310904
  25.3007197  36.1395860   4.8460448  24.9763155  36.4283609   6.2959957
  24.1607666 106.5657616   9.0165603  24.7590876 106.2216377   8.3533657
  24.6186519 107.3223877   9.3827444  37.2591169 106.7801947  74.0030056
  36.6116762 106.1230749  73.7475711  38.0514960 106.2762589  74.1885239
  23.0408025  55.8442497  27.1899772  22.8334641  56.4760876  27.8784728
  22.4449706  55.1122475  27.3493171   7.3713660  75.3978968   9.5232749
   7.8084880  74.8199224  10.1486540   7.0484197  76.1254787  10.0548434
 113.8129469  41.4609241  11.1811447 112.8909295  41.6852331  11.0554445
 114.2729959  41.9459581  10.4960704  19.5605934  55.3095722  36.2769532
  20.3346372  55.3174973  36.8400025  19.4237280  56.2281036  36.0450029
  27.0952272  44.9567175  54.1232300  27.6382256  44.2062283  53.8820934
  26.8265700  45.3365946  53.2867241 114.6358205  13.5736508  83.6918753
 115.0176073  12.7098031  83.8475734 115.2454878  14.1834064  84.1074925
  30.8797312  52.8225422  41.4427948  31.2421489  51.9409084  41.5299892
  31.4276004  53.2421970  40.7795000   1.0732648  35.2202511  11.9646966
   0.8105695  34.9355745  11.0893786   2.0126274  35.0403953  12.0031917
  47.7799797  31.2015867  12.8171086  48.6235905  31.6446805  12.9077423
  47.2478247  31.5511513  13.5318470  38.7023997  91.1008358  -0.1503022
  38.9796734  91.8131065   0.4259085  39.4643760  90.5237770  -0.2015186
  48.2022524  32.7491665  10.1081574  48.1361341  33.5644412  10.6053340
  47.7975702  32.0907426  10.6729066  12.0357478  74.7424412   2.6584923
  12.6511657  74.0767050   2.9655558  11.3095033  74.7024727   3.2807496
   6.7417359  66.3286924  11.4717615   7.0788980  66.4692307  12.3565233
   7.4903035  66.4996386  10.9002244  41.5930271  73.0704546  19.8869979
  40.8242178  73.6318588  19.7870791  41.7780113  73.0825472  20.8260751
  19.6877468  75.5969954  72.8607750  19.2179620  74.7844934  73.0488491
  19.2122650  76.2675858  73.3511400  35.4838467  38.5107684  28.8049173
  35.5923653  37.6083398  28.5047889  35.9864879  39.0331435  28.1798506
  45.3426790  57.0309877   7.5291663  46.1106110  57.5183964   7.8274024
  45.6943893  56.1969280   7.2179151  23.8727093  83.6259651  23.3304095
  23.7900209  82.7848816  22.8809953  23.7218904  83.4203911  24.2530274
  11.3467860  44.0648603   8.0105323  12.2077525  43.6540604   7.9317099
  11.4320171  44.8924160   7.5371194  28.8747025  70.8684158   4.1682988
  29.6377373  70.7783175   3.5974300  28.7532353  71.8135977   4.2583635
  14.2735314  48.8326740  17.0418417  13.7315786  48.1359816  16.6715169
  13.6914206  49.2933750  17.6461041  74.4595835  13.9465756  93.6397807
  73.7433405  13.6893411  93.0592131  75.2500413  13.6405606  93.1950752
  99.3722106  10.8457561  92.7403864  99.8598624  11.5599341  92.3300493
  98.7785221  11.2814612  93.3518827 112.4343730  16.7747493  83.0033415
 112.5972033  17.1759934  83.8569933 111.4884544  16.8520494  82.8788703
  52.7491093  36.3891935   8.8436836  52.9384470  35.6284237   9.3928766
  52.6871300  36.0347962   7.9566705 105.7289994  69.1727144  84.2498702
 104.8821795  69.5176179  84.5330113 105.5665457  68.8309151  83.3706575
   4.0138947  25.9715123  92.6821212   3.4462010  25.2100511  92.5632190
   4.8705136  25.6008191  92.8943079  60.7847691  73.2213068  14.0650547
  61.2686253  72.6186180  14.6297479  60.0761318  72.6911211  13.7004006
  58.0399847  64.0247250  10.0457501  58.9285135  63.7244511   9.8544818
  57.7273607  63.4292936  10.7268941 103.7619472  24.9048085  93.4970714
 103.8350821  24.0416713  93.0897873 104.4657732  25.4175801  93.0996698
  47.8021622  60.0555325  37.7309275  48.0421972  60.7346344  38.3613491
  48.1936312  60.3447151  36.9066978  50.9257650  55.5346727   1.2963688
  51.3271046  54.7244406   1.6104981  50.3168917  55.2515507   0.6142056
  39.0563011  12.4116266  33.5725260  38.5625124  11.7119825  33.1448555
  38.8765597  13.1892085  33.0440450  64.6681750 106.1756462  91.8922287
  65.2098095 105.4069657  92.0710796  65.2903664 106.8473715  91.6131314
  93.8129211   9.3646426  86.6548854  94.1166521   8.4569831  86.6664260
  94.0445019   9.6836324  85.7826185  34.7436094  63.6625290   0.1355996
  35.0232577  64.5733833   0.0441092  35.4354262  63.2504082   0.6530719
  26.9878578  73.7581348  10.3591478  27.1053290  72.8234339  10.1895380
  27.2710705  74.1856670   9.5509160  35.4978204  51.5046072   4.3066499
  36.1559939  51.0661745   4.8459253  35.6691980  52.4380589   4.4312534
  28.6120272  55.5651283  27.0404816  28.0576801  56.2206221  26.6170883
  27.9972792  54.9885988  27.4942756  24.5279455  57.6794243   7.0309472
  24.8928475  57.2083426   7.7800530  23.5929108  57.4757385   7.0522815
  63.0242766   0.5804534  88.5149944  63.0997098   0.2939839  89.4252014
  62.7835573  -0.2112679  88.0338889  28.6369300  74.8506308  12.4266136
  27.9860830  74.4568157  11.8456328  28.7301970  75.7484674  12.1081448
  14.3122101  93.4348869  37.1981168  13.9413762  94.0819454  37.7981448
  13.5518801  92.9759598  36.8410277  96.8972695  76.4061732  94.1520029
  96.2842095  76.7400283  93.4970788  97.5563633  77.0951719  94.2363183
   2.7136694  43.2025094  88.4148204   2.4252163  42.3001809  88.5519981
   3.6256777  43.1225629  88.1353897  40.3985119  67.3837090  11.5515864
  40.2949572  68.2177639  12.0096922  40.6030655  67.6297331  10.6494439
  99.4636930   1.3514853  20.9685278  99.1132225   1.9825030  20.3398657
  99.8629869   1.8903399  21.6514826  29.2040086  99.7779465  20.0649405
  28.2768345  99.9597359  19.9115407  29.4004464 100.2170086  20.8925056
  16.4519488  95.2495046  93.6243525  16.5507065  95.2044053  92.6733292
  16.2494789  94.3515821  93.8869723 108.8294054  23.4419913  94.9305187
 108.7951876  22.7347941  94.2863656 109.2585755  24.1638179  94.4711594
  63.5317469  69.8553896  24.3612409  64.1723013  69.1553211  24.4870210
  63.3647442  70.1884794  25.2429390  55.3221130  77.6212883  16.9121468
  54.6534729  77.2208118  17.4678183  56.1503410  77.2825623  17.2520530
  83.7296295 103.8988876  29.9381733  83.7257957 102.9874611  30.2306128
  83.3889675 103.8650513  29.0442848  47.1283531  69.2319441  13.0417025
  46.3571119  69.6243668  13.4508729  47.6479769  69.9788618  12.7444875
  94.8238815  59.5014329  45.6008988  94.7321869  59.2398210  46.5170795
  94.2143060  58.9349408  45.1278955 100.9372235  44.3375440  83.0425423
 101.8703485  44.1821427  82.8963965 100.8944322  44.7401948  83.9098805
  77.8660250  66.6762257  17.8742015  77.0355034  66.2436104  17.6759446
  78.3082104  66.7450523  17.0280516  81.8833828  51.1474419  47.1434784
  82.0172215  50.5918121  47.9113293  82.2418404  51.9977856  47.3977470
  80.5543206   1.2958283  93.2017372  80.3803066   2.2251172  93.0521720
  81.4869333   1.1932464  93.0121535  21.6634499  38.5249085  89.1936224
  21.2640845  38.2555337  88.3664733  22.5313889  38.1214089  89.1831386
   3.8108766  82.1055794  33.8347745   3.6427772  82.4539280  34.7103453
   4.6627674  82.4683952  33.5921359  40.9764481  82.9621029  18.6002982
  41.1902332  82.8185368  19.5222068  40.2026606  83.5252571  18.6187553
  81.0373020  60.8176279   1.7648382  81.4026356  61.3824081   1.0838172
  81.5532970  61.0192013   2.5454494  97.7731991  67.5734234  53.8410425
  98.0763912  66.8636370  54.4071770  97.5515175  67.1430826  53.0152750
  35.5549513   7.3997779  94.1556517  35.8360993   6.9538827  94.9546305
  34.9727379   8.0951924  94.4616791  66.6441584  82.0710754   6.9719428
  67.2814178  81.3653469   7.0818013  66.2027836  81.8689632   6.1469746
  28.7294841  79.6010542   7.9808491  28.7229824  80.4904366   7.6270235
  27.8061914  79.3512774   8.0179155  55.9452237  25.1636363  11.9257951
  56.7160286  24.6123458  11.7910111  55.5350722  24.8127700  12.7162993
  38.7759590  80.8582783  33.0618024  38.3590364  81.1904144  33.8568497
  38.4872627  79.9475861  33.0024910  35.8910894  98.6818123  41.8167353
  36.6066742  99.2626286  42.0752430  35.1455164  99.2663956  41.6802883
  45.7436466  54.2176008   6.5470630  46.6330862  53.9953709   6.8222737
  45.8572531  54.6663809   5.7092541  32.9948115  51.9519186  26.8391371
  32.8769445  51.9358873  27.7889156  32.1093798  51.8635702  26.4863801
   3.6988175  81.2217140  56.8624735   4.0226656  80.4162407  57.2656679
   2.7546495  81.0864449  56.7819786  36.8057299  57.2586918  15.7829952
  37.7581620  57.1633434  15.7869804  36.5007186  56.6443157  16.4506340
  42.5767946  76.7671967  19.8180401  43.2041502  77.1557713  19.2083979
  43.1170893  76.4129877  20.5243301  73.9081383  82.3262978  16.1030173
  74.2327738  82.7472115  16.8990552  73.4892893  81.5225315  16.4108276
  51.0737801  59.6793413   8.4328145  51.4381123  59.0842009   7.7776039
  51.1090708  60.5417490   8.0190027  39.3413854  78.2618380  30.6867170
  38.7325454  78.3336639  31.4218259  40.1920938  78.1013775  31.0951042
  48.3895350  84.4421196  16.2235916  48.2547808  83.7035942  16.8174398
  47.7525759  84.3049240  15.5223811  65.8053912   3.5697699  29.0559840
  65.0708927   3.7849475  28.4811425  65.3965820   3.3324195  29.8883152
  48.2525492 103.1059551  55.0044870  47.4408627 103.2473755  55.4917240
  48.0561256 103.4101772  54.1184282  85.0391133   8.0013270  78.6371380
  85.9879751   7.9285808  78.7400943  84.9181015   8.2977386  77.7350694
  95.5297184  64.4549084  23.5839462  96.4342117  64.7415209  23.7103415
  95.0019646  65.2207947  23.8100338 101.8664455  74.8656607  -0.0633488
 101.6920853  74.6361923   0.8494348 102.5682259  74.2717266  -0.3297710
  48.1360674  53.7921333   7.7374631  48.6275959  54.5902348   7.9315430
  48.2554579  53.2429266   8.5122859  17.9556465  88.2003689  21.8876600
  17.7192986  88.3999157  22.7935028  17.1378636  88.2975483  21.3997889
  -0.0649477   3.2258273  28.5055661   0.4428648   2.8453398  29.2222238
   0.4812550   3.0968333  27.7301574  31.3151145  67.6800346  11.6263664
  31.9476366  67.4443388  10.9476960  30.4855442  67.3158312  11.3174975
  24.2707669  38.3341641  85.3128940  23.4837900  38.1316133  84.8070556
  24.2151724  39.2758031  85.4755610  75.4582834  89.7139740   5.1648611
  75.2010727  90.6292820   5.0539660  76.0905647  89.5562363   4.4637415
   8.1307684  49.8603101  87.2389883   8.8587033  50.0589891  87.8279423
   7.8468548  50.7141824  86.9125938  92.8863491  13.7370444  11.1120784
  92.2147430  13.3999110  10.5191898  92.4660982  13.7418700  11.9720745
  91.6642154  17.4955035  16.7884231  92.2780002  17.0495272  17.3720336
  90.8338560  17.4898291  17.2645533  54.3404150  87.9036808  19.3418491
  54.4561958  87.6489639  18.4264565  53.3964586  87.8449154  19.4892561
  52.4712801  72.4630785  13.2414544  51.6981173  72.6354074  13.7788117
  52.4403572  73.1307030  12.5562143  30.0963198  47.7332826  71.3210374
  30.2987133  46.8227811  71.1059505  29.1553437  47.8128572  71.1646276
  45.5379915  74.7639894  19.5884371  45.2679777  75.4954863  20.1436257
  46.4226913  74.5514965  19.8857319  50.1247835 100.6742668  18.9425230
  50.8886099 100.7690144  19.5115817  49.5282984 101.3676167  19.2248440
  20.8465658  44.7378392  70.5013376  19.9693428  45.0234075  70.2460629
  21.3967739  44.9515672  69.7477990  89.0427245  33.4115739  79.9536770
  89.9039567  33.6995263  79.6510380  88.4264100  33.8192411  79.3452436
  93.0180801  13.9783240   8.1501180  92.7539791  14.8824073   7.9795194
  92.3044456  13.6152507   8.6746556  82.1744347  96.3871384  11.3179946
  81.3356972  96.8406868  11.4019394  82.8289318  97.0843983  11.3590562
  68.1253004  87.0190525  35.4859042  67.6574659  86.9115639  34.6577692
  69.0461349  86.8885708  35.2594805  44.5755196 100.6620502  41.8578529
  44.7294092 100.2495575  41.0079145  43.7321138 101.1040878  41.7603540
   8.1899083  74.7253513  26.0295987   7.8597617  75.5301189  26.4290786
   7.6027042  74.5664263  25.2905679   7.4291407  29.4670720  81.5864366
   6.5901791  29.5691724  82.0358234   7.2019516  29.4464536  80.6568175
  26.4903784  93.4511757  28.9221287  27.1974778  92.8355503  29.1151285
  25.7900715  93.2091999  29.5281434   8.8207781 102.9820919  20.0305223
   9.2786658 102.4705982  20.6975603   9.3557042 103.7685108  19.9226618
  31.0901141  70.6514120   2.7475208  31.2337708  71.4415789   2.2267231
  31.8576956  70.5969286   3.3168030  55.0491238 100.1926613   2.3487061
  55.9453058  99.9320126   2.1362168  54.5021820  99.5134354   1.9540836
  43.9292240  84.9386024  27.6880622  43.2076597  84.7933578  27.0761156
  44.2810583  85.7948589  27.4446082  75.8597147 105.0211567  76.3355166
  75.0685727 105.5087799  76.1062807  75.5709851 104.3944115  76.9988876
  24.6689153  72.8292179  20.0358367  25.2502346  73.0564308  19.3101156
  25.0606966  73.2544136  20.7986927  96.2524189   0.6093074   8.5546035
  95.7542385   0.7930709   9.3510199  96.8425049  -0.1032113   8.8002557
   2.1134745  26.9192357  73.6660200   1.6243826  26.7017598  74.4595724
   1.7935740  26.2997479  73.0101782  39.4918418  84.3786049  11.1311030
  40.3181171  84.3998051  10.6483459  39.0426350  85.1833248  10.8724988
  28.0674863  29.2797995   6.4235818  28.0312109  29.8776913   5.6769615
  28.9511323  29.3888354   6.7750263  54.4330263  81.7901707   8.0609274
  53.9135933  81.1069202   7.6371467  54.3853903  82.5342369   7.4606615
  26.3577080 104.3776226   7.3922402  26.0847020 103.7841320   8.0918604
  27.1946836 104.7323322   7.6920527  71.9415617  80.6071377   3.5838145
  71.8915987  80.8337498   4.5124602  72.2527075  79.7019625   3.5745621
  31.1510086  76.4348745  15.4283178  32.0718598  76.1985588  15.3168690
  31.1722207  77.2555637  15.9205055   1.2812601  18.8491340  91.0895747
   1.8860565  19.4271798  91.5546727   1.1129843  18.1344552  91.7036998
   7.6525246  21.6083236  68.6159998   8.5209881  21.4343782  68.9789611
   7.2436224  20.7454391  68.5492211  47.8684807  91.4935493  15.3175175
  48.0692244  90.8027363  15.9489560  48.7240028  91.7915821  15.0085104
  48.9909649  75.6754065   9.4853538  49.2911768  76.5833044   9.4426066
  48.3294439  75.6092024   8.7967044  26.1588597  56.3308334  12.5366890
  25.3627753  55.8036184  12.4694085  26.8505335  55.7650566  12.1935999
  35.3006827  29.7372575  87.9812354  34.5038544  30.1812978  87.6911932
  35.9901081  30.0911088  87.4193525  41.3309145  89.8573875  29.3559527
  40.7462120  89.1719723  29.0325904  40.8254814  90.6653118  29.2663598
  43.7781424   8.4353877   0.8888910  42.8534044   8.6730719   0.8210769
  43.9230968   7.8278399   0.1635629  51.3177824  97.9404545  44.5144796
  52.2143412  97.6141357  44.4374895  50.8462763  97.2408676  44.9666882
  34.4425011  88.2026291  23.6966705  34.5736790  87.2566795  23.6318445
  33.7504196  88.3042431  24.3500710  99.3013597  32.8439851  84.2067987
  98.6712075  32.1277375  84.1285258  98.7693191  33.6077733  84.4299465
 115.4156757  22.3086448  93.6231012 115.7385231  21.7660708  94.3425569
 115.1453401  23.1257672  94.0419804  59.1022158  81.7876339   5.6472379
  58.8782454  82.1809196   6.4906800  59.0055895  82.5014782   5.0169063
  31.5671849  96.2983608  22.2675657  32.4947858  96.2372494  22.4957228
  31.5626860  96.4579391  21.3237715  74.1256332  98.6968327  16.6851270
  74.2522335  99.0188789  17.5775898  73.2042122  98.4397316  16.6517222
  12.6097667  82.2983551  17.2285628  12.7748823  81.4600182  16.7970908
  11.7245197  82.5383854  16.9547784 106.9898845  13.0337138  87.9280519
 106.4961005  13.4898372  88.6094904 106.6215731  13.3593650  87.1067536
  32.6724291 107.9086590  17.5198340  32.7540898 107.3390388  16.7549229
  32.1217346 108.6325836  17.2216642  52.8689957 101.6993427   1.1572795
  52.3042345 101.0094452   0.8089635  53.1726217 101.3583469   1.9985670
  28.6189246  72.4645996  17.0371783  29.0900445  73.1990623  17.4306762
  27.9280925  72.8744841  16.5166211  55.3623117   9.1372443  14.2346370
  54.5508469   8.6387015  14.1386616  55.0744201  10.0412322  14.3617249
  29.6412969  87.8603649  19.5015454  29.3575430  88.1288624  20.3754020
  28.8394523  87.5667381  19.0690398  19.3481289  54.7852845  90.9118253
  19.0739762  55.1745648  91.7422035  20.2793251  54.5983357  91.0308155
  11.1166263  86.5383816  15.8628619  11.8427670  86.0571289  15.4661942
  11.4581680  86.8347168  16.7065227  44.5625639  58.6709070   1.0279643
  44.0423918  59.3314934   0.5704975  44.6513891  57.9567385   0.3968489
  76.1411572  87.5581074  45.9435320  76.5994358  88.3504009  45.6633854
  76.6406202  86.8414593  45.5521488 108.8487936  20.3174491  71.6666752
 109.6453000  20.7885451  71.9113666 108.4506274  20.0704570  72.5013572
  76.5027298   2.9451419   1.6161175  75.9654201   3.6718035   1.9315472
  76.2572492   2.2063685   2.1730606  33.1805025  18.9617057  94.8474940
  34.0399586  18.7499900  94.4831617  33.3695542  19.3187614  95.7152504
  42.8572226 108.1258678  60.9365797  42.5395632 107.6403427  60.1752710
  43.5287714 108.7102604  60.5848122  40.4145050 101.8132401  29.8982382
  40.1645517 101.4165592  29.0637350  39.6098423 101.8076897  30.4166198
  44.0289688  83.7990093  22.8640294  43.7912607  83.3451080  22.0555091
  44.9152708  83.4940434  23.0582070  66.9193840  83.6951065  16.6322482
  67.4062967  83.5835743  15.8157229  66.9744110  84.6325302  16.8177927
 107.3049808  35.7334847  79.9750739 107.7813626  36.4869447  80.3237706
 107.3333717  35.8507104  79.0255040  95.6339086  25.5149031   3.7059951
  95.9633936  26.3484050   3.3699068  96.3262380  24.8851729   3.5051429
  34.7054100  85.4590130  22.8462887  35.2944183  85.0758839  22.1962833
  34.8676062  84.9544621  23.6433744 100.2211190  16.1707873  82.5082177
 100.6652261  15.3434653  82.3223585 100.8060122  16.6257520  83.1141346
  30.7141042 107.0263290   5.8060706  30.5134106 106.9899368   6.7412871
  29.9783206 106.5811920   5.3857106  20.1920557 101.6988659   1.7441174
  19.9072969 101.0072708   1.1467548  21.0256672 101.9996071   1.3823454
  75.4338325   8.4241915   8.5000223  75.9092869   9.2046500   8.7847346
  75.1428045   8.0111552   9.3130028  55.9539890  80.4404259  26.0383940
  56.1967850  80.6138229  25.1288772  56.7754650  80.5152130  26.5240097
  38.1580806  90.0237751  22.6048040  38.0112267  89.1454124  22.2538924
  37.2892642  90.3229141  22.8729582  58.3904600  98.3063507  26.3480043
  59.2572212  98.2461357  26.7496705  58.1418085  97.3978519  26.1776114
  61.9320774  89.5957756  17.3193121  62.4664545  88.8032150  17.3693657
  62.2553682  90.0540352  16.5436077  25.2954292  88.6378670  18.5106766
  24.9260449  88.8911533  17.6647258  24.5712042  88.2137108  18.9709175
  16.1163759  64.1076326  10.4984665  15.6541836  63.9039516  11.3115609
  16.1233532  65.0640345  10.4600537  80.9882545  93.9023781   4.4628039
  80.3495026  94.6091461   4.3694854  81.1705685  93.8667488   5.4018056
  27.7067314  17.7200456  94.7681745  28.1366335  18.4819407  95.1566788
  28.2297789  17.5198312  93.9919218  15.8524120  93.1795216  18.3797181
  15.2870178  93.9393806  18.2412767  15.6651223  92.6034164  17.6385939
 116.2375809  24.2457051  68.6836582 116.3482476  25.0710197  68.2116037
 115.3435708  24.2822976  69.0237170  29.5201945  80.5095291  31.8843365
  29.3931770  81.3891411  32.2398424  28.6646652  80.2690983  31.5286732
  84.7743607  64.2312384  34.0970683  84.9790382  65.1655865  34.1335249
  84.2208099  64.0772533  34.8626399  19.3434882  93.8363552  38.1861973
  18.9014626  94.1041565  38.9918804  20.2553248  94.0974331  38.3151269
 103.7034001  32.5680423   8.3343208 103.0428853  32.0167637   8.7538987
 103.6539235  33.4006405   8.8039637   2.4397773  77.7834320  15.1891375
   2.1632704  78.6925793  15.0741208   3.2156682  77.8378248  15.7470500
 107.6518929 107.5363392  91.4450624 107.8992522 108.0579180  90.6815177
 108.3093989 107.7527804  92.1061778  51.6400242  55.5163622   7.8961968
  50.7405329  55.5792379   8.2174408  52.1726227  55.8827639   8.6021107
  21.8888092  79.9015856  14.5019162  21.7068887  80.7199097  14.9639559
  22.7451611  79.6267891  14.8295999   8.4923691  81.2181854  38.7552118
   8.2509458  80.6945515  39.5192504   8.1245351  80.7406521  38.0116415
  18.0592428  42.2994180  94.3425611  17.6424156  43.0841394  93.9866026
  17.3292815  41.7341085  94.5951663  62.4400616  92.5000954  17.7639866
  63.2231188  92.1394444  17.3480713  62.6211357  92.4467373  18.7023878
  40.2261877  71.8325853   7.5054544  39.7452974  72.6450443   7.3476768
  40.2393389  71.7432499   8.4583855  25.9676242 102.6556778  15.0475216
  26.5671062 103.3307743  15.3654885  25.6658602 102.9831314  14.2002046
  66.9920219   0.5079985   6.2351435  66.3807167  -0.2214288   6.1327809
  66.4321388   1.2800933   6.3165826  46.3987446  71.9513035  14.3528163
  46.9937277  71.9936895  15.1014376  45.5444622  71.7537022  14.7367179
  54.4968176  99.8573685  10.5593956  53.9338064  99.2160225  10.9928966
  55.2658367  99.3562317  10.2879047  94.6470356  94.3062019  34.2308283
  94.4383717  94.1329002  33.3128667  95.5795860  94.1041946  34.3067384
  75.3079833   6.8449450  43.3371210  76.0484589   7.0125437  43.9200783
  75.5476774   7.2743750  42.5159264  85.2610124  13.5495425   2.0847429
  86.1247457  13.1752635   1.9112167  85.3982795  14.1327620   2.8312343
  86.8371357   9.3759013   9.3797773  86.0381902   9.7992278   9.6939743
  86.5442909   8.8143492   8.6620533 109.7557354  72.4250221  40.4418230
 108.9739799  72.9460716  40.2584887 110.2201271  72.9194117  41.1172104
  97.2843708  17.1248770  26.7670655  97.7632869  17.6934958  26.1641145
  97.9635156  16.6035128  27.1950555 105.3125286  96.4786243  39.9128699
 105.7975292  96.2780952  39.1123748 105.8830738  96.1780643  40.6202412
 113.4716142  11.6412211  37.4078918 113.2345642  11.9903136  38.2670617
 114.1528095  12.2330142  37.0885396  66.9185925  70.1244259  41.2497234
  66.5884209  69.6615505  42.0197678  67.8002119  69.7749424  41.1199379
  15.0762163  67.4477429  87.0405537  15.9361636  67.0660539  87.2167140
  15.2316605  68.0711217  86.3310021  42.1207510  45.5773397  91.4745027
  41.6129671  44.7780080  91.6139722  41.6922079  46.2324948  92.0252737
  98.0048574  35.8834029  11.1506343  97.4317373  36.2171984  11.8408108
  97.7058471  34.9859763  11.0041928 107.9927350  23.9693637  80.2407795
 108.7610722  23.4186740  80.3912169 107.4811412  23.8918824  81.0460740
  64.0005732 106.8789005  32.0087695  63.4938335 107.4327660  31.4148998
  64.7890806 106.6559219  31.5140295  57.9974365  45.8240795  21.6146088
  58.6989403  45.8691120  22.2642970  58.2194233  46.5008497  20.9751272
  31.5901160 101.6717434  42.6822996  30.8779240 101.2734890  43.1827068
  32.0034695 102.2791386  43.2958412  22.7547336  63.1113577  12.6933658
  22.6961732  62.7644062  11.8031812  23.0773497  62.3770905  13.2158649
  49.4226122  63.8727856  64.6524477  49.6823978  64.2283678  65.5023289
  49.0319347  64.6151686  64.1915035  48.4396731  52.3865457  93.5178305
  49.2411219  52.0719762  93.9361112  48.6515509  52.4145169  92.5847947
  -0.2570928  56.1223455  92.5809285  -0.1699961  56.6535230  93.3724436
   0.5907928  55.6875939  92.4897373   0.5650936  43.5057397  90.6354329
   0.3458177  42.6198335  90.9240994   1.1850678  43.3771558  89.9175674
  25.9516144  97.5605106   5.7005340  25.1715231  97.0150375   5.8012295
  26.0532379  97.9920769   6.5488619  28.5447025 105.2935600   1.1056788
  28.2243037 104.5463753   1.6109511  29.3405032 105.5674839   1.5616377
  44.5297241  94.3177986  40.4889011  44.0391731  93.4963989  40.5189085
  44.5074034  94.5765781  39.5676184  62.0404720 107.8299618  28.9589429
  61.3645267 108.2879543  28.4593725  62.4462080 108.5120010  29.4941425
  44.7015272  22.0999713  94.0387285  45.1101385  22.7958674  94.5535014
  45.4160200  21.7394300  93.5136175  77.1903086  83.5343552  27.7479625
  77.6620674  84.2701626  28.1381631  77.8101730  83.1560516  27.1243525
  61.4607143  84.7260857  28.5142899  61.6112232  84.9295998  29.4374156
  61.1358833  85.5443096  28.1385064  45.6679344  93.2337189  16.3409293
  46.2746525  92.5047684  16.4704132  44.8172712  92.8882885  16.6116381
  80.6297588  73.2600164  27.9629421  79.9802065  72.6982546  27.5401568
  80.4917908  73.1223440  28.9000893  77.3256731  95.7545376  42.0970821
  78.0425406  96.3421726  41.8582916  77.5284243  94.9342823  41.6473103
   3.8296877  57.3544927  93.8364678   3.6720740  58.0402513  94.4854097
   2.9678618  56.9672437  93.6830823  70.3994274  65.0792646  59.0530682
  70.5227518  66.0145617  59.2150736  70.3832769  65.0014973  58.0991697
  23.6845112  81.8756104  30.6220770  24.1032887  81.4554691  31.3733006
  24.2615867  82.6076794  30.4046273  77.7230358  90.3751564   3.0957729
  77.4506664  91.1328697   3.6133823  78.5930347  90.6071949   2.7709746
  14.3746805  94.6408367  34.6464133  14.2092121  94.3393135  35.5396867
  13.8279426  94.0777874  34.0984297  11.2988983  44.2495961  83.4761542
  12.1110283  44.6112008  83.1213051  10.6724011  44.9714131  83.4239417
  88.3091606   3.6743022  18.1130707  88.7740959   4.5109988  18.1160402
  88.1681837   3.4819270  17.1860600  76.7363167  75.1419544   3.7911814
  76.4948416  74.6863747   2.9847264  77.4748182  75.6970501   3.5407534
  71.4611197 104.0208435  22.1718407  72.1461725 104.6890545  22.1925831
  71.3088799 103.8052654  23.0919385  30.4603325  24.1694446  94.9702264
  29.6982371  23.6053987  94.8387265  31.2043892  23.5674281  94.9837902
  16.7975211  98.1600761  13.1888270  16.9577885  99.1033173  13.1597745
  15.9234428  98.0539703  12.8133810  27.8035140  96.0658836  19.4652748
  28.3949018  96.2477016  20.1956415  28.2912421  96.3393593  18.6883795
  40.5016851  94.7787380   1.3890833  41.3632917  94.3862820   1.2482292
  40.6499100  95.7202148   1.3002263  50.9309387  85.1975632  15.4868126
  50.0317192  84.9407101  15.6909227  51.4288807  84.9710655  16.2722957
  86.6863537  89.6868420  39.8068380  86.9789028  90.4185772  40.3501701
  86.2276173  89.1061401  40.4139471  56.5451050  85.7342815  14.8068762
  55.7919502  85.2629280  14.4507635  57.1858120  85.0501728  15.0011063
   1.5788960   1.6755725  18.7604702   1.5947079   1.1782599  19.5781875
   1.6538738   1.0117484  18.0749381  98.1655325   3.4421492  77.6457214
  98.6351694   2.8708411  77.0380402  98.7297310   4.2099810  77.7371550
  98.4493746   9.2745352  37.4841809  99.3618740   8.9990378  37.3965454
  98.5007394  10.1956416  37.7394414  74.0920162  72.9369974  10.6736386
  73.3971024  73.2665968  11.2434566  74.8935604  73.3255434  11.0240567
  70.3992367  96.0452366   7.7408153  69.6751499  96.0593033   7.1149319
  70.0221348  96.3879871   8.5510921  44.8491515   7.1552230  27.8918886
  45.7675869   7.4208403  27.8454542  44.8614545   6.2167121  27.7040625
  56.7407227  65.0226068  19.2459095  57.3313093  64.9379587  18.4973943
  56.6435432  64.1295815  19.5765078  48.4105206  95.3286934  14.5790410
  49.2438078  94.8695087  14.4741321  48.3921766  95.5839539  15.5013955
  40.9942722  93.4518147   5.1763135  40.1993179  92.9913521   4.9075180
  41.1077547  93.2162666   6.0971123  36.0934329  76.1047649   7.8125322
  36.5633225  76.3083458   8.6212295  35.2021980  75.9031582   8.0976373
  78.1929601  31.9347525  14.4702446  77.3299612  31.6491843  14.1703928
  78.4137953  32.6702262  13.8988030  61.4523840  77.3244667  21.6271114
  60.7187462  76.8603659  21.2238574  61.1352205  77.5629663  22.4981761
  64.2941011  14.3084098   8.5006404  64.9880303  13.7826300   8.8984495
  64.6758593  14.6304942   7.6840889  59.9725723  95.3417301  15.1862860
  59.7242546  95.1489162  16.0903835  59.2524910  95.8743000  14.8485100
 109.0520526  66.2947984  92.5391686 108.9010406  65.5372186  93.1044133
 109.3312074  66.9880338  93.1372733  18.9038026 107.8657150  14.2335320
  18.9762771 108.7742805  14.5259297  19.7202158 107.6999664  13.7621188
  30.5997348 103.1701565  13.5535169  31.3046789 102.8465462  14.1143739
  30.1175117 102.3840141  13.2972538  41.1191082  89.7184753   8.5168803
  41.7108107  89.4318867   7.8211898  40.3289843  90.0026608   8.0573368
  14.5240246  18.4015126  68.9341479  15.0278984  18.7580771  68.2025724
  13.6112343  18.4788318  68.6565286  59.6555281  95.1268101  17.9955733
  59.7406387  94.1906738  17.8149331  58.7113333  95.2836323  18.0071425
  50.7302856 108.8902092  12.3023057  50.3588343 108.1467915  11.8273365
  50.1085377 109.6030331  12.1555400  11.3510929  21.0925193  85.3075367
  11.9278084  20.8714862  84.5762545  11.8108307  20.7677932  86.0817605
  83.8884128   4.7830535   6.6275609  84.4460977   5.1026011   5.9182596
  83.2182993   4.2595816   6.1880726  39.9500680  55.4435444  10.9036720
  40.3627300  56.2456465  11.2239456  39.5918870  55.6832647  10.0489938
  66.2025417  36.0314990  37.4672389  65.7703556  35.8248854  38.2959485
  65.9978069  35.2891303  36.8987298  66.4668131  85.2374649  12.6111650
  65.6777763  85.0160789  12.1165538  66.8486738  85.9750557  12.1353745
  41.1158848  81.8063641  15.5881131  40.9853268  82.0300007  16.5096200
  40.7288694  82.5377846  15.1069891  58.1249809  88.1168365  70.1611662
  59.0282536  87.8448582  69.9988079  57.6096964  87.3188210  70.0433064
  99.7146286   1.9288493  13.4886181 100.0777305   1.0552264  13.3431101
  99.0056194   2.0029879  12.8498387  54.8595762  86.8070889  16.9627273
  55.2236748  86.5154934  16.1268806  55.6137180  86.8496132  17.5506842
 104.7279669  27.8502507  95.2612331 103.8402463  27.7643151  94.9136719
 105.2780367  27.3851056  94.6309152  32.0571327  85.3508091  22.0595908
  32.9386091  85.7215500  22.1017933  31.4844418  86.0611248  22.3489189
  83.7221241  77.0481157  20.8894849  83.3887196  77.8448391  20.4768109
  84.4176865  77.3531818  21.4720392  12.1333814 103.3111954  55.5757618
  12.5362611 103.7233162  54.8115110  11.4618862 103.9327145  55.8569098
  42.3071289 108.0204582  17.5597274  41.3988113 107.9890919  17.8600645
  42.7120209 108.7049675  18.0923939  58.8026619  94.7700119  28.4699178
  58.1153822  94.8348713  27.8068376  58.3995295  94.2783070  29.1854167
   2.8316056  50.5044980  74.6101457   3.1912171  50.5831285  73.7265545
   2.4703347  51.3704057  74.7996360  51.4310884  97.4452686  50.6323147
  50.5370235  97.1706009  50.4287434  51.7934608  96.7216015  51.1434126
  76.1908245  83.8797092  18.0940521  75.6606293  83.9895821  18.8833892
  77.0231962  83.5295105  18.4114552  65.8134413 107.6914883  27.2623754
  65.3630686 108.3135319  26.6910052  66.2357664 107.0771885  26.6619563
  89.7434425  86.9433689   2.6174635  89.0872669  87.5981522   2.8560430
  89.3871880  86.5210247   1.8358389  49.5090103  89.1732883  23.5119653
  50.3541327  89.5842266  23.3299422  49.0905857  89.0961075  22.6545286
  73.8732732   6.6101123  39.5635390  74.4403542   6.4788104  38.8036633
  74.1562260   7.4471141  39.9317789  12.3726988  87.2187424  37.2598362
  13.0470753  86.8919182  36.6643238  12.6018631  86.8436909  38.1101608
  92.6693166  22.0160151  16.6220522  92.2943224  21.1470080  16.4790940
  92.1895994  22.3631240  17.3741281  84.0133346   3.2843543   1.0580374
  83.6680568   2.4141360   0.8587299  83.2697309   3.8727618   0.9274137
   9.3070208  46.7322011  86.1939364   9.7263180  45.9469457  86.5457779
   9.6790777  47.4514813  86.7042744  48.6310387 100.3751087  22.6569939
  49.4922352 100.4685497  23.0642319  48.3727837  99.4732285  22.8471065
  74.6402073  97.9652977  36.7310238  74.5817184  97.5618172  35.8649921
  75.2101898  97.3800945  37.2299051  27.0460892  98.2839298  26.7212582
  27.3754311  99.1576958  26.9317365  27.7431560  97.8840828  26.2012148
  65.4193306 105.3212166  35.7504272  65.9797287 104.7463512  36.2716866
  64.8898363 105.7892609  36.3960338  45.5286264  96.3857269   1.2990984
  46.0555553  96.8767929   0.6686748  44.6289301  96.4842987   0.9875450
  39.7859669  89.4454575  41.1913586  39.9530458  89.7813320  40.3107309
  40.6562519  89.2772198  41.5526438  27.7435303  65.6954575   7.5196719
  26.9855976  65.9927416   8.0230552  27.3737454  65.1309395   6.8408406
  78.7094845  20.2315665  40.5542803  79.3764795  20.3514624  39.8782825
  78.6788191  19.2853213  40.6953382  75.1236976  11.5324736  45.3553724
  74.7239245  11.7377139  46.2005281  74.3894042  11.5123320  44.7416639
  32.2508597 102.3396492  18.1282449  31.6455197 101.6012001  18.0613410
  32.7362061 102.1789360  18.9374685  34.9946737  95.9849072  16.6401970
  34.8206711  96.4494324  17.4588406  34.7723818  95.0734520  16.8300843
  33.7757349  87.4907875  27.2467089  33.5758781  87.3697662  28.1749535
  33.0418992  87.0813751  26.7883468  52.6792431 105.7135582  25.5194950
  51.9880056 106.3167763  25.2464700  52.2889662 104.8444366  25.4270411
  88.7139763   3.8842726  37.4372888  89.4530071   4.4833327  37.5430894
  89.0711845   3.0228091  37.6529694 106.9608177  16.1850692  48.3098030
 107.6536239  16.7280341  47.9337072 107.4236692  15.5540133  48.8609505
  78.8123144   2.2478915  24.7528219  79.3635811   2.5935603  25.4548526
  79.3515028   1.5777350  24.3328333  47.8371286 104.3249989  52.4276352
  47.4011135 105.1488209  52.6454496  47.2097206 103.8612747  51.8730688
  20.8802925  24.6649928  81.0644454  20.2084242  24.1332860  81.4911908
  20.4755055  24.9502034  80.2452785  76.5969695  12.5863314  36.8103433
  76.8208994  11.8358374  36.2600374  75.6507720  12.6862479  36.7056632
  91.8181419  80.8691216   9.6583009  92.5488758  81.4621353   9.4834167
  91.1661243  81.0898113   8.9931655  36.0458374 101.8266678  26.9565272
  35.5349159 101.2254333  27.4984694  35.7724905 102.6982307  27.2427154
 103.6902535 101.1724276  84.7143048 102.7469218 101.0217852  84.6537965
 103.8779604 101.7994494  84.0158468  22.7505207  64.1729593  15.5647635
  22.9303741  64.5669937  14.7111702  22.4352098  64.8995113  16.1022949
  42.7489519  86.3021660   7.9712313  43.5655069  86.7358398   7.7234507
  43.0169439  85.6218815   8.5889971  45.0179338  96.2675953  30.4888916
  45.1386118  96.7246056  31.3212466  45.9067965  96.1175346  30.1669765
  67.8198195  90.4529667   2.3795384  67.2917843  91.2484360   2.3113862
  68.7234592  90.7574463   2.2960810  32.3685956  98.1895828  46.2958956
  33.1525850  97.7211189  46.5824747  31.6605639  97.5525856  46.3915491
  25.9379077  92.1738338   9.1019189  25.1312995  92.2883224   8.5994160
  26.6103435  92.6091862   8.5779607  87.0467485   7.4731589  34.9338961
  86.7537655   8.3438254  35.2028322  86.7143358   6.8877841  35.6143951
  56.1699486  90.0973225  21.1351514  56.1705017  89.8256588  20.2173114
  55.2430630  90.1644611  21.3645077  56.7359638  96.5464497  20.7799053
  56.9782925  96.4861679  21.7039585  57.4338865  97.0674324  20.3827620
  14.4166075  53.1567616  87.1264899  14.2470108  53.2218213  88.0662960
  14.7335612  54.0255590  86.8795955  60.0477028  77.9608631  24.1858459
  59.2083454  77.6329184  24.5085859  60.0003099  78.9081526  24.3147874
 115.7434667  11.2784243  55.5534077 115.6245388  11.6793967  54.6924162
 116.6029228  11.5841914  55.8433676  31.3241315  92.3205566  32.2562957
  30.9954190  93.2176399  32.3146772  31.4601898  92.0556450  33.1659913
 111.0342278  93.4902859  39.5042634 111.9095709  93.7393188  39.2076349
 110.9931930  92.5445938  39.3620968 104.0594006  54.1886659  80.9325522
 103.8417817  53.3949132  80.4438573 104.8898340  54.4810910  80.5569178
  17.8101717  35.2492089  75.0728971  17.1147620  34.9852414  75.6753546
  17.3511683  35.4910703  74.2685014  18.8862931  45.1167054  88.3767080
  18.6557471  44.3606324  87.8368610  19.6421992  44.8253770  88.8865810
  57.8582954  49.2948389   5.0567549  58.5393620  49.8945475   5.3612757
  57.1235466  49.8636675   4.8269477   4.9191414  18.0560489  85.4889077
   5.2554737  18.9452548  85.3774458   5.5734621  17.6190562  86.0340053
  59.7146273  91.4559174  32.6311851  58.9811897  91.7436695  33.1747842
  59.3160200  90.8865738  31.9730163  22.5319886 100.5940628  20.9896350
  22.2209454  99.7188091  21.2207532  21.7854357 101.0065937  20.5552316
  43.8087940  97.3490238  25.2740335  44.1755486  98.1477928  25.6531048
  43.2166624  97.6590538  24.5888376  68.4135675  85.3205681  14.4401503
  67.7383995  85.3254986  13.7616575  68.7143803  86.2281513  14.4852972
  59.0724087  91.6379356  10.9193420  59.2727709  91.7581081  11.8475914
  58.5664654  90.8260345  10.8866727 108.4263850  25.5321450  71.1942392
 107.7509571  25.9428353  71.7340165 108.9318896  24.9989362  71.8077427
  68.4695864  83.9301109  25.0673628  68.9512491  83.6733055  24.2810535
  68.7560749  84.8266506  25.2416205  66.8329287  84.5763969   8.2054454
  66.8973637  83.7805939   7.6774478  66.0080481  84.9784088   7.9330719
  11.2368810 109.1001129   4.7954628  11.1208296 108.1541443   4.7065806
  11.0967886 109.4426060   3.9126781  89.8387409  28.1361337  89.4928139
  89.4787098  28.9192433  89.0764546  89.2928780  27.4199052  89.1683447
  66.3587141  83.5640717   0.2672091  66.4975834  82.6249027   0.1451327
  67.2367954  83.9431095   0.2279895  81.7765522  72.8438377  30.7463884
  82.6869011  72.9571581  30.4731512  81.8269539  72.2840977  31.5212321
  57.1630383  76.0346460  10.9088337  57.8186703  75.3582764  10.7388330
  56.3240385  75.5820608  10.8223701  40.6324291  89.3228340  19.3831503
  40.4497051  89.7691441  18.5563183  40.6031561  90.0169754  20.0415850
  87.9657555  89.7559357  55.9674263  88.1410503  90.5945778  55.5406094
  88.3174515  89.1017532  55.3636217 104.6969188  19.5071173  33.3355451
 105.3576816  19.2618991  33.9832258 105.2017702  19.7678996  32.5652528
   2.3063170  35.1108213  94.5628475   2.3384606  34.4457097  93.8752214
   3.1794487  35.0925965  94.9546964  17.3510729  62.8760953  92.3369786
  17.8531777  63.2888169  93.0396801  16.7983042  62.2342153  92.7826923
  79.1823673 107.1022415  11.1892962  78.9620256 107.7155304  10.4881871
  78.9084148 107.5469685  11.9914162  59.4231129  97.1656704  30.4718065
  58.8608789  97.6769352  29.8897982  59.9549294  96.6310024  29.8822927
   7.9846739  30.4721881   1.7436275   8.2026362  30.3023101   0.8271856
   8.3828043  31.3222838   1.9308992  92.1460832  13.6149741  13.7520409
  92.0429147  12.7224398  14.0821505  91.3949455  14.0900946  14.1074085
  64.6545935  66.3141489  16.5992785  65.0253916  66.3216305  17.4817109
  63.8520622  65.7988930  16.6810644 115.5196285  67.7892637  14.6747112
 114.7181129  68.0805731  14.2400301 115.3015614  66.9257879  15.0255454
  47.1381521  93.2943630  35.6967425  46.5060043  92.5771427  35.6497192
  47.8633738  92.9410362  36.2119579 107.1894169  96.2401104  37.8774118
 107.7867508  95.4974651  37.9663444 107.0566177  96.3289833  36.9336438
  70.9118652  60.6041050  31.5846348  71.4772463  60.7372141  32.3454618
  70.7993650  61.4793444  31.2137794  24.9596095 106.5137196  36.4919090
  25.1413131 106.1470222  37.3572111  25.7588816 106.3521099  35.9906340
  64.6668911  98.4943295  18.2582152  63.9650011  97.9884529  17.8487480
  65.0369978  97.9032898  18.9139020  78.0806732  91.2192440  56.1562204
  78.6578178  91.3838577  55.4105377  78.5812473  90.6305981  56.7211580
  56.9822931  66.2589836   2.8450850  57.4665260  65.7769394   3.5154450
  56.0774755  66.2599707   3.1573936  73.6688614  81.9427490  32.5002289
  72.7472019  81.6979408  32.4175167  73.8270998  81.9646358  33.4440041
  77.8398514 107.4344349   0.4896550  78.5131454 107.0894909  -0.0967989
  77.1302032 107.7046776  -0.0930962  56.2719154 103.2645607  51.5281010
  55.7214594 102.9233170  52.2329283  56.6035032 102.4841690  51.0839605
 100.2595056   9.5345927  13.3744466 100.0373949   8.6503363  13.6659646
 101.1951603   9.4936515  13.1767094  98.2253075  47.9974937  40.2264166
  97.4445248  47.7676678  39.7226453  98.6621189  47.1608829  40.3861761
  46.8140554 104.9288750  19.6849954  45.9845352 104.6510124  19.2965078
  47.2947311 105.3307438  18.9613330  86.8732929  97.1926880  45.6668472
  86.0169601  97.2306633  46.0928535  87.4979019  97.3801422  46.3675261
  50.6377602  98.8018608   9.5195317  50.2247190  97.9383850   9.5262128
  50.8412027  98.9771652  10.4382873  97.1157837  74.4924736  18.0760407
  97.7830505  73.9984417  17.5996864  96.2867737  74.2073870  17.6917231
 108.2147026  75.2675343  24.8094940 107.8608036  74.5592308  25.3473568
 108.2110977  74.9167204  23.9189053  92.7720417  26.1253978  35.2794743
  93.2787431  25.4253531  35.6910825  91.9941915  25.6870318  34.9344850
  87.5495148  92.6735497  16.5062773  87.5162125  91.9456673  17.1270156
  88.0949879  92.3515606  15.7886350  70.5971016   7.8516627  13.5101473
  70.5587519   7.0780135  14.0724826  69.7366322   8.2599784  13.6055279
  32.9824018 104.1541386  25.3505778  32.8337693 104.0322208  26.2882757
  32.1042109 104.2186356  24.9752736  63.8359690 101.2793541  10.3918958
  64.5052767 101.9375801  10.2048099  63.8486767 100.7013130   9.6290481
  37.5573993  73.3868647   2.5653371  37.9088020  73.7180758   1.7388701
  36.7926788  72.8705502   2.3106718  16.4486372  93.1465816  64.9902821
  15.5838096  93.4681320  65.2450609  16.6621530  92.4858284  65.6491041
  60.3907633 106.4273071  41.8361235  61.1503935 106.9187927  41.5236664
  59.7077227 107.0883179  41.9490433   9.6223003  94.2309284  36.1124420
   9.5098978  93.2994556  35.9228230   8.7310827  94.5619297  36.2238097
  46.1606299  26.2650723  93.2111136  45.6579577  25.6780381  93.7758595
  45.9891974  25.9490056  92.3240173  91.1354603   0.1385260  19.6695960
  90.9597887   1.0720874  19.7872102  92.0238460   0.1048136  19.3148160
  53.9431238 104.0766335   0.8633740  53.6025858 103.1823444   0.8409438
  53.3818102 104.5309830   1.4916505  36.9782972  89.0439034  18.6619198
  37.4171066  89.7021675  19.2007804  36.2806082  88.7027073  19.2214191
  66.7194843 106.8185616  62.2118521  66.3216400 107.0213509  63.0585098
  65.9798765 106.7634583  61.6067266  50.6441402 107.1923542  24.7180438
  50.4980898 106.8130112  23.8514423  49.8816681 107.7517414  24.8662305
  49.7892427  49.7069073   9.0653676  49.7920036  49.3754959   8.1673747
  50.7082558  49.6837521   9.3320394  59.3276691 104.0549183  22.5864697
  58.4314442 104.3904781  22.6067591  59.2294073 103.1202221  22.4050307
  50.5797100  70.0565910  13.6001587  51.3818789  70.5074072  13.8638270
  49.9569368  70.7610416  13.4208870  64.4450188  93.3960056  15.5713546
  64.1076040  94.2546082  15.3160298  65.3048706  93.5794449  15.9498274
  54.9152470  89.9287033  33.3436322  54.8506546  90.5130005  34.0990543
  55.3122807  89.1302776  33.6916471  56.1948824  98.0436802  16.9227421
  57.0397997  98.4794998  17.0341384  55.8252811  98.4363270  16.1318839
  15.0226771  40.6217809  87.4044978  15.3827416  41.1688180  88.1025886
  15.4572760  39.7760720  87.5146407  65.1660360  35.7998515  30.2604365
  66.0077895  35.3445769  30.2402043  64.5475091  35.1767684  29.8790884
  81.1056412  29.6555371  91.9730243  80.2697117  30.1111836  91.8738305
  81.7602904  30.3538652  91.9751563  42.0516972   2.5741435  13.0907381
  41.6084505   1.7261744  13.0638444  42.2631241   2.7046729  14.0151250
  97.5516952   8.3742667  21.1352921  97.2273887   9.0141440  21.7690182
  96.8220199   8.2465506  20.5290747  61.0042620  74.7749662   5.4145163
  60.7304668  74.8336506   6.3298428  61.9420862  74.5880175   5.4565603
  25.1697206 102.6392078  25.7826757  24.6995592 102.2064400  25.0700140
  25.3040957 101.9506359  26.4338660  57.6094627  95.7017231  10.5144298
  57.8901958  94.8797607  10.1121950  56.7157364  95.8307838  10.1968944
  78.1094980  75.6049204  20.8590269  78.2941008  75.0419569  20.1072097
  77.6216412  75.0452995  21.4632225  72.8013958   3.2191706  27.7238226
  72.5646366   3.9703990  28.2677197  73.6050357   3.4890605  27.2793531
 113.3863367   8.6831904  30.9618115 114.2757333   8.6100531  30.6156087
 112.8247560   8.6555720  30.1871514  81.1643505  92.2141361   8.6797446
  80.4014683  91.8614483   9.1378504  81.9149494  91.8435574   9.1439587
  92.8079128  96.0072517  56.3493252  92.8993607  96.3365555  57.2434330
  92.2183895  95.2573967  56.4293766  83.0141748  43.8886595  31.6356754
  82.6373209  43.2567359  32.2479582  83.9018787  43.5679007  31.4765620
 103.0429077  90.7590771  40.4005098 102.5798607  90.3335571  39.6788836
 102.4016666  91.3644981  40.7726765  34.0895963  77.5261450   1.4849383
  33.1579137  77.4818802   1.6999671  34.1728401  77.0218563   0.6756178
   1.4067196   2.3226214  23.1946731   2.0203137   2.8468657  22.6799846
   0.7674097   2.0066882  22.5561523  21.7098175  60.5767865  92.0503106
  21.5815531  60.9220738  92.9338017  22.4835812  61.0359616  91.7236936
  95.7483864  75.4916525  75.7750750  95.9719563  76.3760948  76.0649204
  96.3192272  74.9199152  76.2883854  61.0008764 106.4632130  44.4777203
  61.7212105 105.9529877  44.8478794  60.9881830 106.2225723  43.5513496
  66.0854149  99.0565205  43.3191681  66.3045979  99.7430325  43.9491606
  65.6470871  98.3840275  43.8405752  22.2502362  75.6082387  86.8934458
  22.8499209  74.9076886  86.6368693  22.6778399  76.0281701  87.6398021
 102.8742231   9.1579581  43.5966063 103.0812896   8.4952307  42.9377031
 102.5999750   8.6554766  44.3637609  29.9743258  30.4907746  60.9265739
  29.6461760  31.2963147  60.5270010  29.4755875  30.4060693  61.7391687
  28.0959784  31.4094300  88.7046331  27.5495898  30.9335752  89.3301374
  27.5846087  32.1877904  88.4835577  67.1174383  77.3616362  12.8533328
  66.6767168  77.4112606  13.7015867  67.6203203  76.5480947  12.8919256
  57.2490501  88.2349110  50.3574991  57.4793530  87.9053974  49.4888115
  57.1652555  89.1811943  50.2402449  80.9327126  96.6523075   0.4524231
  81.5497112  97.3491859   0.2290069  80.1823235  97.1094418   0.8321314
  -0.0553263  60.2078481  83.4623939   0.8279835  60.2016206  83.8311201
   0.0336586  60.6816525  82.6354605  56.9544315  90.1675797  13.5069871
  57.8290462  90.4486561  13.7758255  56.8321180  89.3212128  13.9370108
  28.0344080   1.4044619  49.6394634  27.6873755   1.2118579  48.7684250
  28.0044531   2.3590518  49.7035217  84.9340547   1.9468642   7.6508564
  85.4104341   2.7686930   7.5330150  84.3568433   2.1094657   8.3969259
  52.8547382  81.1919594  50.4815912  53.2960033  80.9290028  51.2892866
  52.3252344  80.4321480  50.2396536  30.6115126   2.9713488  35.2129102
  31.2969946   3.2049609  35.8388162  29.9744867   2.4770690  35.7287765
 109.5197738   1.2512923  25.5364442 108.6790003   0.7958937  25.4923558
 109.3376888   2.0416880  26.0447168  54.6831369  93.6597633  26.6176248
  54.2398262  92.8361893  26.8211675  53.9757490  94.2618179  26.3866043
  77.3872865  51.3853408  13.6077523  76.6898740  51.5963317  14.2285061
  78.1327475  51.1445571  14.1577876  50.4001760 105.6482410  59.7851467
  49.9287510 106.1974144  60.4115677  51.3214922 105.7484627  60.0246525
 113.8785709   3.4676505  22.7568936 113.9177240   4.3677951  22.4337196
 113.3315576   3.5181857  23.5407662  69.0532351 109.0708256  49.8868942
  68.8966894 109.7214317  50.5713177  68.7304640 109.4834995  49.0858030
  91.9736671 107.4227238  76.8677044  92.0512581 108.2530594  77.3375511
  91.2156105 106.9931889  77.2640419  84.3298149 109.0405464  27.3069763
  84.1616631 108.6681366  26.4413738  84.5168400 109.9639988  27.1381998
 116.0488905   4.4398928  40.0521660 115.5326666   3.8315535  39.5233202
 116.7857851   3.9169169  40.3679466  41.5613508  83.7656212   1.0283615
  40.9804773  83.2810402   1.6148752  41.0815430  84.5687389   0.8258288
  32.5086771  46.4543672  63.2051021  31.9845568  47.1945806  63.5110742
  33.1999432  46.8527265  62.6762372  44.8085009  40.0678868  69.4296485
  44.6210085  40.8165021  69.9959165  45.7374464  39.8863740  69.5723277
  11.2413584  53.8419576  87.2537458  12.1079241  53.7404485  87.6474362
  11.3870846  53.7108178  86.3168365  75.2266932  76.0180712  17.7490747
  74.4391203  76.4156199  17.3777103  75.4571772  75.3225899  17.1331084
  36.0594343   4.9564982  47.7975559  36.0893702   4.1820098  47.2358608
  35.9789156   5.6908370  47.1888733  37.0714355 103.4991837  20.1170754
  36.2075925 103.9114952  20.1188326  37.3053670 103.4371948  19.1909730
 102.7213777   5.1555110  14.3159616 103.2350029   4.5849848  14.8877287
 101.8108905   4.9553824  14.5332062  51.2315178 105.6556034   0.1007878
  51.5874720 105.6701851   0.9892230  51.9985914 105.5554008  -0.4629449
  83.6298180 102.7119255  60.6641626  84.3286896 103.2937622  60.9629488
  82.8481865 103.0218697  61.1215544 106.6292013   6.0588027   1.0671853
 106.9913734   5.4081012   0.4658135 106.1245454   6.6482306   0.5067110
  25.4126059  68.5779996  88.6451244  25.8751379  68.0848832  87.9675358
  24.8030268  69.1355462  88.1616068  75.3241587  78.5829926  54.4250250
  74.3684912  78.6371374  54.4253349  75.5117846  77.6594591  54.5927000
  45.8524370 104.2766762  55.4026413  45.7575703 104.6273994  56.2882042
  46.0312080 105.0439835  54.8590183  45.5189800 108.2571793  25.6698513
  45.4166174 109.1626644  25.3768659  46.4623117 108.1501007  25.7918620
  24.2507826  47.2764344  92.9140048  24.0417897  48.1324048  92.5400013
  24.6716343  47.4766679  93.7500794  80.7668842  12.9101897  37.1524286
  81.3588918  13.6077357  36.8710160  79.9084343  13.3305789  37.2031856
  53.0723715 105.5331993  18.5415184  52.8708363 105.4157925  19.4698679
  54.0281916 105.5711937  18.5068655  81.8108845  91.6999340  17.9633749
  81.2715149  92.4899197  17.9281843  81.1950684  90.9987545  18.1763113
 108.9084734  29.5315505  29.9257827 109.3762172  29.7684527  30.7266140
 107.9834808  29.6352626  30.1490879  20.5163359  18.9215136  38.0223131
  19.6717905  18.9472533  37.5725150  20.9694933  19.7109938  37.7263379
  21.7167257  43.1324053  44.6340990  21.9784903  42.4326659  45.2324867
  21.1361097  42.7046252  44.0047121   0.1714729  16.2510157  51.2374544
   0.7259106  16.8619300  51.7228556   0.4113125  15.3886367  51.5765715
  94.6063042  93.0999279  58.7122917  95.2742863  93.5262203  59.2492247
  93.8223076  93.0989075  59.2614603  89.6046162  88.0262375  19.9100363
  89.3571186  87.1738529  19.5516777  89.6904182  88.5926723  19.1432142
  73.2056952  75.7904530  51.4183807  72.5637722  75.6111622  50.7313395
  72.7169418  76.2778521  52.0815420 102.1256542 102.3388767   9.7222996
 102.4069118 102.6281261   8.8542777 102.2279358 101.3873672   9.7024918
  64.1488934 102.5471687  16.3525438  63.2233143 102.6418114  16.5774310
  64.5371389 102.1146107  17.1130621 102.0293058  12.9557372  13.2563484
 101.7802633  13.8796950  13.2336855 101.7218126  12.6456118  14.1081142
   6.1184286  31.9987059  84.3611813   6.3346743  31.8232775  85.2769756
   5.5802130  32.7897597  84.3894672  65.7327604  91.8868256  47.0896387
  64.9047232  91.5068150  47.3831892  66.4047813  91.3584709  47.5202942
  59.7026443  78.4433270  29.4702244  59.9192572  79.1865396  30.0331998
  60.5475855  78.0411530  29.2688179  51.1043453  99.5338631   0.4830417
  50.5519056  99.8938084   1.1769318  50.6055260  98.7923527   0.1401531
   9.0848517   3.7191058  40.3445148   9.9266123   4.1720629  40.3944540
   8.8044619   3.8341475  39.4365644  35.5040717 107.0471191  52.6939011
  34.5804977 107.0984173  52.9400969  35.5387354 107.4232006  51.8143559
  70.5813217  90.0225258  14.6663821  71.4325380  90.2136040  14.2724895
  70.2991962  90.8560467  15.0430679  86.2096214  96.6505814  34.3985415
  86.6900635  95.8304214  34.5114088  85.3579140  96.3836098  34.0527749
  25.4250370  51.4169068  94.4586941  26.3300358  51.4861150  94.1546865
  25.3507410  52.0820184  95.1430479  30.4951512  76.0709138  80.7986682
  30.7034766  75.1383157  80.8543926  29.5384919  76.1029286  80.7967931
  91.5088190   4.8709822   2.6990992  92.0010961   5.5612422   2.2547604
  91.8948234   4.0563441   2.3772144  30.9686017  98.7566185  42.7136803
  30.7822275  97.9670334  42.2056866  30.7079935  98.5335541  43.6073017
  70.0592566  97.1336365  31.5148878  69.2316818  96.6653347  31.6246390
  70.1446438  97.6587868  32.3106003  92.5496114   8.5277701  47.3338985
  92.2018875   8.0848933  48.1079626  93.3109964   8.0056811  47.0810318
 115.5951370  12.1061183  30.5002809 115.1187242  12.9268790  30.6252289
 115.2963175  11.5444613  31.2154603   8.7290453  16.2380839  44.8797274
   8.9299082  16.7058993  44.0691519   8.9044832  15.3194476  44.6758604
  99.9943174  11.7845488  53.8288403 100.4717697  11.6839648  53.0053377
  99.8225368  12.7240229  53.8928938  96.3709987   2.9393912  56.9851017
  96.7925609   2.0902491  57.1172380  96.7138923   3.4892417  57.6896095
 110.3697170  29.5549632  48.2130289 110.6198372  28.7249232  48.6188602
 110.0244201  29.3077040  47.3552036 100.3741455  95.7437801  83.7055874
 100.6443024  94.9726772  83.2069492  99.5837021  96.0511494  83.2617855
  55.5604636  61.2640138  89.5841050  55.4552828  61.2543435  90.5354595
  54.8615443  60.6959100  89.2600715  97.7095617   2.0199252  46.4572620
  97.9977907   2.9287673  46.3725901  96.7787279   2.0828200  46.6713428
  20.3919172  83.5861397  20.7806182  20.3353381  84.2327118  21.4841557
  19.7416353  82.9229259  21.0119629 116.0488332  13.8882971  12.5051045
 115.5568756  14.3169738  11.8047869 116.4785589  13.1476832  12.0772552
  74.2260218 100.8316517   5.7635367  74.7127819 101.2416744   5.0485712
  73.3130217 100.8569908   5.4771435  87.9281235  92.7031708   2.8194031
  88.8676167  92.6514244   2.9951847  87.8607845  93.2484055   2.0355585
  73.8260412  30.3666997  32.3722100  73.5625076  31.2103176  32.0046639
  73.1617165  29.7518325  32.0610213  47.6289034  93.5804081   7.7182913
  47.3058462  93.9726353   8.5294789  48.1562662  94.2687130   7.3128825
  79.8396301  87.7338314  14.6199405  78.9434242  88.0628681  14.5507669
  79.8094320  87.1067142  15.3424633  56.5169001  96.1579800  31.9201350
  57.1310902  96.8859291  32.0154762  57.0083332  95.4912472  31.4403534
  58.3122921  97.4612045  46.9528770  57.6183987  97.8416252  46.4143467
  58.8892508  97.0241928  46.3264799  26.4747047  80.2302551  18.1950760
  27.4032068  80.4615498  18.1702042  26.3850927  79.6826410  18.9750218
  74.1835117 104.2895317  25.8082581  74.0572786 104.3226147  24.8599958
  74.8363733 104.9664021  25.9867334 100.7328905   0.3152419  38.8245320
 100.5263056   0.2704955  39.7581005 100.0584615   0.8865309  38.4571004
  85.5088962  10.6726027  19.5758438  85.8793749  10.8745528  18.7166607
  85.6499256   9.7318602  19.6823692  16.6852259  12.2277880   7.7940941
  16.5706133  11.2834883   7.9008102  16.0139822  12.6155043   8.3556491
  95.7040943  31.2281943  19.1100812  95.0613416  31.7099524  18.5895014
  96.0025657  31.8587352  19.7654867  52.1039152  94.2669582  21.1618161
  51.8056345  94.8366451  20.4527855  51.3035297  93.8634491  21.4976621
  35.3263926   4.7523165  21.1405110  34.4060778   4.9813796  21.2700319
  35.5808806   4.3145991  21.9528413  92.9434681  88.9669418  41.1065292
  92.1488094  88.5617733  41.4538145  93.5909748  88.2619762  41.1055517
 107.4029268   3.9040900  35.7546926 107.8240455   4.5223857  35.1575351
 107.9131044   3.0991603  35.6649756  72.5187683  78.9639330  54.2896080
  72.2833157  79.3074608  55.1514578  71.7448997  79.1224051  53.7490129
  93.3958244 102.1439743  30.0305438  94.0994167 101.9567013  29.4091654
  92.7196407 101.4972210  29.8287654  86.1155033  93.8491535  33.0244303
  86.8734360  93.2695484  32.9480934  86.0428429  94.2629623  32.1643591
  39.3458319  97.1655083  54.7383642  39.1803002  97.7519608  55.4765415
  39.2986321  97.7312851  53.9677191 110.0312866  27.9137469  26.3771653
 110.7157768  27.5557090  25.8119130 110.1907839  28.8575698  26.3780618
  96.7382730  31.6209841  35.3289723  97.1080936  32.2682524  34.7285533
  96.9915403  30.7764388  34.9563622  87.7275337  27.1154547  26.3080740
  88.5025228  26.9349719  25.7760525  87.9312099  27.9357196  26.7574215
  93.0346359  22.0603419  42.5555944  92.3055519  21.4459086  42.4710798
  93.8138450  21.5050841  42.5830746  61.7068779  87.1925015  94.4606077
  61.7212903  88.1419916  94.3402134  61.0408675  87.0463366  95.1323937
  61.2802900   5.9115691  85.7628298  60.3329016   5.9982104  85.6570947
  61.4068736   5.7993836  86.7049676  18.6511600  24.8621440  32.4875546
  19.0859950  25.5276752  33.0206800  18.0089462  24.4656658  33.0762815
  28.0282354  59.5719862  32.8452063  27.0989370  59.7969818  32.8003573
  28.2640219  59.7097588  33.7626243  46.5746927  50.7709599   6.6549885
  47.2568655  50.5447435   6.0227710  46.3281679  49.9349880   7.0507336
  39.7868013  18.1047142  20.7349491  40.6173944  18.3392906  21.1488581
  39.9207330  17.2112703  20.4186416  20.8950806  49.1547632  21.6901851
  20.5248308  49.7237778  21.0153747  21.4322543  49.7376871  22.2267270
  94.7843183  11.2615819  84.5851320  95.5124248  11.6703887  84.1171890
  94.3546225  11.9862266  85.0395363  51.6194344   7.4851722  23.0073762
  51.2240267   8.3495605  23.1201530  51.1000061   6.9091535  23.5682940
  72.2034597  28.3835387  12.9639697  72.9274130  28.6359739  13.5370302
  71.9164705  27.5346160  13.3004177  26.5746247   1.9904943  93.9533601
  26.2255703   2.5249858  93.2401183  25.9795557   1.2425609  94.0055282
  49.9475670  35.7290673  20.0965714  50.8424187  35.3913474  20.0589180
  49.8325491  36.1954665  19.2686367  66.8845558  61.4292908   4.2826220
  67.0731258  60.6202555   3.8070852  67.3900080  61.3547039   5.0920588
  57.9642153  54.8987770  27.8773570  58.3779287  55.5329990  27.2918367
  58.6822319  54.3354368  28.1660390  10.4580748  12.1852422  41.1189842
   9.7654098  12.6621747  40.6618404  11.2519646  12.3802555  40.6210470
  56.6373014  22.9338479  38.5805845  56.4067316  23.5463810  39.2790651
  55.8358955  22.8463888  38.0645108 106.0808183   4.3397040  79.5503241
 105.5276442   3.6711831  79.1462105 106.7489530   4.5281596  78.8913005
 113.6707460  73.5186243   6.9291252 113.6425801  73.5271215   5.9723771
 114.6041392  73.5142708   7.1412331  57.5178671  71.5646172  17.8323841
  57.4384546  72.2257566  18.5200024  56.8125582  71.7710209  17.2190607
  59.1756105  50.1034498  15.8717048  58.4242582  50.6908369  15.9534633
  59.6821260  50.2498531  16.6706026  35.3861976  33.9852309  45.2090931
  35.9723186  34.7233343  45.3761244  34.9580240  33.8243484  46.0499334
  31.5472794  44.5352840  25.6768441  31.4538860  44.6682835  26.6201472
  30.8693361  45.0884199  25.2886915  51.3982487  40.8490419   8.2056087
  51.6003227  41.6517687   8.6862558  51.5979719  40.1442480   8.8217324
 106.7490580  24.8498082  32.8237987 107.0880433  25.2371049  33.6308432
 106.9425811  23.9160347  32.9065490  40.4184246  33.0278230  23.3977628
  40.3510284  33.4457660  24.2562580  40.7599688  32.1531057  23.5833669
  44.3705654  37.1721196  15.3802359  44.4383574  38.0873108  15.1080978
  44.4337082  37.2008181  16.3349199  95.8495438  99.4395251  90.8516279
  95.0811589 100.0032467  90.7620334  95.4934180  98.5873980  91.1031958
  14.3033981  15.8855617  31.1870623  14.5466101  14.9973309  30.9260559
  13.7208331  16.1887789  30.4907084  75.9756815  83.4022183  84.8789412
  75.5059778  83.4009952  84.0449101  76.7281067  83.9746494  84.7292393
  16.6112769  49.1904640  11.3110077  17.1779621  49.2869139  10.5456340
  17.1279430  49.5398235  12.0371163  46.3562584  37.9928112  20.5244231
  46.9119167  38.4817100  21.1314249  46.8649530  37.9510975  19.7146583
 106.9188286  26.9393582  76.1345953 106.5676952  26.4891095  75.3663426
 107.4668909  26.2841458  76.5665179  58.7900209  58.7787867  11.4446259
  57.9353905  58.5219574  11.0983896  58.8936329  59.6911478  11.1742675
  22.5344216  15.9253593  79.9005168  22.8124462  16.7470927  80.3050989
  22.9775416  15.9141393  79.0521353  79.5101130  96.0694498  92.9993967
  80.3251946  95.7247872  92.6345968  78.9007246  95.3322024  92.9628323
  19.7685456  19.2513740   3.4493443  19.7687602  19.9913776   4.0564904
  19.6746171  19.6510339   2.5846589  40.8448982  55.6728840  28.3815765
  40.6632614  56.3659382  29.0163350  41.5112543  56.0455179  27.8042173
   9.0817720  37.7815342   7.2283649   9.2505729  37.0135951   7.7742630
   9.9474829  38.1582093   7.0705867  26.7155671  38.9145684  19.6451688
  26.6581941  39.0392351  20.5924797  27.6530361  38.8306832  19.4709730
  31.7981982  15.1466501  40.2722216  32.0899916  16.0199988  40.0107861
  32.2237039  14.5559371  39.6507454  17.8464186  44.5032454   7.9955381
  18.7485969  44.2217493   8.1474197  17.4979067  43.8649273   7.3731858
  15.3952682  32.5939131  13.1231022  14.5054460  32.9282713  13.2355881
  15.3370988  32.0070910  12.3691225  34.5749461 106.6513165  25.3751063
  34.5840107 106.8797841  24.4456148  33.8688837 106.0102644  25.4573011
   4.4830090  36.9137335  31.0245013   5.3958619  36.9360065  31.3116169
   4.2034632  36.0123897  31.1847138  55.5712271  44.1461706  15.4711843
  55.5266047  45.0970888  15.3712118  54.6818161  43.8439941  15.2871394
  43.0920029  65.7937765   3.2344422  42.8747988  66.6224337   3.6614972
  42.3847723  65.2008533   3.4884089   1.8974739  82.1034336  38.4885764
   1.0676853  82.3230362  38.9121985   2.5514650  82.1935844  39.1816878
  66.0218073   5.0540395  82.8496188  66.1684025   4.9575896  83.7905973
  65.9260000   5.9972329  82.7175778  25.3035951  50.5624294  13.7015283
  25.3293705  50.4485607  12.7514744  25.6978893  49.7625875  14.0494025
  53.3124876  97.7627606  90.4463863  53.9422977  97.0628495  90.6187039
  53.7483871  98.5579819  90.7527375  78.6792099  88.2211346  85.7315081
  79.2418349  88.6362094  85.0777477  79.2516625  88.0807514  86.4857095
  68.3803403  93.2382125  92.1665373  67.7613890  93.3242673  92.8916073
  67.8284752  93.1246609  91.3927269  92.5831509  52.7873707  31.1865044
  93.3335114  52.3469257  30.7875109  92.6220131  52.5377464  32.1097636
  37.9290462  82.3068714  10.4904401  38.4892726  83.0579567  10.6860173
  37.8183532  82.3316860   9.5399857  36.5712214  91.8362427  14.8617494
  36.5830064  92.2751999  14.0112138  36.8712759  92.5029659  15.4795480
  65.3700447  53.2395411  19.4458020  65.9357977  53.3459234  18.6810541
  65.2714491  52.2921896  19.5408666  62.8836095 100.6209559  79.3350571
  62.7658093 101.4861292  79.7272688  63.0458510 100.7981057  78.4084886
  29.7561073  24.0473485  19.4264567  30.6496406  24.2236829  19.1319418
  29.5769143  23.1558681  19.1274786  78.1924963  37.2383904  10.8835125
  78.7908459  37.7794600  11.3987398  77.9561615  37.7877307  10.1361167
  39.4439220  80.6828117  20.5842900  39.7683620  81.5628624  20.7752681
  40.1806879  80.2426720  20.1603961  37.7966118  29.4295835  25.0829673
  38.4872079  29.8678136  25.5802202  37.0284700  29.9895811  25.1951957
  35.5770493  59.0110588  10.2889276  35.9656715  59.7024775   9.7530711
  35.8377361  59.2268801  11.1843026  22.2883677  37.0016313  27.4664140
  22.3836231  36.2904358  28.0999446  22.9623723  37.6346660  27.7138352
  50.0087499  75.9270257  94.7419927  49.3680680  76.0740418  95.4377965
  49.7111892  75.1277704  94.3073889  64.1267073 100.0377888  91.5515953
  64.7730481 100.4498095  92.1249336  64.4959819 100.1249403  90.6728041
  77.2340834 100.8829541  88.1830603  76.5052497 100.8631796  88.8032543
  77.9850447 100.5675358  88.6858529  44.1649818  48.0511284  26.9120574
  44.7997999  47.3482943  26.7732906  44.6838856  48.8543606  26.8697834
  35.4091001  54.6234512  23.2151175  34.7623158  54.1268587  23.7164140
  36.2416792  54.1899729  23.4025836  49.8547125  41.5591240  30.1748586
  49.1434145  42.0961094  29.8256755  50.6124449  42.1438694  30.1871395
  67.6367378  47.4544334  11.0309529  67.8334665  46.7363214  10.4294157
  66.6900253  47.5754642  10.9579790  91.6436064  84.8334021  91.4511370
  90.7504761  84.9865550  91.7595020  91.5338862  84.3859882  90.6120819
  51.8334675  47.4892092   1.5493432  50.9957790  47.1388578   1.8522681
  52.4084854  46.7255974   1.4994863  33.0579495  18.5214424  12.3177171
  33.9022231  18.1844223  12.6174736  32.7191234  19.0163875  13.0636775
  60.3134119 104.8055596  85.9434336  59.9148929 105.2152199  86.7112839
  60.8080899 105.5104536  85.5255258  43.8183117  21.5912580  25.8361530
  43.2356071  22.2305679  25.4263067  43.4145689  20.7440209  25.6479645
  78.2304414   9.1241784  89.6372115  77.9107235   9.7841497  89.0220284
  78.3061555   9.5898242  90.4700815  49.8020554  66.6413689  13.3566964
  49.3406248  66.0056973  12.8096712  49.7643709  67.4579430  12.8586864
  91.0399151  24.3378210   1.8371712  91.9067478  24.7438192   1.8373112
  90.8203983  24.2421556   0.9104086  12.6494348   6.6769427  22.9308081
  13.1747770   6.1205071  22.3558068  12.5660479   6.1734289  23.7405944
  83.9133167  43.1721210  10.3261793  84.7141075  43.6685896  10.1574039
  83.6839294  42.7920485   9.4781482  71.6133440  12.2507281  87.0040798
  71.5256281  11.4967914  86.4208817  70.8253814  12.7701421  86.8442225
  18.7789237  29.0162563  60.9007692  18.5325372  29.6085715  60.1903582
  19.3186295  28.3477020  60.4788876  58.0281448  57.5586510   3.3087265
  57.6478434  58.3963346   3.5731009  58.6564207  57.3518324   4.0006268
   9.4533097  33.8131948  80.2443725   8.8056265  34.5167584  80.2026623
   9.0996777  33.1281514  79.6770173  35.9001160  54.9785376  27.6007533
  35.9416318  54.7744989  28.5350323  36.5480185  54.3990088  27.2000074
  40.2616405  34.3875146  47.7296257  40.3552961  33.5075045  48.0943823
  40.7676792  34.3652463  46.9174337  72.0351159  64.2124141  64.9655419
  71.1778295  63.9914287  64.6015960  72.6618492  63.8442034  64.3427592
  26.5289998  63.9674997   5.4086006  25.7632709  64.4972372   5.6305683
  26.2255907  63.0630922   5.4874814  59.4748783  38.6479163  32.6639318
  59.8974895  37.7947855  32.7629328  59.1518736  38.8583112  33.5400796
  14.8824096  16.1407924  10.9674323  15.1721621  16.8657029  11.5213096
  13.9539516  16.3142681  10.8121789   1.6128050   9.6337552  88.6380017
   1.2444292   8.7884660  88.8949334   2.2016941   9.8665233  89.3558186
  60.6891346  49.1584206   1.8030392  61.1770964  49.8359919   2.2710426
  60.5605650  48.4653616   2.4506259  74.9830055  28.6244988  16.8311608
  75.7182932  28.0531263  16.6095340  74.3825865  28.0629110  17.3214102
 107.6136601  88.5225434  58.9011889 106.8889534  89.0771670  59.1900235
 108.0120146  89.0064496  58.1777388  44.3590689  40.5038357  21.8605518
  44.3915701  40.1460361  22.7477694  43.5432911  40.1623487  21.4943171
  14.0497577  74.8411942  16.2020409  14.2117465  75.5421305  16.8334508
  13.6576962  74.1381598  16.7199790  32.2402453  42.3183441  23.3167553
  32.3231483  42.7770233  24.1528010  31.7765236  41.5092230  23.5324240
  78.8766443  92.4367756  84.4835430  78.2631719  91.7360467  84.2624992
  78.5731661  92.7623171  85.3309834  22.1685791  24.3378139   8.8975316
  22.9325771  24.3492723   8.3209860  21.7682195  23.4813833   8.7476295
  20.5198717  44.3731928  15.3658605  21.2456298  44.0353775  14.8410857
  19.7472823  44.2480898  14.8147833  40.3335381  42.9294538  15.2130973
  40.1769972  42.8619766  14.2711973  40.0965691  43.8308191  15.4313135
  54.8341703  44.8461676  23.1475449  55.6645870  44.6961308  23.5993528
  54.2408037  44.1898346  23.5127521  23.5654723 101.0877985  86.5027547
  23.6323702 100.3322024  85.9189510  22.7154684 100.9852499  86.9307840
  31.2105370  31.2064600  29.6492648  30.6803775  31.1109042  30.4404879
  32.0378208  31.5755939  29.9584126  45.5371284  47.7881098  11.6369998
  44.6364260  47.9420614  11.3519323  45.4505348  47.2524881  12.4255705
 107.2707959  34.2401671   0.5279465 107.3357435  34.4428945   1.4611746
 106.8680420  35.0177288   0.1413999  25.1187778  46.9611359  23.3302402
  25.6381035  46.3545704  23.8580751  24.2397404  46.5823221  23.3254504
 100.5282318 104.9361939  88.4106737 100.4968321 105.8078570  88.8049459
 101.0357201 105.0546307  87.6077670 109.4165374   7.8324838  76.3762015
 110.1920820   7.3318906  76.6295081 109.2913986   8.4577985  77.0900339
  48.4076691  52.6154184  10.1240623  48.3763218  51.6623116  10.2067661
  48.9027691  52.9061365  10.8899558  61.4074469  35.9986281  24.9712086
  61.0482407  35.4752421  25.6876349  61.2852335  35.4550862  24.1928411
  36.8306947  79.4960690  15.8227491  36.5629196  79.3567610  16.7311096
  37.7770782  79.6315241  15.8701181  99.2133152  89.7941155  73.6135226
  99.4319832  89.9757356  72.6995021  98.5108292  89.1455669  73.5674196
  19.6154249  63.6753464  29.0715623  20.4357386  63.2019234  28.9330363
  19.8524189  64.5979118  28.9770365  56.1872005  64.9156475  13.2535636
  55.3739977  64.9637842  13.7561727  56.1932230  64.0293598  12.8920460
  49.9926805  32.4669790  12.8601396  50.2652454  32.5075340  13.7768161
  50.2297878  33.3222747  12.5016975  47.5326347  48.0880833   6.9611323
  48.3034420  47.6047182   6.6637397  46.7966366  47.5071621   6.7686087
  91.7980576  54.5506048   7.0655328  92.0065975  54.0402031   7.8479880
  90.8505821  54.6794891   7.1091199  49.1735792  64.2323351   6.8927848
  49.3587828  65.0650597   7.3269558  48.3021593  64.3482828   6.5140808
  58.5938597  45.1473761  32.5597763  57.8322077  44.7569561  32.1311831
  59.2440987  45.2316332  31.8624067 109.8686362  16.1415763  93.1115889
 108.9942456  15.9439273  93.4471619 110.4601336  15.8874221  93.8199460
  98.3218252 101.8987793  79.4589156  97.6728165 102.5227923  79.7839290
  98.9322102 101.7866511  80.1876718  34.4738221  60.9689331   2.7772483
  35.0754595  60.8120441   3.5050198  35.0010920  60.8154154   1.9932517
   9.6667038   6.1891360  91.8503314   9.9217306   5.4013104  91.3702029
   9.9550711   6.9126172  91.2938663   3.8332926  14.6569486  83.4735697
   2.8977953  14.6162124  83.2750338   3.8980089  15.2827306  84.1949850
 108.2710840  46.6916704   9.4527811 108.7081977  46.4690351  10.2747285
 107.9694017  45.8517265   9.1067845  20.6348300  59.5093441  31.9877100
  20.6413603  58.5586071  32.0985508  19.7065377  59.7422791  31.9720387
  24.3511820  27.4294567  42.1628571  23.9662576  26.5604138  42.2761345
  25.2499557  27.3363423  42.4787188  73.0403614  61.8178415  20.6830382
  73.1620789  61.4288616  19.8169506  72.5211954  62.6055288  20.5210185
  28.3582627  33.4977860  92.7749257  28.5563837  33.6947484  93.6904494
  27.4037396  33.4327931  92.7450520 116.0270167  26.1914868  75.3710121
 115.3181172  25.7628102  74.8915058 115.8069230  27.1225972  75.3421074
  33.0974674  50.3190947  13.3730948  32.6337647  51.0615110  13.7604320
  33.1143498  50.5101061  12.4352992  34.9079609  66.3941956   4.4302711
  35.2981114  66.5916395   5.2817583  33.9830542  66.2380219   4.6210271
  49.5963669  14.2877662   6.1294550  49.2634583  13.7614834   6.8563861
  50.4775476  14.5431089   6.4024872   2.7427183   9.6620269  67.6928359
   1.8358027   9.8311610  67.4376255   2.8087460   8.7076135  67.7239877
  74.7906673 109.1729016  89.8609745  75.1275885 110.0486893  90.0499451
  74.4377243 108.8666529  90.6963631  21.1759793   3.7263389  92.1425301
  20.5523859   3.6520476  91.4201408  20.8941304   3.0621190  92.7715046
  45.9012508  62.0882750  30.6078720  45.3865147  62.7748966  31.0319281
  45.6143141  61.2785387  31.0300446  78.8607693  48.1296349   5.3911501
  78.8568687  48.6737728   6.1786366  78.5868692  48.7209797   4.6900606
  19.7514176  32.9535937  32.1188068  19.2437994  33.7312841  31.8869615
  19.7559607  32.9471135  33.0759740  17.3767948  36.4499283  18.4139144
  18.0135453  37.1480417  18.2608879  16.6167283  36.6995859  17.8883660
  75.1832008  24.9666595   1.0174926  75.5868435  24.3256044   0.4323829
  75.9190178  25.4714823   1.3638383  25.3602958  54.3327808  16.1794925
  25.6183696  53.6888027  16.8389821  25.9095836  54.1327047  15.4215443
  67.8152501 102.8231711  85.4188746  67.1575939 103.2466358  85.9705966
  67.8149903 103.3351225  84.6100873 113.6964346  26.8147512  90.7250184
 112.7906061  26.7839665  91.0328471 114.2217685  26.8046899  91.5251151
  30.8000088  54.1373110   9.7033596  31.7275453  54.2834187   9.5174557
  30.3401732  54.7267199   9.1055477  54.2603540  65.7446766  32.6128173
  54.1532660  66.3741446  33.3259320  54.9221611  65.1312733  32.9321623
  10.4037678  70.8224201  28.3689594   9.7240651  70.4796553  28.9492607
   9.9367201  71.4073324  27.7723217  77.4962807  60.8603811  24.8612452
  78.1069183  60.1574659  24.6393061  76.6322088  60.4972410  24.6669841
  68.3364964  21.6884279  17.2963071  68.0566311  22.5594544  17.0148504
  68.5250425  21.2225628  16.4816582  44.5351601  97.0151997   7.8376085
  45.1436901  97.2575092   8.5356128  44.2507648  96.1298180   8.0644494
  40.5619287  37.5604081  15.7313299  40.1318979  36.7727423  16.0643315
  40.5471849  37.4572515  14.7798193  12.8271042   9.7279162  87.5964647
  12.2509896  10.2042956  88.1942850  12.2312008   9.2540545  87.0163059
  56.0126757  98.7839312  92.3658335  55.5672657  97.9491181  92.5104892
  56.9443989  98.5665554  92.3953530 113.7265993  14.7017427  93.1660151
 114.1128398  14.1096015  93.8113238 113.5817672  15.5172725  93.6457661
  39.2091060  94.2600536  22.4110746  39.9643087  93.6816216  22.5174379
  38.9750433  94.1807652  21.4863253  64.2305183  67.8234768  26.8732858
  64.1374493  68.4307861  27.6072764  64.2165422  66.9557524  27.2771287
   4.1073691  12.5489945  85.9271419   4.3512617  12.7033086  85.0144893
   4.7552000  13.0383153  86.4342034  20.4466796   7.4278861  14.9006367
  20.1081133   6.7142189  15.4412699  19.6822238   7.9748356  14.7198498
  94.3577671  45.9150028   5.7085246  94.8542786  46.5806150   6.1846298
  95.0258446  45.3612709   5.3044277  68.2186424 109.4146342  59.0420562
  68.8754451 108.9849228  58.4941584  67.4206483 108.9043278  58.9041120
  64.5992994  39.9264860   7.9875416  63.7411118  40.0481367   8.3936751
  64.9815226  39.1828084   8.4534603  52.0091629 103.7218857   7.7030379
  51.3979006 103.6451626   8.4356380  52.4843454 102.8909683   7.6995581
  44.6651840  56.3395786  12.7924323  45.3035593  56.2825346  12.0814764
  44.7184563  55.4903650  13.2308733  30.0703144  61.4364004  16.5272129
  29.8158073  60.5910110  16.1573792  29.2963290  61.9887352  16.4171898
  20.0876451  77.9154062   8.7812442  19.4214594  77.9489136   8.0947268
  19.6357501  77.5365162   9.5352101  20.3913056   1.5759892  93.9937168
  20.7862555   0.9467740  93.3901155  19.5584475   1.1766286  94.2448891
  43.2283974  37.8386664  22.1337175  44.0758085  38.2139158  22.3731089
  43.3441544  36.8950748  22.2453666  80.4244518  72.4246788  21.4035177
  81.3775539  72.4868965  21.4664626  80.2260303  72.6884842  20.5050373
  44.3546438  70.8014107  11.2678659  44.4067335  71.6668224  11.6735506
  45.0620890  70.7961607  10.6231022  32.2733527 100.4284376  89.8032826
  32.8247881 100.7652850  90.5094585  32.3893177  99.4790310  89.8409456
  44.0488863  96.8454361  13.2880664  44.4791222  97.6601887  13.0286562
  43.2387972  96.8295574  12.7784240  26.7475390  81.8760014  14.9346352
  26.1649585  81.2802219  15.4056752  27.2036576  82.3594189  15.6234753
  64.5785415 106.0130114  84.9974233  64.2783797 105.3788990  84.3462389
  65.4116070 106.3343901  84.6525365  43.5649300  90.1474190  27.4820399
  42.8518438  90.6559658  27.8681993  44.2038250  90.8036804  27.2038841
  59.6157503  62.2106409   2.1393928  59.4844913  62.4859905   3.0466884
  60.4215956  61.6944790   2.1599343  64.4275761  61.4789820  27.5521207
  64.4338751  60.6841946  28.0855155  65.3498507  61.7235899  27.4758959
  58.7030411  84.4958782   4.5456117  58.2758188  84.7713661   3.7345481
  58.1303549  84.8208904   5.2403271  34.1232967  66.2048578  10.9913874
  33.7196302  66.7031288  11.7020285  34.7478747  66.8134928  10.5968046
  75.0789070  53.2548332  33.4611416  74.8019552  52.3530579  33.6234021
  75.0881910  53.6620712  34.3273401  30.6212592  66.8162537  15.4347932
  30.1952648  66.1671686  14.8749292  30.0220847  66.9258022  16.1731851
  13.4916151  72.7658272  17.9268181  13.2077634  71.8597126  17.8059304
  13.3978772  72.9228544  18.8663852  29.1440821  63.1239462   8.7499058
  29.5158291  63.8149929   8.2017362  28.2079387  63.3210516   8.7817603
  62.6972294  80.7225037  29.1519380  63.2406378  80.8694267  29.9261189
  63.0610847  81.3093662  28.4890389 102.3014986 101.5702719  55.1173526
 102.9620611 101.0894532  55.6160551 101.5579855 101.6459412  55.7154232
  91.0495388 104.2415900  78.2580000  90.4333174 103.7637324  77.7028817
  90.6043493 104.3147559  79.1022056  64.2616665 107.7615065  77.1372670
  64.0832364 108.6597723  76.8588620  63.7375247 107.2194189  76.5476471
  37.3241316  27.6152272  88.2325148  36.5906512  28.2293839  88.2649690
  37.8153979  27.7861829  89.0360445  37.4251986  93.9029503  16.3409102
  37.1316600  94.1406727  17.2204304  38.2583308  94.3620205  16.2342227
  53.2415819  21.8889976   0.6722443  53.2332563  22.7226973   0.2020245
  52.9477024  22.1095824   1.5561059  10.1004731  49.9514337  81.4195817
   9.3445240  50.3271050  80.9683138  10.0633274  50.3244157  82.3003417
  31.6551518  61.2839413   2.5206336  32.5722361  61.2613392   2.7939087
  31.5785480  62.0868587   2.0051843  32.5251603  60.4338455   5.9240985
  31.7269754  60.2270651   5.4379153  32.2141933  60.8361673   6.7350662
  78.9927959  44.9583101   5.3363937  78.3850574  44.4338894   4.8149869
  78.6197948  45.8397579   5.3243124  29.1853166  78.6198902   4.9633345
  28.3883643  78.3741951   5.4331589  29.1419530  79.5740604   4.9007913
  20.4001260  62.6998091  14.2062509  19.7323787  63.3852673  14.2283535
  21.2280107  63.1742764  14.1306150  82.6612484  90.1871914  93.2396486
  82.3091280  89.9448127  92.3832062  82.1557677  90.9582371  93.4969535
  43.0236340  48.5008478  14.5528579  43.7898636  48.4914684  15.1264763
  43.3834696  48.4058714  13.6709690  39.4256926  56.4775038   7.7295405
  39.2510605  57.4080181   7.8705311  40.3580523  56.4383888   7.5164521
   7.8849732   6.8593640  83.3490211   7.9774939   7.0591874  82.4174946
   8.0795895   5.9244056  83.4139067  79.6055365  55.3505087  30.3318572
  79.1371107  55.6208801  31.1216116  80.2592468  54.7246218  30.6435657
  15.6066023  28.4048982  93.4793085  15.8233868  27.6061959  92.9983595
  15.0836073  28.1028218  94.2219084  52.1791935  70.6735945   5.4689622
  51.5458679  70.9757566   4.8179415  51.6879940  70.6549311   6.2903064
  87.3170973  14.0798135  52.8841430  88.0568815  14.2424769  52.2989160
  87.4615742  13.1921191  53.2117873  24.6614872  29.9283071  84.4146591
  25.0221907  29.3070550  83.7820738  25.0103318  29.6407743  85.2583778
 104.2662836  35.1361985  56.8847519 103.8196302  34.8876996  57.6940614
 103.5724665  35.1595635  56.2257319  89.0703691  16.0529847  77.8252631
  89.1635574  16.6804023  78.5421246  88.5876358  15.3208776  78.2089633
  68.5729456  35.1545072  21.3916564  69.3810225  34.6436548  21.4392924
  68.5605192  35.5004120  20.4992294  93.3465696   7.1809382  90.4956993
  93.6176790   6.5025182  89.8772543  94.0943731   7.2806592  91.0848325
  17.3263526  47.1445894   7.4284518  17.4762261  46.2370253   7.6932073
  16.8317425  47.0772648   6.6117150 111.7174580  74.3811083  17.0921922
 111.3102742  73.5214663  16.9851816 112.5963434  74.1906834  17.4201095
 107.9793226  77.8267378  83.9862257 107.8700411  78.7170762  83.6521798
 107.3289549  77.7513952  84.6844941  40.2803373  78.8175249   4.1113320
  40.7134295  79.6454191   3.9033592  39.7706628  79.0052271   4.8995143
  11.3613211  25.6206937  71.9055277  11.4408575  26.4839597  71.4997107
  10.8513104  25.1075025  71.2788278  59.2960644  53.7150812  22.4120569
  59.8561001  54.4343519  22.1201062  58.5509157  53.7327576  21.8114924
  69.6828890  32.5058031  31.9011068  69.5084143  31.7073154  32.3993111
  69.9799013  32.1945214  31.0460496  53.4995222  31.9555116  12.2784698
  53.3317900  31.1031437  12.6804233  53.6629915  32.5409961  13.0178726
  80.0374317  51.3589859  18.0993378  80.6380272  50.9361935  18.7131488
  79.7960949  52.1802711  18.5276759  34.5576763  28.5755610   7.6361173
  34.8376226  28.6685658   8.5467285  33.7375546  28.0845594   7.6866263
  58.3358538  98.4994740  82.0540207  58.5062670  99.4381661  81.9762546
  58.8002348  98.1095738  81.3133722  53.9527225  13.9997697  42.8693151
  54.7120237  14.5196652  43.1327629  53.2171774  14.6107209  42.9133749
   5.5443738 104.7030873  83.1540590   5.0713513 104.9091143  82.3478108
   5.3367970 105.4268069  83.7451380  26.2749743  25.0033712  11.5163577
  25.8330631  24.1733193  11.6951239  25.7069874  25.4461718  10.8858430
  39.4025040  28.3255863  48.7842703  39.2432904  29.1587663  49.2277718
  38.9858794  28.4263849  47.9284096  30.9836030  52.7885294  12.2040522
  31.2218690  52.8981352  11.2834823  30.1947951  52.2466564  12.1844161
  72.8911638  25.2424312   0.0213759  73.7546492  25.2369499   0.4344095
  72.3743153  24.6247458   0.5386391  12.8641343  64.7915697  38.1889868
  12.8260934  64.2957497  37.3710942  11.9710112  65.1111889  38.3170748
 115.2366984  75.2815360  92.4755424 114.7344458  74.5346314  92.1497986
 114.5739090  75.9012193  92.7803960  28.6763178   5.8607907  81.3256889
  28.2407891   6.5318627  81.8512422  28.0755602   5.1157899  81.3428980
 112.1157266  37.0779367  68.0483609 112.7509952  36.6607900  67.4664193
 112.6162649  37.2910924  68.8359242  50.9426641  63.8151789   9.5892256
  51.8054867  63.7271309   9.1842413  50.6422472  64.6851110   9.3261606
 105.8027973  77.7976751  16.4774120 106.5632029  77.2442198  16.2993526
 106.1124696  78.4281874  17.1276343  34.9504304  40.8560514  10.1811016
  34.2089248  41.4089680  10.4274321  34.6237946  40.3278828   9.4526935
  56.2334299  51.4709473   4.7082165  56.8406487  52.2107315   4.6928236
  55.3908110  51.8576241   4.9463484 104.5456959  40.7830853  93.2826908
 103.6397625  40.9229989  93.5582647 104.4735385  40.3096337  92.4539178
 113.6426116  11.0063691  91.9445276 113.5933782  10.3249879  91.2740588
 114.1332651  11.7157645  91.5294984  51.5063524  53.0760670   6.9191575
  50.9477186  53.1877756   6.1499500  51.5380096  53.9445591   7.3203456
  91.0145283  92.5670910   1.8954973  91.9501209  92.6751328   2.0664454
  90.8275032  93.1840897   1.1879935  31.9868469  66.7495108   4.7543025
  31.6578937  66.7340755   5.6530708  31.6267061  65.9582186   4.3538198
  41.0999966  54.9340916  25.3703237  40.9242725  54.2156363  24.7627258
  41.7706585  54.5901585  25.9603667   9.4824845  70.0112343  33.7776709
   9.8990732  70.8575726  33.6151981   9.3489617  69.9879742  34.7252274
  23.8385260  58.8513199  86.2730860  24.6162212  58.5167075  85.8264816
  23.1295180  58.7320191  85.6411785  92.9109287  85.3382206  40.2345419
  92.3276043  85.7660675  39.6077132  93.6722183  85.9161377  40.2862835
  16.3825858  59.4736576  18.0874038  15.6092048  59.9094057  17.7293062
  17.1060908  59.7843218  17.5431073  31.9246531  31.1678386  26.9206285
  31.4690375  30.9268689  27.7272153  31.7040801  30.4702687  26.3033962
  61.1941195  54.5800638   6.8821824  60.8412457  53.7547016   7.2145802
  61.6344547  54.9730635   7.6357663  82.4020540 107.6771063  91.3323685
  82.7221262 106.7829508  91.2128737  82.9095709 108.0166621  92.0695010
  43.6175680  65.5038738   0.3592411  42.7667952  65.0925684   0.2067598
  43.6537361  65.6352091   1.3066974  43.1681528 103.3294386  93.2584032
  42.4822747 103.9861149  93.1376603  43.8411051 103.5658211  92.6200527
  59.5562220  80.7196712  24.7579527  58.6806440  80.7476902  24.3721938
  60.0696087  81.3324642  24.2315054  14.3298578  64.0509510  15.5570710
  14.3983054  64.1092110  16.5100420  13.4017467  63.8834572  15.3933990
  44.1795895  95.9324736  71.3082009  43.7645600  95.3786177  71.9694334
  43.5922215  96.6833062  71.2217217  83.2550823  97.6042694  94.2017185
  82.4749338  97.4390406  94.7311495  83.6711704  96.7466873  94.1141779
  38.3530402  56.2666798  22.1700668  39.2714667  56.1460209  22.4112415
  37.8645849  55.7894802  22.8408313  97.3577320 100.8703560  88.5397583
  97.3155224 100.6929011  89.4794172  97.7041161 101.7606491  88.4794682
  72.8836870  69.3126011  17.1258414  72.2619200  69.6904707  17.7478147
  73.6708403  69.8493767  17.2180223  52.3354101  77.2837496  14.8444557
  52.5778770  78.2082367  14.7918749  52.4009323  77.0715332  15.7755315
  21.6723919  59.3370771  11.4028907  22.0483017  58.9085913  10.6339133
  21.6157126  60.2608395  11.1585903   3.9241778  46.0851903  76.8347829
   3.7056099  45.2378697  77.2227341   3.2400500  46.6762109  77.1492535
  50.0517607  73.2606316  14.3102837  49.9752903  74.0446186  13.7664580
  50.0512123  73.5912609  15.2085698  61.0949707  23.8759160  10.7234704
  61.9825745  23.5197377  10.7625425  61.2167406  24.7984242  10.4990184
  43.5215330  56.8977785  24.4297767  43.3275843  57.7852726  24.7313929
  42.6983213  56.4220142  24.5402336  25.7713925   8.4079118  88.9652037
  25.2494561   9.0721030  88.5150188  26.0069023   7.7830071  88.2794493
  79.4518290  11.6028161  87.1077782  79.3982836  10.6555648  86.9809669
  80.3869037  11.7995257  87.0514560  45.8381319  49.9255753  32.5620031
  45.7263136  49.4033861  33.3563900  46.5592909  49.5019817  32.0964646
  60.3325116  84.4556135  78.0405110  60.7033264  85.2743048  78.3698600
  61.0449707  84.0524501  77.5444299  56.8639088  28.8692427  24.4589591
  57.5283575  29.4954991  24.1716576  56.6259718  28.3911729  23.6645627
  12.8300822  67.9930449  14.0409505  12.0243406  67.4769735  14.0147698
  13.3946514  67.5892591  13.3818185 108.8863003  86.3631410  60.2620917
 108.9161265  85.7004709  59.5720106 108.5520899  87.1473855  59.8267776
  54.5689559 102.7467388  91.0088008  54.7929132 101.9110054  90.5993750
  53.6449921 102.6587910  91.2428683  53.9980602  52.3649740  18.5320210
  53.7303352  51.6727877  19.1365314  54.6881676  51.9662857  18.0018950
   4.3905007  28.8378758  92.6042007   4.1350399  28.0451818  93.0760090
   4.6036421  28.5333867  91.7221072  99.5932972  75.6706614  82.7643841
  99.9933541  76.3354153  82.2037679  99.8129093  75.9445996  83.6548668
  11.7092310   4.1098685  82.5679403  12.4867283   3.7264771  82.1620637
  11.8514954   5.0548263  82.5127083  21.6904235  25.2300763  13.7209010
  20.9070158  25.4791498  13.2305264  21.6235733  25.7167625  14.5424223
  94.5870198  13.4256072  86.5486944  93.9390946  14.1188617  86.6744882
  94.4677878  12.8468318  87.3017102  59.4429588  91.1216640  14.2924809
  60.0193119  91.8824196  14.2196321  59.8162842  90.6059170  15.0072241
  43.3008575  94.6583462  21.9721270  43.6911583  93.8117504  21.7549610
  42.7600622  94.4823360  22.7420592  57.0883131  42.7956295  12.9688871
  56.2195826  42.9404068  12.5939548  57.0786476  43.2847452  13.7916279
 100.2097894  19.2728753  56.2822395 100.7970906  18.5389323  56.1015731
  99.3310834  18.9017291  56.2025100  11.0151802  18.3324094  94.1763046
  11.6673027  18.0416341  93.5387951  10.2997481  18.6815829  93.6448301
  46.0969734  50.1910639  26.8856382  46.6330814  50.9678125  27.0452642
  45.7995749  50.2870989  25.9808946  76.0696554  31.4404511   5.5157548
  75.2615213  31.9480395   5.4415524  76.4885998  31.5306687   4.6598479
  63.5060692  38.1156397  58.1239176  63.7941980  38.4387159  58.9776373
  64.0121746  38.6257219  57.4915361  23.3298898  92.3941803   0.7708785
  22.7459335  92.7393627   1.4462087  23.5971332  93.1641483   0.2689201
   9.2053293   3.8778544  21.8500805  10.0762343   3.9297820  21.4563060
   8.7583517   4.6685267  21.5479732  63.1197500  37.4102187  22.7710414
  62.4805546  36.6989398  22.7292681  62.7681017  38.0099082  23.4290290
 113.9958478  37.1152158  70.0480896 113.7374378  37.1810288  70.9673983
 114.0516067  36.1742349  69.8817402  73.5144377  53.6415148  14.9967885
  72.7976322  54.1206121  15.4125869  73.1761360  53.4067869  14.1326773
  22.5980210  60.3126955  16.9665921  22.6053667  60.3064489  16.0094404
  21.9869518  61.0125542  17.1968591  78.4884453 104.0605450  20.7872820
  78.6644030 103.3409214  21.3934255  77.5460196 104.0133095  20.6265521
  41.6962194 102.2509098  19.1777349  40.9836054 102.1374512  19.8066556
  41.3155031 102.7808762  18.4774292  21.9971453  30.7395787  84.1288298
  22.8210579  30.2537293  84.0921575  21.9644057  31.0887094  85.0194877
  52.8050089 106.1454391  32.7283692  52.2075891 106.6540718  32.1800852
  52.2338200 105.5608177  33.2265496  63.2925749  76.2361956   8.8391656
  62.7058887  75.5074883   9.0416968  63.1304121  76.8744421   9.5338446
   6.8699633  23.0073495  92.2027358   6.5193116  23.4587998  92.9705010
   7.2165858  23.7080712  91.6504046  82.0274366   3.1163836   5.0542951
  81.6577161   2.8072406   4.2272732  82.2990526   2.3186637   5.5082721
  58.0807972  73.4631300  10.3834271  57.8042650  73.8790131   9.5668471
  58.4645414  72.6299715  10.1099014  79.9708187 107.0580954  85.3880119
  80.9056914 106.9025893  85.2536064  79.9297487 107.9101366  85.8222633
 102.2087776 106.0922760  83.1691736 101.6577351 105.4530472  82.7175444
 101.5967476 106.6066021  83.6955923  15.9881245  33.0856938  30.0918704
  16.2254988  32.2100778  29.7866136  16.6158043  33.6672444  29.6628600
   5.3024279  11.9436069  91.5109283   5.6519638  11.4151235  92.2283968
   5.5054556  12.8460307  91.7571983  81.6392899  88.6578560  11.1393523
  81.4144230  89.5302391  11.4627838  80.8056545  88.2879066  10.8487797
  41.8257796  20.1829190  72.1694690  41.5680205  20.4989524  71.3034922
  41.3977228  19.3306155  72.2505766 109.1806282   7.3972178  17.0687234
 108.5581983   7.5951338  16.3689840 109.7486414   6.7208338  16.6997933
  26.1818314 104.7830391  27.1748328  25.8493161 103.9574051  26.8227100
  26.6421914 105.1886463  26.4401340  52.0472288  90.3786469  23.4646797
  52.0054007  91.1336517  22.8777862  52.7073908  89.8069382  23.0727983
  57.8841972  77.1278715   6.9831508  58.5975266  77.7474880   6.8299389
  57.1806717  77.4251270   6.4061594  56.8338823  40.0728703  11.6947889
  56.9754124  40.9780359  11.9720578  56.2837887  39.6953511  12.3811603
 101.4304782  44.7378678  91.4253312 101.4828206  45.5393643  90.9046641
 100.9605909  44.1192288  90.8661106  49.2022800  77.0954895  12.0755899
  49.5515060  77.5783491  11.3265133  48.2525349  77.1844053  11.9961858
  35.2233765  83.4218568  94.1259417  34.6428750  83.9676923  93.5955573
  34.9722455  83.6128706  95.0296430  61.3464165  73.3628893   0.9011622
  61.5210867  73.5975552  -0.0102410  60.4096127  73.1675625   0.9228811
  57.0510435  51.0182476   0.2363522  57.2464561  51.9451952   0.0991814
  56.1064482  50.9926414   0.3890346  54.9368811  70.8846951  32.9442239
  55.1050806  70.3019190  32.2037435  55.1723909  70.3674364  33.7144256
 114.7204352  12.1715016  86.5293771 114.6909643  12.5264831  87.4178332
 115.6080557  11.8247314  86.4393282  61.8250751  59.7897100  13.9937699
  61.4582539  60.1440382  14.8037851  62.1928549  60.5506659  13.5444188
  76.8316555 105.0228596  31.8463993  76.8425941 105.9798717  31.8312001
  77.6957846 104.7682858  31.5228200  20.2136015   5.4403735  22.0233488
  20.0163626   6.3583232  22.2096157  21.1159681   5.4492903  21.7041397
  71.2584257  72.7056313  19.9969733  70.9713078  72.8913641  20.8910084
  72.0086288  73.2844210  19.8612237  57.7148914  58.4482956   7.2940648
  58.6633921  58.5470486   7.3766685  57.5876045  58.0809736   6.4193618
  53.0725765 102.6293087  17.7544999  52.1523571 102.8927708  17.7586782
  53.5391569 103.3941269  17.4174762  40.1264130  16.0415645  88.1159907
  40.2874218  16.5468020  88.9128858  40.7470928  16.3950486  87.4787801
  65.2403212  65.5242682  13.5516882  64.7247744  65.7203865  14.3339825
  65.8829117  64.8779106  13.8441420  43.5589170  59.1750479   8.0815071
  44.1363096  59.8942375   7.8253454  44.0615225  58.3837795   7.8878337
  10.8246266  13.8015838  86.4374691   9.9198901  14.0284867  86.6524070
  10.7502209  13.1823297  85.7113701  37.6455569  70.7207823   5.9644800
  37.3312140  71.0542631   6.8048435  36.9396520  70.9187508   5.3490615
 104.9733878  46.6079183  79.0999526 105.6275106  46.1336465  79.6131998
 104.9857474  46.1812158  78.2432133  31.4256287  82.2104549  18.2717133
  32.2395802  82.2089767  18.7754130  31.6557932  82.6362038  17.4458814
  15.5903517  26.1253591  92.0868915  15.4811035  25.7279725  91.2229603
  16.1996352  25.5444284  92.5424349  56.2193346  79.3006897   3.3560508
  56.2182426  78.4352922   3.7651035  55.9337187  79.8942471   4.0505591
 101.9818556 102.7217287  90.0693512 102.2193348 103.6300749  89.8829502
 101.2267554 102.5512165  89.5063376 109.4432808  50.5958886  89.9184602
 109.7893716  49.7818608  89.5526629 108.7181974  50.3177877  90.4780566
  64.7842264  91.6225052  23.8694882  65.4258728  91.9582081  23.2435298
  64.0958452  92.2873783  23.8866949  61.8905163  77.6625824  39.3484998
  62.7455378  77.2783279  39.1548085  61.8888569  77.7764654  40.2989006
  46.9785452  55.5058241  16.3515711  47.8848076  55.4997349  16.6596091
  47.0340633  55.8232927  15.4502594  83.8715458  98.5587025  53.6472750
  84.5265007  98.6159706  52.9515791  84.3829250  98.4540558  54.4496298
   5.3567635  31.3760800  75.5483848   5.2577387  30.4259629  75.6091875
   5.7514178  31.6296430  76.3827628  39.7963238  85.8956814  21.9081664
  40.5930567  86.3805962  22.1233463  39.6780586  85.2918434  22.6414037
  75.9495974 102.1815777  26.3175249  76.3868523 102.8965473  26.7799687
  75.1342201 102.5670052  25.9968352  92.9271185 107.1089119  95.3254304
  92.5944054 106.2120528  95.2910417  92.5665915 107.5282425  94.5441391
  72.0322418  89.2138290  44.3686390  72.2746325  89.6845531  43.5712099
  72.0552111  89.8795033  45.0560760  29.9900794  48.8596964   0.3754303
  29.6693969  49.1264248   1.2369695  30.1111841  49.6815729  -0.1000501
 103.9331162  99.0387816  90.1926005 103.4422028  98.5967011  89.4999277
 104.8432410  99.0089077  89.8976195  55.0535440  70.6410599   4.8156324
  54.1104937  70.7552385   4.9333158  55.1482773  70.3505325   3.9085209
  71.8022108  22.3374963  26.9354677  72.3587847  21.5613294  26.9988728
  71.1384821  22.2123337  27.6137233   2.3245499 107.2300000  85.3190779
   2.7426884 107.6713652  86.0583919   2.6110337 106.3194794  85.3905231
  44.0890789  43.3416224  10.3343987  43.9286423  43.2888746  11.2765825
  44.7247648  44.0508747  10.2390218   3.9103781  31.4230199  69.6147328
   4.8595892  31.3824983  69.7313005   3.7487780  30.9489102  68.7990504
  12.2299111  38.0078840   4.4473973  12.0755053  38.3141065   3.5537425
  12.6266968  38.7569332   4.8920536  18.6512053  61.5576601  15.9562409
  18.5313869  60.6150913  15.8403003  19.2241216  61.8168306  15.2345574
  19.1571127  28.2249112  80.6787878  18.7320601  29.0392537  80.9478980
  19.6655213  28.4647794  79.9040514 108.4721418 109.6894836  65.9307337
 108.4993043 108.8150692  65.5422831 107.5624128 109.9689674  65.8281898
  17.2944403  75.3376627   9.8866761  16.4982200  75.1787424  10.3936362
  17.5468886  76.2331438  10.1116574  66.9609320  90.0941796  54.0062409
  66.1465776  89.6039314  53.8934785  67.5315392  89.5014591  54.4954473
  19.9364697  18.5494514  94.9081030  20.1334416  19.4566102  95.1415414
  19.3025433  18.6180825  94.1941994  50.6916605  11.0930104  90.7133609
  50.4347693  11.0056205  89.7954279  50.9177100  10.2032990  90.9845587
  13.7734305  20.1670833  95.3428712  13.6417710  20.6487126  94.5262128
  13.9380060  19.2658420  95.0655550  76.2200880  71.5049314   5.3467762
  76.1760616  72.4339581   5.5730635  76.7416191  71.1123514   6.0468578
  47.1670866  75.4011917  17.1876466  46.5960169  75.6728840  17.9061818
  46.8761921  75.9232903  16.4399683  59.2912449  38.3745623  14.6698904
  59.4810809  38.2091857  15.5933857  59.0362848  39.2966796  14.6391809
  75.1596451  77.3388195   6.6376019  75.7714081  77.7768755   7.2292817
  74.3161297  77.3856306   7.0876193  89.9468482   5.8151670  73.7166625
  89.7481824   5.1825137  74.4069606  90.8771265   5.6847806  73.5327774
  78.0363321 104.9459362  16.8525422  78.8170242 105.1415443  17.3706949
  78.3554792 104.8851871  15.9521604  47.0148802  56.4853811   1.8204165
  46.5446472  57.2070789   1.4029676  47.9291153  56.6186190   1.5701124
  81.6264153  68.4683990   5.3743219  81.8545628  68.2038927   4.4831344
  82.1977043  67.9424000   5.9339482  33.8935614  64.6963549   7.5516862
  33.6449194  64.1948938   6.7751920  33.2050276  64.5076370   8.1892896
  78.4633446  74.4890213  34.5953202  77.8791285  74.4502687  33.8380766
  79.2139339  73.9495897  34.3465972  26.3442074  42.6315351  87.0300358
  26.3063656  43.5471578  87.3064822  26.9378315  42.6323838  86.2791425
  21.2300062  52.3488331  12.9932117  21.4120913  53.2511950  13.2555449
  21.8455243  51.8222904  13.5032320  67.5807667  90.3366947  25.4208708
  67.0253181  89.5609856  25.3435421  68.3170748  90.1634884  24.8342848
  15.9353291  21.9814391  83.9285272  16.0560738  22.9246087  84.0384525
  15.8445631  21.6460366  84.8204344  30.8380580  21.8840647  17.3588085
  31.6322827  22.2640920  17.7343357  30.9868336  20.9390116  17.3900235
 107.3291064   2.2560020  65.3029567 107.6709629   2.3335929  66.1936551
 107.9009796   1.6141505  64.8819834  59.0434074  83.3178806  22.5342369
  59.9375057  83.2812214  22.8740501  59.1209555  83.7927151  21.7067409
  67.0321608  60.3642416   0.8141515  66.7798805  59.4605780   1.0038438
  67.7899837  60.5244303   1.3765354  66.9322634  82.1114349  26.8747783
  67.5397778  82.8480721  26.9420266  67.4613380  81.3960934  26.5217924
  97.6386356  56.6586351  50.5238724  97.3251629  56.0328722  51.1768532
  96.8505001  57.1190929  50.2356768  62.9597664  77.8050852  10.9607410
  63.6513853  77.4032307  11.4864886  62.2173119  77.8817892  11.5599990
  80.2827549  76.5204239  22.5683570  79.4924068  76.2949276  22.0777059
  80.1577568  77.4365711  22.8159189   3.1243025  45.0865502  80.6869298
   3.9790140  45.5154367  80.6449312   3.0513226  44.6161313  79.8565024
  87.1095097  94.4673819  84.8043114  87.9408324  94.4238252  84.3318277
  87.3192942  94.1617579  85.6868177  88.0940342  75.4625797   2.1755503
  88.9750957  75.7662058   2.3941393  88.1713867  75.1256704   1.2829465
  94.7349466  18.7528277   6.6685754  95.6055893  18.7053824   7.0634949
  94.4447149  19.6495391   6.8356174  45.9736013  77.4987936  15.7428503
  46.4107752  77.8870630  14.9849892  45.0432348  77.6694202  15.5960906
  56.7628765  68.4646130  14.9719763  55.9301901  68.7418222  15.3541017
  57.3517418  68.3737564  15.7211185  16.3288260  91.6998386   9.2047173
  16.1807537  90.8533001   9.6262306  17.2750354  91.8331146   9.2608863
  80.2449703 104.8144436   3.9480799  81.0787964 104.6254921   4.3784940
  80.3656673 105.6822395   3.5625869  49.3715858  95.2310085   1.1736575
  48.5132265  95.2377510   1.5972170  49.3119764  95.9091949   0.5007942
  97.3904432  19.1152568  78.3979314  98.1455351  19.6878524  78.5328465
  97.7449203  18.2294030  78.4743637  17.1371591  84.8921871  12.4817514
  17.8149104  85.5022240  12.7728474  16.3165998  85.3696156  12.6041305
  37.6709270  63.9614630  10.7306242  37.3244500  64.3711853   9.9379599
  38.5862446  63.7737989  10.5227602  54.9719000  75.6353617  18.9407766
  54.8548317  74.9801350  19.6286774  54.5532465  75.2512836  18.1704211
  32.1837187  82.3474598  22.1589184  32.5527883  82.4101448  21.2779593
  31.8484759  83.2253170  22.3411727  43.8417721  80.0468254   5.4650068
  44.5228004  79.4093704   5.2503240  44.1641760  80.8725548   5.1038182
  68.0498981  79.6043253   6.8483412  68.1136942  79.6940517   5.8974934
  67.5328684  78.8095713   6.9797689  42.1416903  75.1190901   4.7868225
  41.2485170  75.1556683   5.1290679  42.6971912  75.2807808   5.5493879
  91.9381618  78.2149935  32.0968962  91.3535213  78.8631582  32.4897289
  91.6892338  78.1968212  31.1728096  63.5948324 105.9456539  20.3531027
  63.0933809 106.7530632  20.4665208  63.1853199 105.5125904  19.6041155
  98.1853271  53.5572953  81.0791319  99.0948392  53.4921784  80.7879621
  98.1728507  54.3203778  81.6568738  76.3593197  57.6157331  26.5706086
  77.1746063  57.8731728  26.1401796  76.6084909  57.4589109  27.4814057
  65.0461864  50.0930071   2.5741369  64.6920586  50.8629227   2.1291016
  64.2811298  49.5456743   2.7511865  92.7313137  55.4801035  32.4360776
  93.3358192  55.6193829  33.1650519  92.7817822  54.5407438  32.2592068
  53.2623768  96.0246658  23.2215190  54.1690731  96.1365318  23.5072184
  53.3260202  95.5035591  22.4211287  53.9365959  94.5956898   3.1837726
  53.8368988  95.4821491   3.5308719  53.3640289  94.0583324   3.7311748
  44.3882418  94.2509079  12.5698042  45.1602268  93.9187813  13.0280173
  44.2421865  95.1193142  12.9449844  44.3191671  80.7169819  18.9843750
  44.6038532  79.8847580  18.6067653  43.4066248  80.5679703  19.2319536
  84.3884850  81.0768700  12.0328784  83.6139393  80.5256367  12.1445131
  84.3867683  81.6503906  12.7992344  20.4450547  37.8133245  86.8429762
  21.0364138  37.3342748  86.2624275  19.5683705  37.5737901  86.5425235
  80.3018093  89.7452354  18.9093256  81.1260796  89.6889019  19.3926930
  80.5138779  89.4177818  18.0352354  54.3134642  97.1751595  12.1213961
  53.9619064  96.8545246  12.9519546  53.8647699  96.6551590  11.4546895
  16.7145621  29.3215890  68.8251954  16.4552056  29.2569871  67.9060703
  16.4978396  30.2205033  69.0726000 110.8693100   0.2010436  92.8293536
 110.2658392   0.5509086  92.1738764 110.8295918  -0.7477622  92.7092507
  66.8474054  69.0214634  22.2663903  67.4916935  69.7147608  22.4094367
  66.7815590  68.5775280  23.1118608  65.3664684  47.5708675   0.4276148
  65.1537180  46.7503023  -0.0169516  66.0963392  47.3479843   1.0054097
  36.4277124  80.0601959  11.5916657  35.8174038  80.3739929  10.9243631
  37.2133541  80.5926228  11.4670551 103.3087505  38.6266089   7.9368609
 102.5129379  38.1213713   8.1031388 103.2418693  39.3791533   8.5245979
  21.1806666  16.5985770  93.2717402  20.7822167  17.2332807  93.8672439
  20.8467709  15.7512803  93.5664135  68.5626268  71.6566658  47.6133871
  68.7674236  72.5910521  47.6482201  69.3994093  71.2352133  47.4174070
  13.2143675  37.2822042  86.8142879  12.8239285  37.5775952  85.9917724
  14.1558205  37.2701116  86.6417807   2.6773392  29.1816373  83.7989813
   1.7913996  29.1081758  83.4440917   2.5529038  29.5206208  84.6854561
  65.2816486  49.2889118  23.1269264  65.5212116  48.8503551  22.3105240
  64.3744040  49.5636082  22.9939628  22.4143111  23.1394477  73.3025104
  22.9357420  22.4236579  72.9392129  22.0141970  23.5557504  72.5390750
  10.6918716  62.6427746  21.6570878  11.3914669  61.9908524  21.6147447
   9.8872137  62.1388531  21.5353441 112.7347815 108.9543146  92.9749013
 112.9650748 109.7570700  93.4426346 113.1782686 109.0335793  92.1303502
  79.4687510  82.4012566  23.1783295  78.8670254  83.1033707  22.9309487
  79.4375086  81.7889500  22.4432492  40.5594956  31.4943738  78.2430631
  40.9235417  31.3287110  79.1126936  40.0694500  30.6993814  78.0331331
  25.0296378  79.6657610   6.0925198  25.0696445  80.5211926   5.6648886
  25.4848385  79.7925997   6.9249469 103.3507563  32.2908349  64.1370898
 103.1940700  31.3487573  64.2016679 103.1956626  32.4967904  63.2152658
  50.7502508  68.2189226  10.3290248  51.5966654  68.4535313  10.7095098
  50.3612900  69.0560150  10.0755966  26.5730559   4.8459382  72.1445638
  26.7931210   4.9186082  71.2158423  26.1557947   5.6805797  72.3578554
  51.0496807  60.6352377  13.3605909  50.5851698  61.1743784  12.7204418
  51.7757797  60.2516460  12.8687859  74.7222149 102.8692908  73.6453849
  75.2287686 102.6111836  74.4154602  75.2107608 102.5086827  72.9054433
  48.7056541  79.5556593  22.9439926  48.4694624  80.2052975  23.6061239
  48.1556177  78.7983799  23.1445312 105.1092769  35.5026383  93.2519297
 105.7816626  36.1307664  93.5156995 104.3393160  36.0399957  93.0658303
  54.5069122  76.8472958   0.1579546  55.2632236  76.7733908   0.7399876
  53.9085722  76.1615181   0.4544824  81.0092545  51.1802435   6.2847316
  80.9138489  51.8996620   5.6605804  81.8412018  51.3539553   6.7251003
  63.8512052  14.1987754  12.3719954  64.0124596  15.1278449  12.5364590
  63.0173100  14.1798640  11.9024289  21.3774943  58.2199144  -0.0932359
  21.5725183  57.3262548   0.1888510  20.6531835  58.4957027   0.4684985
  73.0294704  50.9904289  35.5367541  73.3239412  50.8843851  34.6321678
  72.0792675  50.8833408  35.4934311  74.5201874  84.6263409   3.3681160
  74.1986036  83.8781357   2.8651184  75.2640200  84.9532413   2.8620797
  17.3772669  64.0336132  16.5701914  17.1541357  64.3727779  15.7033515
  17.7088988  63.1512022  16.4040470  97.6149845  51.2555885  29.2728519
  97.6168537  50.5516005  28.6242938  97.6959515  52.0573568  28.7562847
  23.6692500  60.1461983   5.0561517  24.5673180  59.8162508   5.0851995
  23.3136344  59.9493980   5.9227765  59.4499779  67.6572466  30.6116128
  58.7412930  67.2763538  31.1301851  59.6127892  68.5087347  31.0174322
  50.2843523  67.7211809  25.7986307  50.1686573  66.8967676  26.2710595
  49.4203758  67.9109240  25.4328799  64.3960905  44.6559572  16.4549112
  63.7443113  43.9549589  16.4507020  65.1816463  44.2548370  16.0831010
  68.6700869  89.9595547  17.8580391  69.4571400  90.4384995  18.1176543
  68.9986086  89.2107010  17.3605180  25.2622591   3.6146684  91.6289475
  25.2593981   4.1446061  90.8318329  24.3754755   3.2583804  91.6828739
 113.1702686  38.8350530  76.3321012 112.9096151  39.5842881  76.8677705
 112.6048470  38.1213231  76.6272622  15.8443152   0.5307193  73.8511616
  16.6742836   0.4529614  74.3216187  15.4152333  -0.3150086  73.9810377
  12.0348679  18.2675929  74.5930844  11.5775238  18.9571900  75.0742537
  12.8432070  18.1271977  75.0861436  86.7974758  56.6645479  36.2920952
  86.0723686  56.8986082  36.8714523  86.8755245  55.7144022  36.3779211
  83.3148956  70.7557964  12.3201919  82.4024868  70.7158613  12.6067948
  83.2665730  71.0317326  11.4049006  61.9562912  52.3620796  24.8065019
  62.1456909  53.2946444  24.7031569  61.2969589  52.3269463  25.4995251
  82.7363932  84.8039264  87.1665346  82.9796278  85.3918595  87.8816616
  81.9829046  84.3179936  87.5017309  59.9777031  59.3087578   8.6160278
  59.6154833  60.1869917   8.4988439  60.9069157  59.4546413   8.7935358
  52.7375031  73.0869913  10.1082051  53.3552551  72.4863529   9.6912593
  51.8807745  72.6826859   9.9711579  96.8511391  35.4740596   6.4265013
  96.5265942  35.4489589   5.5263519  96.9019318  36.4064693   6.6368824
  61.3812447  66.3081503  32.6654387  62.0828581  65.7230425  32.3797560
  60.8056259  66.3814354  31.9041705  72.8466809 105.3833193  82.9639679
  72.4102032 106.2329907  83.0254096  72.1944415 104.7558970  83.2756704
  48.3287048  56.4178276  11.6194069  48.0163670  56.7003632  12.4789727
  47.6663256  55.7969570  11.3160801  56.0581589  65.1098442   5.4692101
  55.7956409  66.0259151   5.3790277  55.3808451  64.6196079   5.0032181
 110.5435563  40.8204598  75.0231987 111.3172913  40.8751435  75.5840736
 110.4043795  39.8817487  74.8979574  56.0329103  83.7461948   2.4933842
  56.5195179  84.5696068   2.4553874  55.5677319  83.7812328   3.3292142
  27.6551138  38.9694829  66.1251455  28.0265509  39.8474069  66.0384494
  28.0462776  38.6220021  66.9266945  61.7108679  98.1154633   9.4444954
  61.9333553  97.8775978   8.5444111  61.9793272  99.0308285   9.5236605
  81.4238834  61.6830301  12.9079425  81.1564350  61.3608456  13.7686980
  82.3721504  61.5541315  12.8879905  75.4400253  20.0653720   9.3365657
  74.6598148  20.3675389   8.8715947  76.0728502  19.8750460   8.6440772
   3.8954436  26.8118901  80.4263967   3.9339863  27.7609677  80.3081339
   4.7721707  26.5721269  80.7265514  97.3382248   0.7624675  31.2816000
  97.3894085   0.6570101  30.3316045  98.2088245   0.5196810  31.5967870
  11.3957058   2.4633307  65.6659561  11.9236361   1.8737598  66.2044054
  12.0291220   3.0716367  65.2851945  34.0581298  83.0881119  11.2737477
  34.2666626  83.7478065  10.6122768  33.2203913  83.3721161  11.6394854
  81.0034001  70.5269081  54.3768579  80.2088654  70.3406531  54.8771125
  80.9312689  71.4538152  54.1491061  45.6901741  24.6180677  20.4932356
  45.1885986  24.4246674  19.7012436  46.0951233  25.4676652  20.3187847
  16.7917764  77.3967552  20.6759429  16.3630700  76.8590069  20.0101590
  16.7446291  78.2882452  20.3306007  11.1107670  37.0173497  62.7627951
  11.2756716  37.9412217  62.9511910  11.0884081  36.5978093  63.6228615
  55.1291323  83.2446957  14.8918450  55.3881311  82.3326302  15.0233340
  54.1753101  83.2144642  14.8173928  80.6640541  99.9987692  62.3661476
  80.9579813 100.7100481  61.7970115  80.8777106  99.2009873  61.8822795
  28.7672507  15.6101842  91.1835897  28.1779419  16.2298389  90.7535082
  29.0946328  16.0827441  91.9489252  47.5697947  90.5601788   4.5964769
  48.2107878  90.0783253   5.1191354  47.0028591  90.9820843   5.2420914
  47.2622204  77.1731472  19.4634414  47.4131441  77.9788351  19.9577296
  47.5525904  76.4744854  20.0497746  62.3360907  21.9815583  93.0895693
  61.7546164  21.6255612  92.4177202  62.5170981  21.2399812  93.6670930
   1.6048323  25.5090852  79.7469455   2.4461876  25.9355588  79.9096495
   1.8358265  24.6563382  79.3785804  72.5437916   3.0777693  20.6261039
  73.1956018   2.3862029  20.5116320  71.7037643   2.6406813  20.4863286
  52.3562479  94.4098377  25.6160140  52.4491930  94.9457169  24.8283458
  51.4326572  94.1586590  25.6272078 105.1765753   0.2750106  88.6387288
 105.5750872   1.0620589  88.2672763 104.8901249   0.5411143  89.5124388
 108.3789982  16.3133479  24.9244833 108.6248554  16.3607264  25.8483553
 109.1784443  16.0346652  24.4778776  90.8297313  57.4531789  77.1780163
  91.4197422  57.7298589  76.4768976  90.0973190  57.0362802  76.7241436
  69.6365690  78.1770515  16.4745653  69.4079494  78.9019871  15.8928144
  68.8014269  77.8996229  16.8511355  58.6495018  85.1145935  10.3872967
  58.6164570  85.6873035  11.1535490  57.7744818  84.7296906  10.3380442
  96.8378258  65.8232355  15.0682151  97.2872543  65.1203728  15.5374944
  95.9448814  65.4993916  14.9498153  67.3114395  81.1828518  46.1344767
  67.2838402  80.2773571  46.4435959  68.2342386  81.3395214  45.9341526
  85.5729103 104.2023087  18.0316091  85.0545311 104.6906853  18.6711442
  84.9239445 103.7516785  17.4912333 107.3121798  94.0111179  66.4107781
 107.4464810  93.9573116  67.3569828 108.0873024  93.5939736  66.0347420
  67.0410432   6.2117530  28.8932419  66.7610015   5.3425170  28.6064839
  66.3167061   6.5313864  29.4312000  91.3334323  60.1809354  84.7691625
  92.1205927  59.6569581  84.6206313  91.5726412  61.0605855  84.4772416
  81.8534184  80.5152893  16.9534767  80.9756088  80.8876705  17.0372140
  82.0546150  80.5837822  16.0201705  45.4775606  69.8231263  78.9455837
  44.9541270  70.6225724  79.0015596  46.2147890  69.9776979  79.5362085
  78.9706993  99.0842342  24.0599322  78.5847759  99.9493504  23.9225864
  79.1305780  99.0402126  25.0026608  31.7031800  16.0806365  93.5048620
  32.3010575  15.7889218  94.1931025  30.9233462  15.5374284  93.6189541
  79.3726397  71.5062714  11.3911486  79.3821621  71.1318493  10.5102694
  78.8445902  70.8955097  11.9053137  81.9326687  93.6703300  37.3299479
  82.3802853  93.0370998  36.7687869  82.6328945  94.0704727  37.8455067
  75.2826595  51.5242052  15.3560114  74.5896864  52.1841812  15.3771770
  75.4311943  51.3033009  16.2754524  78.0754375  77.4340725  40.9288454
  78.3764791  77.8811550  41.7198706  77.8270531  78.1414509  40.3337383
 101.6796017 105.4204941  10.9652185 102.2106552 104.6401596  11.1242855
 100.8147240 105.1956081  11.3082099  11.8687807  34.2175050  62.1322399
  12.3473107  33.5755963  62.6568323  10.9615742  34.1395898  62.4274212
  58.4035288   5.6147475  78.5644859  58.4653746   5.3247638  77.6543683
  58.7523638   4.8828549  79.0732926  89.6880924  99.7343964  73.6380368
  90.5307877  99.3940300  73.3376246  89.2442810  98.9753193  74.0162712
  45.6948614  86.4612770  12.2737372  44.9370623  86.4333153  12.8578532
  46.1242008  87.2920418  12.4780118  46.1715364  56.3379431  33.4333038
  46.6807842  55.5935669  33.7539458  45.3476095  55.9533978  33.1341362
  65.0998545  87.1357727   1.0892034  65.0872374  86.9405746   2.0262045
  65.9298944  87.5919533   0.9507368  58.0099297  94.5582867  37.0496392
  58.8183212  95.0669861  37.1125579  57.3151112  95.1880074  37.2417665
  42.8803396  89.3958092  46.9308901  42.2279358  89.3037796  46.2365341
  43.2105827  88.5079765  47.0684481  70.8639240  87.8974628  10.5621362
  71.1294270  87.6201153   9.6853131  71.3423824  88.7131310  10.7104766
  95.4187025  43.5070945   8.1969380  95.7171310  44.3979502   8.0137897
  94.5072950  43.6112548   8.4702945  52.2353649 101.6286182   4.2500874
  52.8331995 101.6833115   4.9956322  52.2608089 102.5015259   3.8581440
  76.0437250  65.2895927   6.5972537  76.6961145  65.9138966   6.9148505
  75.4022551  65.2324438   7.3054075  79.7854090  96.4882946  26.0754561
  79.7126913  96.1443138  26.9657469  78.9275551  96.8734837  25.8967042
  89.6936131  99.0468693  33.2025409  88.8704777  99.0002823  33.6888576
  90.1602650  99.7864151  33.5918069  76.9233931   7.4571658   5.8934867
  77.1569289   8.2443000   6.3855439  76.3025893   7.7633715   5.2323741
  25.5034471  69.0711021  18.2247806  25.3506041  68.4950113  17.4757874
  25.1166677  69.9076700  17.9663515  72.6513672  82.0120049  38.6380553
  72.0748234  81.4118767  39.1109920  72.1201754  82.7964306  38.5011315
  95.7266617  31.0278797   1.8614149  96.4876080  30.9964156   2.4412434
  96.0826588  31.2924075   1.0131703  94.3531334  99.6157927  93.4359953
  94.8560297  98.8828987  93.0807645  94.7320378  99.7690815  94.3015378
 109.8649037 108.5124869  92.7604006 110.7711422 108.6107821  93.0524604
 109.7375786 109.2227263  92.1314516  22.1445977  14.4937940  72.6167995
  22.6310812  14.1099782  71.8872434  22.3853384  13.9587064  73.3730799
  45.7784926  15.0592799  73.9000612  45.6409632  14.6592517  74.7587210
  45.8516871  15.9963079  74.0813261  69.4185448  58.2777309   7.5215840
  69.1516209  58.3393764   8.4387445  69.9290562  57.4694014   7.4745238
  45.7216597  99.6011829  13.0046606  45.8769226  99.3592453  13.9176738
  46.5136003  99.3223190  12.5449872  13.4176813  28.2592912  91.2517690
  14.2384373  28.4493012  91.7061835  12.8409468  28.9868493  91.4847204
  64.7122431  93.9941597  44.6221399  65.0697613  93.8566303  43.7449265
  63.7677860  93.8798618  44.5164824 107.1908283  98.0936623   2.8864604
 107.1859646  98.1831932   1.9334686 107.6948547  97.2964287   3.0495620
  85.7338619  93.8847637   4.0036222  86.4438534  93.2582092   3.8636789
  84.9394417  93.3507824   4.0021527   3.8783203  49.2957730  85.0546676
   3.9031540  49.6487565  85.9440589   3.4466063  48.4463544  85.1460665
   0.1947342  66.1797948  91.7155099   0.8663260  65.5686326  92.0182836
   0.2789866  66.1751409  90.7620364  74.7849178  53.1513166  28.6897779
  75.2647066  53.4580278  29.4591689  75.4667902  52.9037523  28.0652785
  73.5843706 108.2627392   8.0587214  73.9051914 107.3816299   7.8665054
  72.6398611 108.1546783   8.1703514  79.3847132  69.8691082  31.5533781
  78.8625574  69.1117096  31.8178248  80.2902794  69.6032524  31.7130470
  88.5020733 104.2139435  17.9480982  87.5644016 104.1900063  18.1389773
  88.9151096 104.3757629  18.7962997  13.3918606  44.3495412  63.3455306
  13.8249575  43.5306497  63.1045419  12.4827658  44.0999360  63.5112649
  67.8396273 104.2595959   7.8361583  68.0041933 104.0681076   6.9128603
  68.6424541 103.9914894   8.2831675  97.4863148  97.3896027  22.9120445
  97.8917980  96.6926098  23.4278131  97.9657650  97.3844147  22.0835972
  59.9801731  85.8040619   0.6156496  59.6371794  85.9647179  -0.2634265
  60.9268045  85.9151268   0.5273920  87.6209927  65.0816011  19.2209101
  86.6697025  65.1310921  19.3148756  87.9582882  65.6976414  19.8712671
  92.8708935  70.7151604  20.9381819  93.3578110  71.5179586  20.7520032
  92.1456909  70.9985590  21.4949584  77.2934771  67.7216053  21.2126589
  77.4677992  67.5842381  20.2815461  77.3162985  68.6721563  21.3229251
  32.9445219 101.2832355   7.0087242  32.5686169 100.5328465   7.4689770
  33.6225462 100.9055042   6.4485162  74.4783592  88.0094337  15.5545962
  74.5823479  87.0890903  15.7962489  74.1171360  87.9850578  14.6685052
  59.2009974  67.8153896   5.1119548  58.5949898  67.5804615   5.8146620
  58.8663912  68.6464930   4.7749957  99.6148300  76.6182518   2.5620449
  99.8249245  77.1780252   1.8145558  99.8462963  75.7356310   2.2728390
 106.4328934  52.0542760  93.9230625 105.6860996  51.8498464  93.3602701
 106.4142562  51.3784452  94.6006547  29.8158728  78.3033128  91.0829404
  30.3516661  77.5516553  91.3362410  30.4369961  79.0285535  91.0161358
  79.5639133  43.0963230  15.4218495  79.0548325  43.7455988  14.9365556
  80.3675747  42.9925394  14.9123561  27.0378624  47.2890420  91.5414098
  26.2592589  47.4553437  91.0100442  26.8889223  46.4225621  91.9199070
  95.7506275  91.6014576  11.4781237  96.0059166  92.3579788  12.0060813
  95.8107471  90.8587837  12.0790052  60.0062466  61.8477678  27.2704911
  59.3708277  62.5622749  27.3146582  59.6559238  61.1789799  27.8589034
  77.8067255  56.3918734  31.9715333  76.8716955  56.5237284  32.1282625
  78.2136869  57.2139597  32.2450137  38.6863076  15.4928298  93.2390338
  38.0804621  15.0173373  93.8074438  38.5599648  16.4129300  93.4707311
  68.7018967  83.9304924  10.1424670  68.6445427  82.9750252  10.1367235
  67.9543734  84.2184639   9.6185327 106.5126896  85.4380894   6.1787122
 106.9420910  86.2384415   5.8765960 105.5789185  85.6482220   6.1670572
  42.6314020  55.8517456   7.7331287  42.2434425  55.3295660   7.0309567
  43.5699749  55.6734800   7.6736248  88.6367763  18.3062220   8.5429704
  88.4097542  17.4615432   8.1541067  87.8541292  18.5636855   9.0302128
  41.9583845  92.7779865  28.9057684  41.3546181  92.4537659  28.2375002
  41.4248943  93.3574104  29.4497156  33.6504875  30.0975652  75.1956492
  33.4718500  29.9498601  76.1243599  32.7863680  30.2167649  74.8015362
  16.2737833  25.5265279  79.8395043  15.6103121  26.1835237  79.6287864
  15.9676777  24.7295947  79.4065767  48.4723425  98.8964748  16.8737936
  48.8137674  99.7860622  16.9648135  48.2799768  98.6208820  17.7700531
  72.1518135  94.2317200  12.8387117  71.2880516  94.6382141  12.7686059
  72.7575922  94.8995209  12.5173020  45.0460863  77.2941828  10.0262916
  44.8578596  76.7055225  10.7572377  45.9807062  77.4845934  10.1066613
  48.8721453  38.1973977  79.2221027  49.2432200  39.0695806  79.0885681
  49.3593394  37.8410001  79.9649697  54.6820927 102.8036785  40.8923435
  54.3261147 102.5828362  41.7530012  55.4360867 103.3623028  41.0811710
  54.2106581  91.3257122   0.2569242  55.1562786  91.2096882   0.3495469
  54.1098642  91.8415546  -0.5430634  60.2932644  84.0127850  32.0394683
  60.9356070  83.3869648  32.3741078  59.5292521  83.4786892  31.8220711
  62.2742414  43.1185770   7.9191053  61.3393450  42.9237509   7.8540045
  62.4533796  43.1215239   8.8593888  69.7519541  61.7679977  27.6754379
  70.0742769  62.3637295  28.3517814  70.5414391  61.4657259  27.2264671
  52.1829700  79.6686697  16.3802159  51.7749310  79.0204191  16.9542420
  51.4949036  80.3148937  16.2214971  45.6931292  33.6259408  76.1347669
  45.5980860  33.3583207  77.0488697  45.1638972  32.9966588  75.6447094
  83.9692688  35.6218386  50.3466606  84.5510960  36.0110283  50.9995317
  84.0374470  36.2023830  49.5886660   9.0751719   3.1699992  14.8745596
   9.4040178   2.5145198  14.2593861   8.7736677   2.6617861  15.6275821
  75.0230360  79.5515108  17.2365308  75.4356432  78.6898422  17.1772563
  75.4299688  80.0606537  16.5355265  66.5275383  88.7806511  28.3301330
  66.8235016  87.9395294  27.9820800  65.6824064  88.9310837  27.9066300
  34.1983390  87.1071720   3.9631683  34.9668431  86.5368271   3.9814958
  33.6062908  86.6912651   3.3364904   4.4720827  40.1487203  78.6204988
   3.8637482  39.9986405  79.3441289   3.9105116  40.3686757  77.8772014
   6.3570772  53.0907674  92.3452022   6.6395222  52.3028798  91.8807605
   6.9182526  53.7857194  92.0011771  47.6540852  79.7896433  20.3066850
  47.6973248  80.7308292  20.1377773  47.4141502  79.7229433  21.2309217
  92.1893597  83.0711269   0.6449202  91.4873409  83.5474205   1.0882559
  92.4778557  82.4198532   1.2843217  74.5369101  55.7082748  25.6539655
  74.9384928  54.8417950  25.7185674  75.0949717  56.2714863  26.1902452
  68.9043713 100.8630085  41.8555975  69.4517994 100.0873375  41.7335796
  69.4981718 101.6000938  41.7129660   3.7958800  42.1707006  93.8827738
   4.2648732  42.1501584  93.0485941   2.9357849  42.5300355  93.6651967
  36.0140454   1.6470857  94.2946513  35.8074414   2.5590940  94.4990574
  36.8669306   1.6859145  93.8618575  54.7056437  89.0635586   2.6510566
  54.4483614  88.1913757   2.3521778  54.9184418  89.5388603   1.8479161
 104.3938507   7.9703665  53.0911493 103.6530126   8.5202265  53.3461952
 104.5717920   7.4346209  53.8641548  92.8531265  75.0782871  39.9342990
  93.1100273  74.7227716  39.0835094  93.6770058  75.3492117  40.3393316
  34.3549085  92.5531483  31.5717483  33.8539577  93.3545780  31.7233491
  34.3839717  92.1235371  32.4266291   8.5436892   6.8173934  21.3023758
   7.6180052   6.8986560  21.0727382   8.6175608   7.2465087  22.1548057
   2.6797806  87.6177163  92.4945852   1.9048773  87.5562139  91.9360381
   2.3319994  87.8007646  93.3673821 103.1276573   7.2875357  10.0143492
 103.6119474   6.8203116  10.6950831 103.3718933   8.2053138  10.1337349
  94.5841122  89.6136570  33.0798602  94.6613884  88.6599731  33.1073332
  94.5660973  89.8790836  33.9993477  75.4051352  88.9085102  31.6131854
  76.3621712  88.8908005  31.6153169  75.1493454  88.0073357  31.4164925
  32.7276778  43.9697981  20.1357841  31.9243121  44.4677162  20.2871490
  33.1376028  44.3990374  19.3848193  70.9730232  83.3546466  66.4077502
  70.5187928  84.1688222  66.1908966  70.4211461  82.9421467  67.0722133
  60.3662491  34.1741991  26.9248867  59.4888401  34.5286202  27.0690012
  60.5790567  33.7221766  27.7413559  37.3179232  14.1347308  62.6317483
  36.6346108  13.5872169  63.0184632  36.9856488  14.3531747  61.7610556
  35.8257853  26.9824739  93.7409712  36.2892281  26.4739080  93.0755260
  35.8667837  26.4400620  94.5285851  13.9867770   7.1345515  87.3434871
  14.0550219   8.0872054  87.4069488  13.5158669   6.8748803  88.1353473
  53.4697151  83.0751228  10.6561708  52.8675079  83.8191509  10.6544220
  53.2655144  82.5998211   9.8508036  14.5788466  11.1934848  86.4131272
  15.1864516  11.3590379  87.1339863  13.9731489  10.5366225  86.7564833
  50.6254292  41.9371414   5.1933897  49.6917200  41.7302990   5.2338147
  50.9388113  41.8057680   6.0882437  83.0085945  43.4089231  22.2617173
  83.6603642  42.9261303  21.7534494  82.2662163  42.8086615  22.3309827
  35.6628214  14.1717763  82.7826983  36.2132870  14.0129228  83.5495001
  36.2330567  14.6371932  82.1707755  52.9237175  67.8423214  15.8878660
  53.1922579  68.5591841  15.3132117  53.5133743  67.9040289  16.6393495
 114.6633769  15.1668878  69.3614632 114.1709901  15.3267617  70.1665884
 115.0562478  14.3033166  69.4884592  83.0242979 104.8035712  72.6840836
  82.4793398 105.5591435  72.4641686  83.4943354 104.6035427  71.8745857
   6.2067483  91.9126362  91.7026892   5.2787564  91.9737667  91.9292348
   6.2855408  91.0793347  91.2383303  48.8539410  58.6215878   1.3729455
  49.1129398  59.0180779   0.5411120  49.0461826  59.2923975   2.0281486
  10.5033432  27.8142877  81.4654463  10.9853016  26.9886537  81.5131968
   9.6122252  27.5871415  81.7310542   8.6862217   2.5971694  76.5887981
   8.9250122   3.4085841  77.0369226   9.4036852   1.9948525  76.7854970
  79.9304104  64.0778017   1.8156959  79.1430235  64.5435429   1.5340167
  80.6286335  64.4334984   1.2659688   6.8998705   9.1273971  87.7924299
   5.9816347   9.3690057  87.9136932   6.8719660   8.3577437  87.2240257
  28.4559369  57.0919132  16.8971741  27.5856519  57.4757481  17.0044470
  28.9235020  57.7113485  16.3368928  76.6015088  95.0781483  75.6709879
  76.9857919  94.9706263  74.8009306  76.3250339  95.9941191  75.6991809
 111.1179220 105.6862444  60.0867182 110.7197630 104.8681206  59.7894436
 111.8294537 105.4102606  60.6644636   8.7701867  91.5493721  93.1283377
   7.9471848  91.9684023  92.8767252   8.5646317  90.6149024  93.1556180
  29.1066824   5.0503297  65.4992157  29.2670714   4.4577260  64.7648245
  29.0112912   5.9126182  65.0947553  85.2677405  87.7157087  91.4256778
  85.3893721  88.2632775  90.6500447  85.4688990  88.2942623  92.1612364
  83.4915257  42.2466993   2.4700902  82.7747917  41.6413307   2.6599526
  83.1847000  43.0917454   2.7987021  97.9784596 103.4494681  89.0127158
  97.7258503 103.5845274  89.9260497  98.8468516 103.8460774  88.9432317
  40.7700586  50.5916309  13.7036347  40.5978966  51.4931679  13.4319413
  41.5865755  50.3598928  13.2611120 106.0709477   1.3445802  75.3697163
 106.7200399   0.6811614  75.6037801 106.5370990   1.9387288  74.7815591
  70.8788538  77.7448177   4.1415742  70.4652834  77.0627069   4.6706456
  70.3926277  78.5412359   4.3549553  78.7927854 100.7816166  64.1294247
  79.4947064 100.4985613  63.5434085  78.8809502 100.2183575  64.8983151
  14.0570042  79.8095078  58.0218678  13.9482091  79.5306892  57.1126610
  14.4860242  80.6630058  57.9609495  85.4869711  76.1431283  74.0125829
  86.0242712  76.4402551  73.2782393  84.5902884  76.1674017  73.6785227
  65.8535433  52.9649878  14.9973655  65.3969288  53.6182022  14.4672227
  66.1713219  52.3218298  14.3636501  29.1067730  10.0140662  83.2871181
  29.9547516   9.7659869  83.6553865  29.2426573  10.8986468  82.9475838
  76.5220213  57.7828693   2.2246629  76.4454889  57.6679564   3.1718534
  75.6679964  58.1203938   1.9545667  70.3381968  62.8111458   0.5529906
  70.3743315  62.4700546  -0.3406444  70.2725220  62.0315266   1.1044553
  48.2090759  92.9547596  11.4045334  47.7739096  93.0045605  12.2556400
  47.8454304  93.6867809  10.9063995 106.6550494   6.8415971  69.7291475
 106.3768674   6.2547202  70.4322988 107.1803785   6.2894101  69.1500550
  45.2067041  58.4280443  17.3262513  45.0577021  58.2821655  16.3920414
  45.5306768  59.3271732  17.3795831  80.1768398  27.6091003  10.2205789
  80.0739861  28.4598088   9.7940242  79.3277311  27.4420667  10.6296635
  46.2671518  26.5450764  13.3135533  47.0238209  26.4322567  12.7382672
  45.9625149  27.4351335  13.1368375  55.4871464  39.9152207  27.0231628
  54.5860529  40.1136208  26.7684102  55.4003334  39.2961955  27.7480769
  58.6481380  38.4304047  28.3045936  58.3767319  38.0929732  29.1582394
  58.2257318  39.2869520  28.2403064 111.2969744 100.9258408  92.2350007
 111.2805187 100.7302851  91.2981346 112.1518147 100.6122155  92.5301614
  62.1800566  46.3478804  12.6778305  61.7266321  46.9124985  13.3038092
  62.1328688  45.4740191  13.0656064  16.5566278  38.3869481   2.8277892
  16.9935656  37.5386596   2.7521414  15.6832552  38.2397246   2.4647754
  47.5176334  22.2836709   3.7466067  47.4219656  21.4048624   4.1137189
  46.6687155  22.6996565   3.8966846  67.4330985 100.4822010  88.0792129
  66.4928472 100.6420464  87.9979324  67.5947344  99.7176356  87.5264448
  80.4143059  79.9086136  92.2850722  79.9707949  80.4172153  92.9639338
  81.3463175  80.0211829  92.4719220  24.1403567  14.1802926  62.1990782
  23.2196223  14.0501924  62.4261337  24.4497668  14.8386045  62.8212696
 106.8183195  83.7461538  70.1346665 106.3126719  83.7501401  69.3219334
 106.2670910  84.2139549  70.7619959  94.2909838  16.8061109  79.9919551
  94.5070423  17.1189065  80.8704263  94.2042769  17.6028676  79.4686061
  97.1371699  28.3362241  78.7124592  97.1605588  28.7579293  79.5714408
  96.5884925  27.5623937  78.8404041   2.8853676  69.6879584  67.6396733
   3.6415932  70.2573306  67.7817017   2.4676392  70.0365693  66.8521458
  55.3612757  53.9593172   1.8886274  54.9987030  53.1674385   1.4915095
  54.7910404  54.6640301   1.5813187   3.0954825  17.1492906  89.3366861
   3.9792954  17.5168605  89.3374973   2.5447213  17.8490872  89.6876603
  53.9627123  30.1871490   0.2118578  54.5282412  30.8766532   0.5596972
  53.3146954  30.0387311   0.9005344  16.8020022  94.8830032  15.5579877
  16.4492500  94.1918468  16.1184311  17.3257053  94.4182205  14.9053490
  37.6935227 104.3730826  88.1489783  37.3058045 103.9803833  88.9310866
  37.4790998 105.3034968  88.2167136  28.1862497  80.3985405  10.8690608
  28.4685302  80.2378845   9.9686503  27.5593591  79.6987057  11.0520136
  69.4906795 106.2551922  88.5354221  69.9444449 106.2399144  87.6927513
  69.2398822 105.3442759  88.6889505  78.0332518  55.6503201   2.7251005
  77.8195000  54.8151588   2.3091118  77.4285173  56.2772655   2.3282745
   0.4257261  16.4886756  92.3539904  -0.0786127  16.4139171  91.5438756
  -0.2355946  16.5337081  93.0445394  77.3198986  96.9542122  25.3276968
  77.5114489  96.9037151  24.3912220  77.0069408  97.8490448  25.4602385
  87.6356041  86.6778535  94.9051134  87.1995365  87.2100419  95.5705863
  87.8346312  87.2928852  94.1991722  98.8891041  87.0521302  76.8425184
  98.9627516  87.9096598  76.4236504  99.7594034  86.8872518  77.2053247
  70.9278381  97.9259533  83.0690330  70.6811726  97.0603556  82.7432674
  70.9172642  97.8352303  84.0218645  38.7619734  52.1552134   7.8137064
  39.6616840  51.8469191   7.7054882  38.7205982  52.4599171   8.7201685
 112.2643435 106.0395760  89.4510782 112.2126639 106.9116444  89.0598470
 111.3903296 105.8858342  89.8098224 115.4387009  63.6741531  65.6796127
 115.9211027  64.4228095  66.0303789 115.5727970  62.9794574  66.3243204
 105.6356394  77.8021735  81.9938677 105.9643137  78.2490463  82.7739388
 106.2658083  78.0229015  81.3080114 114.6700489 106.7641873  90.5908137
 113.8272154 106.5536208  90.1889115 114.6612560 107.7171416  90.6804234
  94.8136818 107.9727740  92.7261396  95.4074251 108.1959671  93.4429984
  95.3397572 107.4288506  92.1399483  70.7541227  56.9139910  14.7787786
  70.7235527  56.3468933  14.0082633  71.6756487  56.9168472  15.0376570
   7.6809155  25.3492684  91.0666594   7.8634154  25.8166928  91.8817931
   8.0662953  25.8986516  90.3840920  55.6724358  49.2236042  20.8129478
  55.2085257  49.3359089  19.9832451  55.7103157  48.2755995  20.9397674
  40.0296736  62.7842474   8.9079750  40.5275583  62.0855141   8.4835792
  39.2384887  62.8715038   8.3763325 103.3434868  37.4808335  26.1529565
 103.1166077  36.6426969  25.7501078 103.3614159  37.2979927  27.0923591
  79.7072268  85.2974510  24.8173141  80.5813980  85.1311111  24.4646168
  79.1180944  85.1472664  24.0779901  59.4135284  43.9379072  11.4392388
  58.9435339  43.5985851  12.2009456  58.9333677  44.7289228  11.1943543
 112.7196324 109.5804591  84.5352548 113.2189715 108.7800450  84.3733138
 112.0527947 109.3221516  85.1715213  35.8027493  16.1590476  79.4178587
  35.5361735  17.0783753  79.4184011  35.2111899  15.7377667  80.0414008
  52.5722300   5.2994008  79.2496735  53.2181631   5.3914304  78.5492891
  52.4441420   6.1901231  79.5759207  89.4313490  87.9731650  82.8543204
  89.7532332  88.1439490  83.7394506  90.1324522  87.4727172  82.4369043
  71.4686680  25.2227283  20.4772353  71.6553736  24.3422699  20.1514053
  72.2242928  25.4415393  21.0225677  99.6488821  91.8187422  78.1568628
  99.4932472  91.7582006  77.2143429 100.5520594  91.5225977  78.2699924
  36.7458187   3.4096189  89.1543799  37.5595318   2.9900928  89.4338411
  37.0125281   4.2836804  88.8695645  82.2749996  45.6362677  10.0139427
  83.0051804  46.2551785  10.0116360  82.6871014  44.7800779  10.1294506
  86.3035786  76.5102262  85.9571326  86.2486565  77.4657053  85.9405511
  87.0691836  76.3049764  85.4205191  96.7263281  96.1223025  72.4265724
  96.3725722  96.9515461  72.7481991  97.6736510  96.2086291  72.5331455
   6.2061678  10.4726691  85.2660680   5.4400669  10.0646300  84.8625535
   5.8813177  10.8250613  86.0946357  65.0294411  81.2177796  80.7569665
  65.5065787  80.5217285  80.3052097  64.1067159  80.9977931  80.6288343
  62.4169588  44.7670507  28.6804080  61.8339491  44.2126942  28.1617379
  61.9118261  45.5647755  28.8375974 113.6022103  76.4226074  78.3190900
 113.2841217  76.0511345  77.4962538 113.1590426  75.9143895  78.9984661
  16.3343978  32.9678106   3.7378874  16.9886482  32.3834395   4.1209027
  15.5809724  32.4032855   3.5649875  89.7736561  72.9929084  66.9627410
  89.9682820  72.5417346  67.7842003  89.2735350  72.3560304  66.4523512
  99.9720871  75.9928817  63.0408984  99.0758383  76.2190217  62.7922541
 100.3987849  76.8362898  63.1919724  47.6438671 104.5470471  75.0543552
  48.4448707 105.0011391  75.3159362  47.0734870 105.2399868  74.7215920
  45.7354914   2.5570674  85.8107561  46.2477671   2.8606696  85.0613338
  45.2642523   3.3347888  86.1096126  48.6344576  70.2000761   9.7464603
  47.7312851  70.3171921   9.4518387  48.6422348  70.5468464  10.6386042
  58.5661411  75.4265976  25.8316159  58.0922651  76.0974598  26.3231564
  57.9073811  75.0443316  25.2518368  70.6620300  78.9809341  93.5284529
  71.0952317  78.7440223  92.7084280  70.0163018  79.6409697  93.2762167
  52.5178194  78.7400055   3.8043961  52.8138351  77.9780006   3.3064476
  51.7234898  79.0267563   3.3537889  94.6851265  85.3021449  51.1263782
  95.4118788  85.2422661  51.7464429  94.0272581  84.6972961  51.4692956
   6.4405524   6.2456555  79.9080664   6.2597405   7.1286054  79.5856720
   6.5989386   5.7297702  79.1174918  31.1766707  30.0250859  67.7269083
  30.7171856  30.5729432  67.0905453  30.6037699  30.0167699  68.4936839
  19.0433871  43.1550927  35.4413014  19.9540030  42.8762574  35.3450709
  18.6876713  43.1220956  34.5532638  14.3482672  21.7296739  86.3312483
  13.6233555  21.3410659  86.8208563  15.0899922  21.6972013  86.9354176
  75.5273854  88.4889240  70.8258921  74.9867332  88.8109965  71.5471393
  76.1606037  87.9050321  71.2434250  96.4579212 100.3206391  72.7911025
  96.5160095 101.1694331  73.2297426  96.1905825  99.7126335  73.4803706
  31.3278900   6.0834260  88.9600968  31.6512142   6.2334247  89.8484611
  30.4625450   6.4924092  88.9479184 109.1633678  34.1791577  83.1296736
 108.2708288  34.1588349  82.7844316 109.0621997  34.0053601  84.0655094
  62.3996735  70.4955912   5.4113472  62.3955631  69.8575878   4.6977910
  62.8089714  71.2742805   5.0340444  78.8900328  65.4394817  25.8510303
  79.1981840  65.6955528  26.7203426  79.6307468  64.9747944  25.4616189
  75.2786541  51.6736364  18.2133710  75.8237648  51.7773581  18.9933252
  74.4746876  51.2660980  18.5355198   9.2535149  24.9700398  65.8656245
   9.9498164  25.1870961  65.2457195   9.0441309  24.0546985  65.6797749
  17.8742110  26.1031480  82.1252745  17.2578751  25.8154721  81.4517730
  18.2140385  26.9363160  81.7988139  34.9845206  28.2135625  73.5545856
  34.6640288  28.8040395  74.2363888  35.1697193  28.7857003  72.8098804
  17.5553976  11.0064645  55.7678586  18.3129822  11.0838265  55.1879316
  16.8025433  11.1804671  55.2029139   9.7460543  10.9967322  51.2494164
   8.8031994  11.0760303  51.1046105   9.8227536  10.6118484  52.1224624
  52.2431421  66.0809565  29.3738079  51.4993095  65.7219410  28.8900208
  52.1156073  65.7741213  30.2714825  60.5036056 102.0610756  87.9179936
  60.1138127 102.9067177  87.6962369  61.4305746 102.1603293  87.7009481
  77.3256683  85.7535839   9.2348111  76.7026758  86.2104702   8.6696875
  76.9060850  85.7437515  10.0950933  52.7851343  68.7246513   2.7564839
  52.3298883  68.8080359   3.5943556  52.1069717  68.4431791   2.1423998
  17.8753506  33.6921258  84.0273183  18.3507000  32.8637834  83.9631206
  17.9161965  33.9203591  84.9560123  54.9446058  36.3742328  19.4440663
  54.6392393  37.1977067  19.0634429  54.9022150  36.5171432  20.3895879
   7.4113356   8.5007234  65.3876477   7.7118431   9.1720004  66.0002738
   8.1835114   7.9575105  65.2298671 104.5851612  79.7775412  31.9172454
 104.1378784  79.8265600  31.0723948 104.8803520  80.6726360  32.0842600
  81.5683651  55.9159565  32.8165555  81.4061356  56.8013334  32.4909544
  80.8375835  55.7411957  33.4095621  61.6831493  70.7068014  11.2756062
  61.1495352  70.0560808  11.7317295  62.1444988  70.2081251  10.6012809
  63.7724543  30.8587766  19.6789682  63.5851526  30.6931591  20.6029391
  63.9211893  31.8030953  19.6302569 114.5154249  83.6621827  86.5376347
 114.7585356  83.7945074  85.6213271 113.6699021  83.2151574  86.4989513
   1.3819956   2.5837088   0.4538513   1.7951750   3.4237529   0.2542745
   1.0005735   2.7049685   1.3233575  18.3239924  37.5704522  93.7553352
  18.3402573  38.1368489  94.5268003  18.8967310  38.0075688  93.1251548
  40.4913425  57.0473242  30.6024218  39.5733380  56.9177580  30.8405685
  40.5896616  57.9971027  30.5354691  28.7355410  47.3554368  82.2575587
  29.2928873  48.0727620  81.9558364  29.1820704  46.5632291  81.9588059
  84.2778027 109.3477625  86.2157416  83.7643444 109.1269726  86.9928157
  84.9813139 108.6988491  86.2011879 114.1052973 102.5318379  91.5833315
 113.1955015 102.6500363  91.3103089 114.6145594 102.6657290  90.7839852
  99.4847965  72.1773815  19.0425062  99.8165989  72.5182676  19.8731327
  99.7369003  72.8361559  18.3954394 111.9545151  16.7385430  58.9165121
 112.3926259  16.0831733  58.3735758 111.4311958  16.2272258  59.5336991
  10.7126318  11.8104835  84.5994073  10.8170067  12.0262857  83.6727088
  10.5223929  10.8724113  84.6069282  49.0981661   0.7343955  85.6146973
  49.5817553  -0.0125222  85.9675312  49.2559038   1.4398570  86.2421351
  27.6467263  10.8735843  69.1904193  27.8019463  11.4804311  68.4666258
  26.7097985  10.6826825  69.1461807  35.6522703  76.5387726  19.1312325
  36.0731387  75.7322264  19.4288635  34.7638154  76.2722158  18.8949466
 104.1090488  49.7427034  14.7836828 104.5257664  50.3857040  14.2099881
 104.4179821  48.8967085  14.4595110  20.4779517  32.6242108  68.2866436
  20.4434668  33.2891698  67.5989872  20.1754223  33.0775209  69.0735513
  17.5393139  26.7474790  76.9341785  16.6340720  26.5316720  76.7101472
  17.8306948  27.3223062  76.2264305  51.8087006  44.5805359   3.7277490
  51.3386536  44.1233730   3.0304027  51.6410255  44.0580559   4.5120543
  69.2236996  48.9976215  23.6091566  68.9250278  49.6510506  22.9766560
  70.1780224  49.0126801  23.5365462   3.3316205  87.9922957  56.6818195
   3.1808827  88.7073225  56.0635620   4.2817090  87.9709906  56.7963463
  30.4596684  97.2154469  68.3729464  31.3037655  96.7656464  68.4104425
  30.4546235  97.6443381  67.5172239  82.2674274  46.8431282  17.3042130
  81.7710304  46.7975616  16.4870524  81.7187691  46.3885546  17.9434061
  79.2748928  57.2226858  14.7891700  78.5005760  56.6617918  14.7437537
  79.4003487  57.5309038  13.8916767  57.3861217  16.8228006  14.2381227
  57.2142124  16.4382529  13.3785868  57.5736046  16.0729933  14.8028076
  89.7867596 100.0639099  87.3185003  89.8500645  99.9245972  88.2633906
  90.4226029 100.7555384  87.1352404   4.6462952  34.1475816  84.4473773
   3.7280690  34.1135640  84.1791695   4.6867119  34.8718209  85.0719398
  99.7363341  93.7791604  85.6353438  99.9614298  94.5012278  85.0486737
  99.6612036  93.0177445  85.0601619  71.0049534  70.3360748  10.2517688
  71.5493679  69.5609570  10.1138103  70.7537746  70.2912283  11.1743355
  39.4525753  13.5257144  88.7516659  38.8833939  13.8981624  89.4251245
  39.9158131  14.2793174  88.3859795  36.1918198  22.1212049  57.6556307
  36.4570128  22.9707856  58.0079323  36.9199978  21.8572850  57.0931941
   3.3979391   0.5523825  31.1604118   4.2947363   0.5680228  30.8261299
   2.8965544   0.1028681  30.4801321  15.8763729   3.3782764  77.7361351
  16.5250336   2.6924415  77.8945642  15.7378899   3.3628221  76.7891317
  26.1290789  19.5114636  33.7589359  25.5169606  20.1639676  34.0992022
  26.9658804  19.7317004  34.1681910  47.5848246  57.1365786  14.2656183
  48.4165287  57.4606514  14.6112776  47.0257092  57.9121971  14.2204952
 112.8437854  75.1704640  73.1883317 113.0491019  75.3302522  72.2671681
 111.8921257  75.2591081  73.2404762  59.5872927  64.3029594  18.6797094
  59.7641087  64.4240141  17.7468038  60.0525427  63.4985447  18.9092553
  61.2039709  49.7875834   5.7138664  61.5107870  49.4465160   4.8737675
  61.1229086  49.0137100   6.2713408  61.9137478  47.1864080  10.0373852
  61.5344810  46.6414213  10.7268596  62.1655321  47.9953766  10.4828155
  42.5256144  11.6206307  87.5222212  43.4212672  11.3480182  87.3228961
  42.0315062  10.8022971  87.5713593  77.7540827  54.3244505   5.3951061
  77.8733349  54.9369144   4.6692282  76.9888735  53.8055038   5.1473624
  94.9329149 108.1767411  75.5472332  94.6642935 107.5000376  76.1686414
  95.4878676 107.7168316  74.9173599  60.0648403  65.9186506  25.0903702
  59.7823954  66.4943838  25.8009982  60.4195833  66.5118361  24.4281650
 110.4713441  15.0465531  60.4045850 110.8130098  14.1547580  60.4693538
 110.0186015  15.1905246  61.2355667  26.9503045  42.8180075   5.5287993
  26.3761902  42.2881174   4.9757689  26.8145871  42.4756193   6.4123058
  50.9847914   6.9003816  66.3933998  51.7388235   7.3059602  66.8213779
  50.3391825   6.7976041  67.0925861  93.5996401  68.6734135  54.3858129
  94.2404568  68.3738024  53.7409717  93.8773930  68.2664341  55.2064544
  22.5204632  80.8478731  78.3799928  22.5924180  79.9538988  78.7144488
  23.4157632  81.1856074  78.4046298 109.7167301 101.2037659  24.0143228
 110.6165695 101.2916660  24.3286228 109.5778847 101.9762325  23.4663677
   8.7517998 103.9579863  90.0764590   8.0293343 103.3358664  90.1615515
   9.3699334 103.5278506  89.4855946  18.5011647 108.4252114  76.6729384
  18.6987469 107.9752726  77.4943691  17.5886796 108.6997313  76.7636901
  64.5644379  20.7905364  31.5499187  64.5441246  21.1235499  30.6527448
  64.4948959  19.8406506  31.4544487  68.5821342  75.3406382  18.6409688
  68.5254478  74.9440718  17.7716279  68.0590487  76.1394978  18.5743809
   8.5900961  20.1821799  65.6124455   9.4316088  20.5977244  65.8006221
   7.9611384  20.9037347  65.6133991  42.8587294  52.5340652  23.3815002
  42.7945566  51.8599224  22.7050042  43.7861061  52.7706575  23.3966541
  69.7472143  24.0710759  13.6944616  69.8470020  23.3311510  13.0954778
  70.5890512  24.5250678  13.6566448  68.2685458  40.8649869  84.1005784
  67.6833044  41.2619729  83.4555059  69.1482912  41.0538430  83.7740499
  59.2955446  68.7891150  12.5812519  58.5186434  68.3207703  12.8867161
  59.6485567  68.2376528  11.8830371  73.7868977  46.0075665   0.7812118
  74.1232824  45.6269503  -0.0300892  74.3945742  45.7067919   1.4568579
 111.7511177  63.6579275   5.2485055 111.5826893  63.9887142   4.3662095
 111.1726189  62.9002047   5.3347051 106.5342236  56.9315386  16.5470040
 106.6829586  57.8602648  16.7246842 106.1074066  56.9169235  15.6903601
  75.1677310  82.2130651  82.4326211  75.0338733  81.3590807  82.8437501
  74.3935168  82.3387403  81.8839580 116.6344368  81.2750716  94.1963810
 116.9596398  81.0182161  93.3335367 115.7815182  81.6730756  94.0221437
  95.2881527  65.1291037   1.2298332  94.6098709  64.6679974   0.7363436
  95.7002926  65.7071733   0.5877948  53.8543892  35.3871894  23.2958603
  54.0963125  34.5310569  22.9426742  52.9752350  35.2595210  23.6522579
  32.1340452  45.3283258  70.6781894  32.8470980  45.6032891  71.2545401
  32.1513783  44.3719907  70.7152039  47.3340130  73.5942936   7.9353642
  48.1627464  73.4053087   7.4952340  47.2278357  74.5417070   7.8495395
  54.9801302  44.5631981  18.2797468  54.1003609  44.2202997  18.1227064
  55.4485703  44.4053078  17.4600732  17.5544106  22.2845120  76.3500803
  17.9971014  21.5920539  75.8594101  17.1027027  22.8001876  75.6820410
   7.4678742   0.3794522  75.5094474   7.0355593   0.5453868  74.6717101
   7.7117382   1.2480445  75.8293110  26.2030112  33.0032487  44.4295484
  26.1086499  32.5737996  43.5793096  26.8979918  32.5135751  44.8693877
  20.2118561 107.3160929  64.6648770  19.6072457 106.8536991  64.0844685
  20.7057736 107.8949637  64.0841990  77.3475027  72.2556686  19.6775424
  76.7853308  72.0126009  18.9419389  78.1110144  72.6650047  19.2704487
  60.9854174  64.9172354   8.8687587  60.9170866  65.7152319   9.3929350
  61.8777180  64.6061563   9.0212899  90.2590548  11.7714973  50.7432586
  90.6008898  11.9395442  51.6214019  90.2455889  12.6313443  50.3228837
  12.5088011   9.5706840  95.0192528  12.4063574   9.3541951  94.0924998
  12.5310456  10.5273862  95.0406912 113.5261298  23.9898057  87.6597184
 114.2343570  23.3573813  87.5385332 113.9276648  24.7083612  88.1482708
 112.5764848  21.2490363  78.2854324 113.2033492  21.9037194  77.9777568
 111.7703510  21.4466519  77.8086442  73.8207388  59.1537857   3.0397591
  73.3677769  58.4737110   2.5412089  74.4968462  58.6831999   3.5272637
 104.3503535  96.4935774  92.2765240 104.1939127  97.2284884  91.6835129
 104.9862206  96.8275542  92.9092714  62.2931957  43.5491180  14.1865015
  61.3543987  43.6583376  14.3380451  62.4390459  42.6057339  14.2570806
   6.0298239   9.9238009  93.2848760   5.4921089  10.1987071  94.0275196
   5.6180464   9.1164584  92.9768722  65.2785873  55.7097149  13.6241031
  64.9136066  56.4211178  14.1503394  66.2253714  55.7852936  13.7429261
  31.6823756  23.5028596  89.4494140  31.8683707  22.5645824  89.4850629
  32.4186837  23.9104838  89.9054074  55.5015516  72.1013260  25.5528498
  54.8527813  71.5082836  25.1738596  56.3451147  71.7320061  25.2916408
  60.4129314  25.2246284  26.7479420  60.2779007  24.3963838  26.2874937
  61.2523127  25.1160336  27.1950245  25.7670008  32.7840371  92.7155882
  25.5252825  33.7101884  92.7093199  24.9312388  32.3181863  92.6888017
  57.4109507  97.3067474  54.0236616  56.7246008  97.2911644  54.6906757
  58.2166243  97.1173573  54.5045519  66.4656973  35.9721017  17.1504128
  67.1348286  36.5695977  16.8165088  66.3616085  35.3185129  16.4588797
  21.8612181   9.1972299  77.9021007  21.1430584   9.3639464  78.5125786
  21.5671383   8.4469838  77.3854929  96.2473976  97.8109545  74.9016458
  95.8657372  98.0540270  75.7451397  96.9025671  97.1473498  75.1175290
  96.6623747 107.0276446  83.0049222  96.8849385 106.1509318  82.6917523
  96.3312256 106.8881602  83.8921183  39.3890214  43.0175161   7.7239656
  40.0612402  42.5196314   8.1892258  38.6474609  42.4158001   7.6587224
  94.8970711  87.0905084  40.6819707  95.4865420  87.4225826  40.0048524
  95.4787647  86.7995614  41.3842612  41.0606276  16.1389537  78.0729264
  40.9017359  16.7335410  77.3398131  41.3662611  15.3297277  77.6630884
  64.5069205   7.9818196  70.3481370  64.1762434   8.8775296  70.4158932
  65.4149615   8.0826945  70.0626141 104.9116101  85.8421230  34.1987228
 104.7516217  85.5590439  33.2984447 104.8615386  86.7973042  34.1619301
  10.4068506 104.7499084  57.4296093   9.7481322 104.1310596  57.1144152
  10.4645252 104.5800972  58.3698606  99.9289550  81.0013103  26.4800096
 100.1482250  81.7438221  25.9171343  99.1456046  80.6219196  26.0816884
 115.0957218  84.6359253  54.1482258 115.4203420  84.4448662  55.0282001
 114.1437184  84.5726490  54.2251492  94.5295109  79.8569345  42.8414345
  94.3755593  80.4967213  42.1463060  94.2911830  79.0163851  42.4503994
   7.7037531  94.8527431  61.9671059   8.3614600  95.5411816  62.0655823
   8.0668384  94.1049671  62.4416971 106.8328091  85.9288597  42.8962469
 106.4125516  85.7039547  42.0661640 106.6141399  85.2024269  43.4799623
  41.4000021   0.5711318  16.4828622  41.4659668   0.8479834  17.3967731
  40.4594643   0.5499602  16.3063049  20.4368114  44.6136618  18.0440378
  19.5054662  44.4174099  18.1456053  20.6163406  44.4506407  17.1180654
 116.2153432  74.6713114  71.0449028 115.3617161  74.5890856  70.6197071
 116.8263908  74.2532825  70.4381895  14.2002273  52.9616499  17.0170760
  13.4367692  52.4029589  17.1627748  14.1959774  53.5704374  17.7557170
   7.7723199  39.2148995  18.2545137   8.0962884  38.9432430  19.1132784
   8.5555923  39.2593288  17.7061141  85.8281340  83.9166832  49.1897106
  85.0912203  83.9151859  49.8006010  85.4848756  84.3373394  48.4013844
  67.7939619   0.3530265  38.0400276  68.0655588   1.2654067  38.1401896
  68.1835903   0.0768328  37.2104859  12.9875278  84.0582085  21.8674731
  13.5143852  84.8432159  22.0171857  12.0820034  84.3610191  21.9349957
  25.5192686   2.6697684  41.5440178  25.7674850   2.7443457  42.4654627
  25.9163679   1.8482733  41.2547302 115.1470550  57.5340796  53.0352068
 115.5517551  58.3495283  53.3309937 114.9895014  57.6700211  52.1009016
  64.0231765  12.8318167  32.0781827  64.9651827  12.9385901  32.2103000
  63.6261524  13.2270289  32.8543329 113.8858487 103.2557678  17.9213083
 114.5974044 103.8638783  17.7210069 113.8361265 102.6844978  17.1548820
 110.0543048  32.2108507  16.6675603 109.9715616  33.1437325  16.4697742
 110.9781673  32.0141745  16.5125489  57.2702850  25.4465152  49.3950891
  56.4603890  25.9194613  49.5864487  57.5521125  25.7877875  48.5463619
  76.9618144  74.6163464  32.1343517  77.0969548  75.3026581  31.4809442
  77.2734751  73.8169432  31.7100191  41.2892342  98.9508343  31.6666794
  41.4934492  99.7673512  31.2108111  41.8560696  98.2985020  31.2551022
  38.1623241   0.1356650  33.7868977  37.2235854  -0.0291204  33.6983037
  38.2249193   0.8029319  34.4703174  68.8049782   2.8428317  38.4624195
  68.3620037   3.6864138  38.3708978  69.6464051   3.0566359  38.8655519
  10.4354310  94.1384411  58.0363321  10.6051290  94.9309921  58.5455465
  10.7405674  94.3505859  57.1542215  14.5832038  70.6809282  30.4835534
  14.7593212  71.5814114  30.7562160  15.3028798  70.1724005  30.8573174
 104.6521582  67.0201635  41.1009073 105.4256787  67.0428085  40.5375385
 104.6784606  66.1547995  41.5091848  36.1563946   2.6859618  44.4491482
  36.4890422   2.4102545  45.3032923  36.1292635   1.8812323  43.9315510
  49.1322947  86.7465305  18.7724769  48.9433575  87.2262192  19.5789731
  48.3479071  86.8615246  18.2360578  93.8389554  83.3512115  57.1272278
  94.1094865  82.9728889  56.2906170  94.0350594  82.6715088  57.7720404
  70.9162223 107.2415442  83.1086582  70.4932892 106.8721480  82.3334771
  70.9793055 108.1785387  82.9234856  96.9589414  89.7393227  44.1380930
  97.3178234  90.5547523  44.4881153  96.0196676  89.7962856  44.3134546
 109.3742528 106.6644192  45.8785105 108.5299071 106.7621994  45.4383373
 109.4650044 105.7214737  46.0158062  22.9551291  57.4599171  29.3383908
  22.4424672  56.7107821  29.6420503  23.4913301  57.7047157  30.0925756
  85.6644298  27.2735162  81.3366943  86.1497636  28.0976243  81.3756913
  85.2066697  27.3046536  80.4966241  16.4932191 101.8774509  30.3255343
  16.9113183 101.0608482  30.5986190  15.9156001 101.6219425  29.6062970
 114.2824480  63.2082844  40.1208258 114.7951241  63.4221745  40.9003401
 114.7097232  63.6909962  39.4132543  34.1322327 107.0003414  34.1783166
  34.0553284 107.3584366  35.0626755  35.0577521 106.7718506  34.0920806
 104.4863929  83.7759590   8.3842283 105.2988340  84.2727757   8.4808660
 104.1245868  84.0688419   7.5478399 111.2898352  91.2643528  19.6322310
 111.4475366  91.8998051  20.3304863 111.9108679  90.5572701  19.8071229
  93.9474573  74.6057940  52.9299831  93.2594266  73.9592981  52.7722168
  94.7544827  74.0924263  52.9673481 104.4346752  81.6753292  61.5451384
 105.3307941  81.9980621  61.4500189 103.8911070  82.3586750  61.1529589
   1.3125454  92.9899502  49.5876360   0.3874354  92.9878807  49.3418741
   1.4564173  92.1316242  49.9861383  10.0539422  47.2179651   6.8740165
  10.6724942  47.8618574   7.2190261   9.4277847  47.0823669   7.5851923
  10.5507660  84.5714283  65.7297611  10.1685214  85.4449940  65.6460953
  10.9054613  84.5493126  66.6185427  16.8010426  83.5718155  34.6800876
  16.0484719  83.1098938  35.0495458  17.1344209  84.1032410  35.4030490
 113.1270479  80.9537315  55.5884886 112.5022542  81.6523170  55.3939724
 113.6289944  81.2821674  56.3344145  57.6023222   3.9558358  86.2634963
  57.5144721   4.0726705  87.2094685  56.7019988   3.8849301  85.9462875
  36.9514660  21.9063044   6.9614184  36.5076553  21.3849879   7.6303720
  37.7822422  21.4533568   6.8168986 106.1880686  68.2253838  28.3223867
 106.3941815  68.9768934  27.7665186 105.4800930  67.7743006  27.8624678
  10.7419467  86.3853264  11.1961603  10.5197799  87.2893715  10.9734881
  10.9241140  85.9689999  10.3537130  97.5318029  55.9086847   7.3312449
  96.9554522  55.2902126   7.7801764  97.1678640  55.9778690   6.4486384
  27.6370549  84.8730183  26.9670677  28.5059285  85.2568722  27.0851469
  27.7874923  84.1046047  26.4164853   4.7858024  76.1156225  26.7076111
   4.8153493  75.6650782  25.8635902   5.6379014  76.5457344  26.7794728
 106.8855978  38.9819856  87.7282411 106.9960452  39.7071881  88.3431583
 106.2249256  39.2917676  87.1087414  19.6530902  89.2793560  25.1953626
  19.8637784  88.4603405  25.6437445  18.9178956  89.0573597  24.6240139
  24.1964902  11.0414839  28.5149932  25.0321544  10.5756331  28.4852886
  24.4003345  11.8718482  28.9453149  26.2673569  84.8274612  20.2945542
  27.0589662  84.7846603  20.8309817  25.7449698  84.0772057  20.5781937
  58.3851792   0.2201224   4.3000320  57.7143420  -0.1238012   3.7101829
  57.8961004   0.5418444   5.0573498  49.9972559   6.3505030  52.2683191
  49.3540693   5.6841326  52.5101662  49.4736220   7.0783568  51.9332504
   7.9167175  89.1140270  65.5681086   8.0646664  90.0454140  65.7319832
   7.0567405  89.0781689  65.1493168   7.9830199  87.1026993  26.1619353
   7.2201520  86.5568542  25.9713769   7.6495081  87.7857018  26.7437530
  52.9262747   7.6282836  30.3965855  52.0485319   7.9794265  30.5465746
  53.0648292   7.7242041  29.4543362  96.4407982 101.6841221  19.0517139
  96.4654007 100.7450676  18.8678610  95.5423679 101.9444942  18.8485825
  20.3395677  72.4118137   7.4927139  19.9770415  73.1389809   6.9867170
  19.6898544  71.7139626   7.4084139 107.5843247  90.9437084  11.2689924
 107.8423562  90.0676060  11.5555203 108.2142784  91.1668110  10.5837047
 110.2994134  86.2280655   4.5502394 110.0043794  86.9522190   5.1023144
 111.2509843  86.2203598   4.6536049  20.2266884 107.7188110  31.7790484
  19.9544120 107.1808434  31.0356236  21.1798549 107.6335716  31.8000197
 111.2459745  65.1846600  75.2596998 111.7652847  65.2288246  76.0625696
 110.3438594  65.0832272  75.5632305  21.1521101  88.2216358  64.2953396
  20.9066486  89.0951633  64.6001911  21.2434268  88.3157444  63.3471632
   6.3965976  61.2962294  13.1665480   5.7934630  61.4900732  12.4489927
   7.2658610  61.3462782  12.7689195  58.7243630  18.6120654  22.2667527
  58.5987939  17.8687430  22.8566122  58.2653083  18.3617831  21.4649677
   4.8933825 107.2860146  18.4036279   5.5790710 106.8033218  17.9420292
   5.3553534 108.0050945  18.8345981 111.6188436  79.9917936  48.8348579
 111.3431074  79.0800381  48.9292192 111.7862441  80.0956726  47.8981543
  54.7518898   1.4014102  47.6388550  54.8809231   2.1478415  47.0536900
  54.6270515   1.7933989  48.5031366  12.9685175 103.4194374  40.7959652
  13.3831978 104.2783546  40.7151270  13.2445943 102.9454041  40.0115490
 110.8579071 108.6997700  46.8734217 110.3870167 107.9717445  46.4678764
 111.1916103 108.3408356  47.6956320  55.7532692  93.9045048  47.0236254
  56.5128899  93.9536381  47.6039600  55.0184679  93.7134838  47.6065588
  89.1159154  35.7683892  87.5455946  89.1774393  35.0746198  88.2022065
  88.1770647  35.8640237  87.3854583  62.0133747  16.2928344  17.7327943
  61.3478960  16.9643832  17.5831318  61.7477406  15.5634070  17.1727896
  71.4926494  10.0401450  21.6552520  71.6735996  10.1853896  20.7266021
  70.5615843   9.8201705  21.6863012  32.1789193  98.9138031  31.5399623
  32.1081233  99.2890453  32.4176931  32.1199131  97.9684639  31.6781473
 112.3321881  80.2263069  13.2865012 111.4073207  80.4037857  13.1151736
 112.4157848  80.2886963  14.2379999   8.2181001  59.8750067  28.8620520
   8.7275714  59.8664618  29.6723580   8.0087960  58.9549541  28.7010169
 105.6923546  75.8866644  12.3745108 105.2388014  75.1065016  12.0553386
 105.2309503  76.1191082  13.1803071  11.7094588  93.7591267  29.1400170
  11.8059230  94.6924114  28.9505219  12.3863757  93.3362389  28.6116481
 116.2381037 101.1948299  37.5944972 115.5892913 100.5935669  37.9602265
 116.2570572 101.9290447  38.2083273   4.7853959  55.4973030  33.5911083
   3.9609376  55.9662914  33.7197709   5.0691420  55.7484293  32.7120996
  22.4565482  86.0839748  27.2455072  23.0859351  86.1870956  26.5317369
  22.9520392  86.3015461  28.0350518 103.6920108  98.1946182   1.3205566
 104.3654146  98.3196926   0.6518901 103.2648661  97.3726273   1.0794973
  97.0866348  95.0550652  16.7215979  97.2527113  95.7419586  16.0759807
  96.2694635  95.3173065  17.1455014  11.9487929  58.2509613  15.0637114
  11.1841059  58.6289692  14.6294367  11.7548788  58.3256435  15.9980845
  60.4098047   1.8960047  33.1667185  61.2478079   2.3499728  33.2555914
  60.1190723   2.1016169  32.2782207  61.4181317   3.4533263  29.1574430
  61.8819488   4.0572024  29.7374749  61.9371260   3.4475661  28.3531785
  92.7834035  44.8853345  85.9252023  93.3322359  44.3697209  85.3343069
  92.7954925  45.7677312  85.5544436  86.3857908  28.3534570  85.0608033
  86.4750607  28.9345689  84.3054431  86.3485760  28.9433332  85.8137244
  89.7218813  12.4886466   4.9281386  90.5599798  12.0369673   5.0271690
  89.6582140  13.0478430   5.7023996  32.4147558  96.7206478  26.7314839
  32.6729751  96.9754124  27.6172876  33.0334091  97.1768951  26.1611032
  29.4366075  15.1894427  35.2726388  28.8522125  15.1901580  34.5145392
  29.2403282  14.3693495  35.7255840   8.3776289  85.7855415  44.8193502
   8.9540452  86.1086750  45.5118513   7.7459669  86.4919662  44.6844339
  45.1962419   5.5816031  36.7069888  45.8548279   6.2516547  36.8900871
  45.2084811   5.0163604  37.4793768  62.8504909   6.2156726  60.1473284
  62.2023882   6.4917613  60.7953787  63.1618918   7.0323420  59.7570562
 109.9526538  94.0813160  47.8855085 109.7856667  93.1950378  48.2062197
 110.1127096  94.5960617  48.6764908  16.8760729  81.1560726  28.4927988
  17.2781610  80.9729099  27.6436782  17.6152503  81.3328743  29.0746856
 111.0205247  84.3136406  19.9509633 111.4955546  84.5300388  20.7533026
 110.3923680  85.0279999  19.8444581  17.3601913  43.8275480  42.9616404
  16.8232775  44.3308640  42.3495722  18.2617450  44.0263653  42.7088451
 106.9983073  73.4388638  26.3320661 107.1704300  73.6072636  27.2584820
 106.0999372  73.7402678  26.1967206  54.4525528 107.6344872  58.1792021
  55.3687239 107.4631214  58.3971548  54.4149351 108.5789204  58.0280018
  17.3286045  80.3563404  26.0600662  17.5194895  80.8302498  25.2506208
  17.0083499  79.5028639  25.7680869  46.8377597   7.5832129  18.1513584
  45.9545208   7.2717715  18.3491695  47.0237149   8.2264472  18.8353884
 114.4067653  81.7047596  53.1320095 113.8901599  82.5100613  53.1607533
 114.1918730  81.2530899  53.9481306   2.8309189  33.3201451  88.5754460
   3.1746899  34.1954942  88.3970928   2.7430474  32.9167886  87.7118414
  25.0753140  99.1352749  67.4872923  25.7760477  98.7067127  67.9787636
  24.3878961  98.4722996  67.4228191  98.6749054   5.3220744  86.4375925
  98.4017087   5.5880876  87.3155629  99.6248747   5.2237887  86.5018457
  87.0227398  30.6054068   9.3195426  86.4668525  30.4634810  10.0857520
  86.4201225  30.5705310   8.5766655  17.2279632  79.7281551   3.3835030
  17.9018426  79.8565388   4.0510628  16.9098651  80.6103039   3.1915268
   3.0811247  86.9362354  53.8212538   3.0245242  87.8894901  53.7554836
   2.7022988  86.7322350  54.6762991  12.3529421  36.4201493  92.4782389
  12.8133808  35.8814282  93.1216755  11.6381489  35.8642335  92.1679890
  15.0777626  83.6466885  17.4686265  15.5742443  83.4457016  18.2619381
  14.1675746  83.4660721  17.7035010  33.9272022  68.7913322  13.3180368
  33.1963706  69.2338610  12.8864276  34.6822095  68.9749432  12.7590346
   7.2248948  89.1039467  22.2604036   6.7160738  88.2998753  22.1564984
   7.0446658  89.3872929  23.1567669  72.0636238  15.5359603  18.3234406
  72.4285115  15.4391623  19.2030537  72.4644865  14.8283435  17.8186464
  96.4567866  68.4025431  75.4937696  96.8694975  67.8363752  76.1459684
  95.8937564  67.8156233  74.9890375   8.3037466  99.4878292  21.1813307
   8.6005086  98.5921574  21.3423944   8.8810873 100.0314808  21.7173839
  30.4278851  90.6085587   8.3385205  30.5892634  91.4881992   7.9973322
  29.8505354  90.2029610   7.6916873  49.9192190  94.4904900  27.2721863
  50.2728701  95.0716305  27.9455638  49.2881680  95.0308609  26.7967868
 100.3729643 107.2182655  15.1563239 100.6951751 107.9844093  14.6815264
 100.2265241 107.5333500  16.0482359  14.3714213  84.3086052  13.1375039
  14.4375575  83.3940506  12.8628492  14.1360533  84.7819138  12.3394978
  10.2348269  21.2782431  28.7595892  10.1560153  21.8831874  29.4971943
   9.3350829  21.1464835  28.4607053   7.6920170  78.0431557  21.5556717
   7.3592263  77.2082233  21.2264776   8.4601927  78.2250023  21.0143137
 108.1576737  68.1385136  14.1553521 107.2743054  68.2726526  13.8119876
 108.6458244  67.7653456  13.4213996  23.0322647 105.9405518  39.4707465
  23.9584637 105.7624149  39.3074822  22.5885391 105.6511307  38.6735177
 113.5074606  84.2004013  37.1823311 112.9307728  84.9029636  37.4824500
 112.9122107  83.5179424  36.8722224  91.8985166  76.5772152  44.6485376
  91.2865176  76.6138649  43.9134550  91.5925660  75.8411360  45.1784468
  41.0457725  15.7483435  25.9517884  40.6743791  15.7651282  25.0697351
  41.5304632  16.5706588  26.0232711  48.7904692 102.1466160  37.5331140
  49.4193268 101.5575886  37.9500270  48.0197668 101.6013145  37.3752999
 105.3682103  99.0058231  50.3680563 106.1486544  99.5515633  50.2715921
 105.2428081  98.6124229  49.5044947   1.0361870 108.3676052  62.7322054
   0.9133493 107.8849983  63.5496664   0.1645207 108.3963490  62.3377419
   5.6054360  89.0053463   8.2343853   5.0214148  89.0437698   7.4769717
   5.7627422  89.9216175   8.4622627  14.7404289 103.4147072  48.6803389
  13.8468993 103.4674168  48.3411360  15.1389539 104.2500687  48.4362364
   6.6994804  84.4158745  25.2651024   5.7434595  84.3946934  25.2225947
   6.8957353  84.5113182  26.1970925  57.6110841  15.5200339  26.6018915
  57.6454474  14.8543883  27.2888899  57.2866775  16.3043833  27.0443749
  17.0367182  14.0449382  27.6512980  17.4202336  14.4757128  28.4152222
  17.2462286  13.1183291  27.7685213  61.3926233  15.7395507  45.4170465
  60.5613078  15.4583026  45.0348902  62.0100869  15.7231856  44.6858168
 114.4422032  74.8602819   1.7961073 114.0769411  75.6946850   2.0903671
 114.2408048  74.8271608   0.8609210  15.6294191  61.9820881  39.9304700
  15.1550722  61.7997503  39.1193104  15.6246960  62.9366541  40.0012922
  57.9405583   8.0221987  16.3621151  57.2524549   8.4759474  16.8488014
  57.4799801   7.5897933  15.6430042  13.7777388  95.0078011  39.7783804
  13.2788491  95.1865005  38.9812541  13.1347775  95.0776100  40.4840422
 113.9896527  76.6640377  38.0379725 114.0089739  75.8668089  37.5085545
 113.5827707  76.3948584  38.8615131  13.8767195  88.9321899   4.4275329
  13.7992990  88.1917477   3.8258791  14.7857201  88.9041328   4.7261345
  49.3201388  38.7236071  44.5514011  49.5497192  39.4243193  43.9410543
  48.4371538  38.9440680  44.8479891   2.5204033  74.4429779  49.6707773
   2.9743287  75.2739096  49.8112679   1.6237658  74.6075392  49.9626541
 111.8233084  84.7097111  71.5250254 112.0636134  83.8800716  71.9375658
 110.8663704  84.7189999  71.5454054  61.1041130   6.5421057  31.1382294
  60.7467378   6.7762900  31.9947767  60.9689606   7.3225833  30.6008029
  78.7377991  72.2781467  41.5950918  79.6780004  72.3621464  41.4363670
  78.3813276  73.1412172  41.3846874   6.2809390  83.1463337  35.0160003
   6.5124011  84.0260792  35.3138256   6.7777860  83.0291271  34.2062855
  46.4586241   9.9036647  58.3351517  47.2081162   9.5015097  57.8960991
  46.7793204  10.7589102  58.6214066  12.5048149  92.7647495  33.3460259
  13.0818391  92.6044178  32.5993180  11.7173064  93.1499958  32.9617834
  16.6084015  90.5878353  53.1399584  15.8652353  90.7711601  53.7146997
  17.3654175  90.9411240  53.6072302  45.7289697   2.1620417  17.2225320
  45.7339741   1.3769961  16.6748798  45.6842918   1.8286277  18.1186759
  32.7787955  12.8349734  44.1603899  33.3156730  13.5310984  43.7816954
  32.4279327  13.2145167  44.9660444  22.5189734  73.0874872  23.2349420
  22.6243186  72.4105787  22.5664186  23.1728888  72.8713989  23.8997221
  24.0294099  83.8072777  41.3720369  24.3827605  83.5697842  42.2293425
  24.0639782  82.9957867  40.8655596  32.3552012  88.1018734  19.8638761
  31.4315939  87.8676510  19.7726655  32.3540974  89.0562057  19.9379301
   5.0290024  68.1106997  74.9789810   5.9337115  68.3934832  75.1122761
   4.5452183  68.5058689  75.7042551  30.6212592  85.9390736  37.2726130
  31.0634899  86.4440441  37.9550147  29.6957660  85.9676647  37.5152612
  32.0304132  79.9124575  10.2935421  31.4085269  79.5581913   9.6579444
  31.5114522  80.0482845  11.0862982  72.3804099  39.8412843  90.7974848
  71.5722741  39.9037213  91.3066503  72.2803409  40.4975648  90.1079100
  96.1470546 103.2762718  80.2694511  95.5348005 102.5908947  80.5371189
  95.5952730 104.0426540  80.1131630  86.0403409 105.3267765  10.4473913
  85.8469500 104.3950367  10.5508089  85.9772672 105.6842327  11.3330984
  22.6346135  85.6208706  61.3876390  22.5866032  85.5843067  62.3429346
  22.0316839  84.9390602  61.0912514  17.3131371  62.6011038  27.7146268
  18.0620182  63.1368208  27.9761958  16.7830455  62.5267172  28.5081649
  39.9495543   2.6232291  57.1387863  40.2893014   1.7304183  57.1994829
  39.8941207   2.7950144  56.1987591  93.7475218  22.3837329   1.1975871
  94.1849006  22.6857615   0.4015258  93.5961546  23.1811667   1.7049588
 110.9549077  99.8013878  27.4447918 111.7824652  99.3778992  27.6729107
 110.2837225  99.1679192  27.6986814  13.6140752  66.4199066  23.0952668
  12.9152584  65.9152317  23.5114336  13.1750786  66.9070721  22.3979998
   0.4403313  96.7947769   7.1755511   0.7598551  96.1456108   6.5488756
   1.0235591  96.7072010   7.9294789 102.9874422  88.3113289  42.8691530
 103.5815897  88.3903599  42.1228456 102.1149912  88.4330654  42.4946642
  15.4502285  73.9594936  49.8011541  16.2819815  74.3289089  49.5045853
  14.9020684  74.7219658  49.9865913  22.5392270  91.5882015  70.6916142
  23.1470752  92.3169899  70.5665970  23.1029105  90.8229637  70.8052015
  13.2357346  50.5226178  83.4469288  13.0213152  49.7849698  82.8758591
  13.5461985  50.1166196  84.2562538  25.5535865  89.0664768  57.8590727
  26.0335374  89.8933220  57.8121376  26.2264085  88.4086132  58.0344486
  31.5957236  87.9238224  22.9616141  30.8196449  88.4666634  22.8228498
  32.2873402  88.3639431  22.4674535 110.6618096  78.0670214  17.6427972
 109.9668564  78.3972025  17.0733654 111.3066055  77.6935911  17.0419478
  23.3063269  32.0074558  26.8865967  23.6614060  31.8236017  26.0169148
  23.7478042  32.8113866  27.1605062 102.2494807  64.7500038  42.9972219
 103.1920888  64.9146080  43.0222750 102.1739080  63.7968588  42.9521036
  14.2086124  67.7715826   4.4442371  14.3729031  68.3432198   5.1942176
  13.3093178  67.9707193   4.1837656   4.3886822  56.1070061  13.2075512
   3.7454522  55.6782579  12.6430500   4.1971388  55.7745123  14.0844727
   6.7787403  77.0508337  40.6453180   6.1612141  77.7154541  40.9505558
   6.8492633  76.4360285  41.3755751 116.2731782  63.7395334   0.9835877
 116.9100643  64.1311741   1.5812704 115.4344545  63.8268614   1.4365208
   2.2446556  58.7029648  18.5933304   2.7057159  57.8974819  18.8275361
   2.0299913  58.5952997  17.6667452   7.3232615  49.3394661   6.7190886
   8.1526810  49.6645451   7.0692581   7.5248384  49.0919685   5.8166802
  80.2836909  83.5373783  14.7587371  80.4956450  83.7352848  13.8465190
  80.1870837  84.3945885  15.1735830   6.2164897  61.3995218  35.6851912
   5.4595929  60.8278894  35.8139420   5.8427763  62.2274160  35.3832579
  46.8242073  90.5143494  89.7139901  46.9164723  90.5503673  88.7619287
  46.2187046  89.7893185  89.8686856  73.2155096  72.4504799  87.2494316
  73.8191974  73.1825919  87.1237176  72.5249016  72.8031546  87.8106028
 100.2839472  78.1193590   0.3130824 100.6466605  77.7706289  -0.5012016
 100.9060945  78.7951231   0.5823530 114.8186598  93.7873936   1.2019356
 115.2091736  94.0768719   0.3773548 115.0788092  94.4543552   1.8373182
  27.5045323 105.0456375  81.8126970  28.1193387 104.5408387  81.2803238
  26.9494784 105.4955477  81.1757284 111.8091114  60.1506090  27.0261025
 112.6318040  59.6809959  27.1634841 111.2916132  59.5692253  26.4689493
  88.1616988  58.7433290   7.6287615  88.3102741  59.6449614   7.3437774
  88.2450690  58.2227898   6.8298125  54.7609067  85.5600375  92.3491272
  55.3877532  86.2829298  92.3759800  55.1848137  84.8954791  91.8060821
  82.8213937  21.2565799  92.9082840  82.2778288  20.7272525  92.3246890
  82.2416572  21.4833589  93.6354084  -0.0691536  95.5088234  39.4308972
   0.5830947  94.8671436  39.1497517  -0.1132458  95.4048252  40.3814077
  43.3723703  95.9232706  85.9766298  43.7074736  96.7837376  86.2286925
  42.4935475  96.0977597  85.6397962  10.5019283  72.0953751  35.5782986
  11.0654831  72.1056414  36.3519454  10.7772505  72.8591490  35.0712681
   2.7608895  54.9628210   4.0748239   3.2536548  54.6194935   4.8201704
   2.4906155  55.8390188   4.3495184   5.6664294  66.7967319   2.8060001
   5.2800596  66.1461210   3.3922207   6.6038525  66.6035557   2.8183666
 105.5221488  59.5930386  24.9910235 105.3011181  59.7240734  25.9130907
 105.7440319  60.4675531  24.6712971 114.0425763  47.1817732  25.3181553
 114.5413074  47.7601433  24.7411036 114.4848769  47.2483206  26.1644244
 103.9640571  91.1671895  90.0623178 104.5621397  91.1417097  89.3154031
 104.4363214  91.6639442  90.7304752   8.9008367  73.3655500  14.5229900
   8.7141693  72.4396276  14.3678916   8.6861050  73.7951374  13.6949944
  10.0302291  65.6319094  37.8729177   9.7470576  65.2912569  37.0243883
   9.2799997  65.4903793  38.4502888  67.3671497  12.4295611  94.5477433
  66.9055105  12.2711701  95.3711712  67.4259675  13.3829351  94.4856823
  40.5371855  12.7736331  38.7502837  41.1413873  12.1675063  38.3215833
  40.3959353  13.4670020  38.1056666  85.8155549   1.8987222  87.9836964
  85.2019007   2.5989003  88.2059711  86.6522075   2.1892972  88.3467531
 112.5694872  33.0679936  91.7685750 112.5143910  32.2018666  92.1723231
 112.8829027  32.8986115  90.8801433 102.1394791  31.5978074  20.0752521
 101.5621545  30.8415818  19.9701250 102.3010077  31.9018197  19.1821027
 116.1528780  99.1871876  74.7119289 116.8169190  99.8357720  74.4782287
 116.2918426  98.4689898  74.0945846  42.7187634  68.6696243  14.4239676
  42.7745533  68.2091379  15.2612686  42.2651243  69.4869614  14.6298933
  96.0771813  38.2196474  11.5182853  95.3463091  37.6376152  11.7263675
  95.9206977  38.4861660  10.6123531 101.2834097  28.2650323  67.5325972
 100.4497863  28.7345071  67.5625354 101.7865110  28.6234040  68.2638222
 104.9493267  76.0725451  23.2510495 104.3523075  76.7724705  22.9866552
 105.5971911  76.0318804  22.5475931  57.8007008  44.4443460  86.0902667
  58.5859443  44.7463460  85.6337368  57.1685959  44.2733521  85.3920990
 111.8188741  77.0123243  56.5538740 111.6215899  76.1323118  56.2331057
 112.1808525  77.4685812  55.7942486  10.4105425  94.6661854   9.6224135
  10.4240489  93.8017178  10.0331914   9.5790488  95.0504398   9.9002737
   3.8584131  76.8626881  45.6363821   3.0444178  76.5798330  45.2196836
   3.5773852  77.2899055  46.4455414   5.1727849  57.6081514  38.4320474
   5.7105160  58.1496334  39.0098643   5.7790816  56.9545650  38.0835295
   2.4224837  48.3776093  45.5750942   1.6817008  48.7466049  45.0941467
   2.5236920  47.4950027  45.2187347   2.4561916  98.3598518  34.7400832
   2.1552373  97.7252483  35.3904128   2.0448509  99.1837788  35.0012016
   0.8769286  48.9816236   3.5795686   0.0416329  49.1961575   3.1642517
   1.4941962  49.6181250   3.2189065 113.2387712  65.5072069  10.1528239
 113.2020225  64.8780060  10.8732319 112.9601215  65.0084877   9.3847948
  97.7194359  34.1482639  33.5771394  98.3305409  34.5941162  34.1636515
  98.2713022  33.5692191  33.0514193   4.7182420  72.5254297  30.3366590
   4.9883693  73.3660603  29.9670601   4.4263640  72.7364206  31.2235188
  92.1952810  59.5922756  34.9689674  92.8495707  58.9570808  34.6780038
  91.6241779  59.7124767  34.2102671 115.1923463  68.3251190  25.1033711
 114.5028581  68.2489061  24.4438028 114.7432025  68.6525917  25.8826423
 103.8765635  94.6601486  13.0204332 104.6068039  94.1133118  12.7306902
 104.2561032  95.5331612  13.1205952  13.2445753  78.4321928   4.4128838
  13.4160411  78.8362598   5.2635098  14.0548635  77.9692459   4.1999382
  54.6791233   2.0081855  16.7652035  55.1879276   2.2162867  15.9815943
  53.7846924   2.2696734  16.5464556   8.2017452  65.8981657   2.6000720
   8.8518548  66.5915585   2.4869554   8.6522079  65.1000929   2.3236682
  36.8454814  56.9436312  33.4020853  37.3105097  56.2644005  32.9135895
  36.3426781  56.4636564  34.0601444 115.3110830  81.6988182  33.5342264
 115.0688650  80.9082890  34.0165424 114.5674852  81.8627930  32.9542208
  27.6580501  23.8659215  29.3335462  27.0758939  23.7359285  30.0821638
  28.3495617  23.2147574  29.4519782  22.2483015  63.6840057   5.1317471
  22.5927854  63.2991552   4.3258619  21.4136934  64.0747118   4.8728850
  16.6260600  63.6691666   0.8709843  16.7174292  62.7717018   1.1910485
  16.3196564  63.5718870  -0.0306171  13.0801117  61.1081409  45.9601784
  12.9834926  61.3081884  46.8912411  12.2090483  61.2557745  45.5918312
  58.7280798  83.8319016  15.1532948  59.5026350  83.5445976  15.6367743
  59.0178728  83.8779068  14.2421770  72.0191199  18.3264823  93.7832488
  72.0245064  17.7935596  94.5783567  72.9441137  18.4851832  93.5950117
  81.4334444  43.0806870  92.1288427  82.3514212  43.2739968  91.9386357
  81.3561497  42.1353097  92.0002982  16.6479754  62.7205944  47.0860529
  17.3687696  62.7210712  47.7158833  16.3204765  63.6199665  47.0961618
   7.6925302  75.9601831  15.3590095   8.2314134  75.5818796  16.0537922
   8.2898903  76.0544682  14.6170509  98.7503078  29.0472651  11.2936282
  99.3390658  28.3462501  11.5732265  98.3128442  29.3275404  12.0975578
  91.1467232  88.6126232  29.5967674  91.9676675  89.0993118  29.5231843
  91.0871591  88.3822060  30.5239105 103.4893169  48.1263685  11.1047506
 102.8956403  48.3452320  11.8229985 103.5641911  48.9365673  10.6005645
  15.9250033  49.3992376  20.9426284  16.3877356  50.0161839  21.5096307
  16.1783779  49.6531916  20.0551915  95.3844657  51.1395788  13.9369226
  96.3143768  50.9129000  13.9475656  95.1468124  51.2194061  14.8607087
 109.5607640  56.6518974  14.9326587 110.2881434  56.6481543  14.3104553
 109.9082490  56.2145710  15.7099807  48.9601552  98.9619202  92.5944769
  48.5545492  98.4993691  93.3277973  49.8676014  99.0956778  92.8681269
  22.1363831  79.0219307  20.6490922  22.7920461  78.4479713  20.2529740
  21.3283110  78.8253450  20.1751685 111.7149665  88.2383537  26.7473269
 111.6286068  87.6288414  26.0143375 112.5523024  88.0102348  27.1511364
 111.9056731  59.2150593   1.0760725 111.7452811  58.8709259   0.1973925
 112.8589269  59.2152739   1.1628990  25.8128452  48.3249474  51.1043787
  26.7535019  48.1477737  51.1020136  25.4222488  47.5400591  51.4885807
  80.8269153  26.2097306  88.6378896  81.1586789  25.6283994  89.3221527
  80.8017827  25.6643338  87.8516704   5.8941036  51.3254547  12.9742527
   5.2503353  52.0072937  12.7821827   6.7171210  51.7996359  13.0926752
  93.9335050  64.0509224   5.3614461  92.9946603  64.1381884   5.5263376
  94.1907444  64.8944664   4.9892917  33.6111951  28.8740349  20.3723383
  33.1077933  28.4337425  19.6875310  33.0061626  28.9370084  21.1113930
 112.7421152  60.9192181   3.6477679 113.3288904  60.9168339   2.8915134
 111.8898811  61.1664820   3.2888940   4.5253414  42.3424482  11.0302806
   4.3886825  42.3100662  10.0834405   3.7910274  41.8486977  11.3952851
  59.3126679  23.9262290  91.8158722  58.9443017  23.0654807  91.6167605
  58.7292660  24.2879338  92.4829885 100.8274295 102.8480148  36.8559051
  99.9380412 102.5543880  36.6584134 101.3892307 102.1417999  36.5367413
 103.2242443  59.3550396   8.8688260 103.4978749  59.7161102   8.0256265
 102.3084690  59.1090250   8.7381911  31.4387417  64.5832634  18.1907463
  31.6120148  63.7570095  18.6418629  32.2478461  64.7705746  17.7148318
  19.4649661  61.1926603   4.6454838  19.1843057  61.9970608   4.2091373
  19.1054821  61.2619781   5.5299032   5.1413143  83.4672737  29.3840289
   5.4945296  82.9505825  28.6598063   4.2558262  83.1268692  29.5115805
  43.7454475  43.8445044  55.6559706  44.4761802  43.7287951  56.2633181
  44.1590519  44.0825988  54.8262262  89.0696693  30.2237458  84.1226584
  89.2392362  31.0755582  84.5250124  88.1594230  30.2736611  83.8307851
   2.8679308  45.5151606  21.0686445   3.3526385  46.2858248  21.3642263
   2.3991309  45.8117151  20.2885723  10.0847971  54.6618748   8.7392259
  11.0282898  54.6036434   8.8897663   9.7823465  55.3190041   9.3660760
  91.7285157  44.0526624  93.8367788  92.4331845  43.4935899  94.1640641
  92.1729017  44.8424859  93.5286796 106.4973863  88.3075905  29.1520643
 105.9214213  88.6107159  28.4502006 106.9855907  89.0878010  29.4150424
  25.7703280  87.3679352   1.8259948  25.2888989  87.7206612   1.0776377
  25.3237319  86.5469170   2.0326731  25.6290436 102.5415707   0.1913497
  24.7917962 102.7254963  -0.2345884  25.5407405 101.6455460   0.5162605
 107.8061517  96.1699772  29.8096490 108.0663582  96.2230492  30.7292747
 107.1152486  95.5076790  29.7940612 104.4457174  34.9996324  80.9210413
 105.3353525  34.7104974  80.7181150 103.9126826  34.6554799  80.2043396
  37.5012827  74.4671345  11.5959358  37.2122002  74.6928835  12.4800730
  38.2389784  73.8720512  11.7297769  13.4066725  81.5969944  20.1248217
  12.7468359  81.9123173  19.5072293  13.9576983  82.3604870  20.2971315
 111.4463755  82.3887920  23.3700037 111.4892544  82.2632408  24.3179631
 111.4841910  81.5030289  23.0091262   6.7585528  84.5834160   8.9012480
   5.8254683  84.3771267   8.8461840   6.8543416  85.3946877   8.4023571
   2.7627373  90.0623894  19.6905828   2.2506160  89.3906975  19.2402649
   3.6706463  89.7737694  19.5976925  87.1917171  14.9403424  79.9509996
  86.9659425  15.7608266  80.3892463  86.9533486  14.2593474  80.5800181
  18.8097513  56.0407448  23.1942153  18.9293838  56.8976641  22.7848125
  18.6783636  56.2349319  24.1222572 108.0683168  76.0885525  16.9186902
 108.0559798  75.1586342  17.1452439 108.8891651  76.4141798  17.2880232
  22.3840261  57.6393747   9.2620593  22.8828931  56.8317938   9.3852311
  21.8346477  57.4672604   8.4973419   2.0103346  76.3122845  11.0413826
   2.8659731  76.6538906  11.3010406   1.5965354  76.0520697  11.8643582
  74.5443250  17.8658576  84.0623766  73.7066347  17.4836488  84.3239552
  75.0729192  17.8532453  84.8602861   4.8321036  57.2727013   7.9292256
   5.0093019  57.0840645   7.0076776   5.0123256  58.2082748   8.0211532
   5.4758388  66.0706139  20.5454779   6.2809366  66.1616135  20.0358033
   4.7731611  66.1732769  19.9036562  12.6550233  73.4645605   9.7928560
  12.5257313  73.9429903  10.6117713  11.8493223  72.9601574   9.6803778
  34.4449258  81.0033607   9.7381407  34.2602587  81.8309498  10.1822305
  33.6194682  80.5204391   9.7785997 109.9584766  66.2668800  46.6359997
 110.7999589  65.8121490  46.6728687 109.3067624  65.5733776  46.7387104
  99.2703011 102.1054745  23.9905143  98.5695233 101.5271759  23.6893320
  98.8147404 102.8367710  24.4075203 116.3274570  81.8655205  14.1148543
 115.5230306  82.1537304  14.5462012 116.9792007  82.5223255  14.3599367
 111.2530132  69.3927908  24.4445229 110.9494998  69.1942978  25.3303623
 110.8439608  70.2320957  24.2336273 115.1442993  79.0653133  78.3763361
 115.1567738  78.1215572  78.2169580 114.2473916  79.2492294  78.6555529
 115.6932929  89.6548653  22.2883463 114.9702053  89.3085480  22.8112626
 115.4705012  90.5756855  22.1516871   1.6705059  88.6277866  48.2586336
   1.6955855  88.1392193  49.0813732   2.5667310  88.9420700  48.1392860
 102.2209730  41.8348980  18.2447290 101.6810646  42.6233387  18.1891131
 101.8419208  41.3355780  18.9680743   0.6020343  61.3119936  12.1577442
   1.2543267  62.0095730  12.0934832   1.1155907  60.5043316  12.1708179
   5.0385791 104.8203945  35.0176978   4.9683768 105.6246090  34.5033622
   5.2768385 105.1177120  35.8958030  97.7795292  15.3992648  83.6200291
  98.0334617  15.7832284  84.4592684  98.5866285  15.3931136  83.1054586
  -0.1230227  89.0502834  60.3944826   0.5870188  88.4374619  60.2033806
   0.2783443  89.7148228  60.9544230  88.4112085  13.1091166  37.8214836
  88.7051071  12.7928305  38.6757779  89.0776933  13.7439967  37.5588822
   9.5089537  92.7028084  17.5273812   9.8348796  93.5945606  17.4057782
   9.0613884  92.7246380  18.3732188 114.0271436  97.3404598  12.8708613
 114.6472441  96.6277504  12.7167320 113.4217461  97.2954464  12.1307945
  45.4537249  44.6369600  37.3797822  45.2700520  45.1603127  38.1599092
  44.7868919  44.9064016  36.7481470   9.9356908  84.6834278  48.7464571
  10.4568470  83.8843250  48.6686230  10.2509594  85.2449131  48.0382442
  22.5039220  61.4284134  32.2169518  22.0157933  60.6259155  32.4012208
  22.0538592  62.1042442  32.7238369 110.7979656  11.4785190  91.7861727
 111.0985995  10.5719895  91.8498480 111.6022349  11.9937320  91.7234182
 100.5567898  79.8831654  19.3662167 100.0774648  80.6951237  19.5311558
 100.9044888  79.9860191  18.4803510  22.7677488  76.8234921  18.7435341
  22.5561357  77.3903131  18.0018032  22.1102929  76.1286497  18.7092030
  25.8543730  38.5658073  11.8126118  26.2419391  38.4703112  10.9426093
  25.8432150  37.6773667  12.1686769  83.1437292  64.3703699  15.0012267
  83.3787503  63.5075855  14.6597672  83.6477675  64.4530058  15.8107626
  90.9259834  73.4236288   8.1315976  90.0337805  73.7703037   8.1267989
  91.2238588  73.5164070   7.2266698  99.5571007  48.4699821  23.0944681
  98.8928451  49.1552305  23.1681609 100.3319766  48.9224005  22.7611279
  61.2308753  78.7947888  84.4647103  62.0476116  79.1306348  84.8340040
  61.0995365  79.3081040  83.6675375   6.8547368  67.3097086   8.2289368
   6.6293591  68.0535030   8.7876898   6.0253203  66.8512392   8.0943781
   1.1101647  83.6630058   5.0093699   1.8692678  83.0934143   4.8846188
   0.5810101  83.5326385   4.2224562  19.7371507  87.8992653   7.4833196
  19.6119487  88.5862732   6.8286639  20.6531143  87.6391602   7.3853874
  31.9813514 104.3091583   4.2621684  31.1898518 104.8156643   4.0799153
  32.1613836 103.8439083   3.4452471  36.6969204  80.1641846   8.2269675
  36.4084959  79.3633413   8.6647880  36.3774753  80.8716774   8.7870049
 112.1597516  64.1519833  24.6524620 112.9254373  64.0374279  25.2153420
 112.2707098  65.0230742  24.2715073  91.3339604  28.2601781  93.5610759
  91.9737268  27.9757733  94.2137980  91.2932862  27.5374360  92.9347953
   2.8736719  87.3986435   9.1525197   2.2156236  87.4284935   8.4580326
   2.8027359  86.5142822   9.5118362 103.3590057  78.7268877   2.0735331
 103.0804457  78.7171459   2.9892519 104.0583708  79.3797112   2.0428623
   7.2356332  46.8018962  14.5871508   7.0793189  45.9185839  14.9211526
   8.0325593  47.0889712  15.0329375  62.6183034  22.5825639  87.3541039
  62.4302948  21.7708726  87.8253209  62.6667131  23.2507176  88.0378127
  28.6747956  97.1334553   5.5451900  27.7405715  97.1490669   5.7530683
  29.1078091  97.3437500   6.3725400 111.8579872  85.5536366  33.9799428
 111.8797710  85.2188778  33.0834556 112.7789148  85.6594372  34.2185473
  39.5429325  95.0631428  35.8546352  39.0253830  95.5962467  36.4581037
  38.8928699  94.5910454  35.3342676  31.2258244  73.0247498   1.0466901
  31.8456483  73.3533573   0.3954855  30.6512356  72.4375248   0.5555235
   1.3073723 100.1904869   4.3429223   1.7332822 100.9419346   3.9304113
   2.0270973  99.6007538   4.5675147  11.6480576  12.3708577  73.0762249
  12.5045906  12.7969403  73.0441147  11.8466364  11.4431901  73.2036072
   4.0498382  86.8629742  19.6206379   3.4029758  87.1923161  18.9966714
   4.6774858  87.5794125  19.7155356  95.5241335  22.7477307  94.7637889
  96.0941065  22.6716180  93.9985633  96.0486926  22.4063869  95.4880517
   1.2184133  67.7230549   5.3203189   1.9042973  67.6764488   5.9863687
   0.6586131  66.9676256   5.4997158  37.2902088   0.4688597  10.7422638
  37.8384249   1.2486697  10.8293617  37.8964375  -0.2212571  10.4730833
 111.8608402  90.7611465  27.9016685 112.2451084  91.3245487  27.2299957
 112.0138439  89.8712349  27.5840640   9.0796185  66.8293810   6.5842885
   8.6238366  66.1562443   6.0789311   8.3842528  67.2835875   7.0600975
 115.3785357  38.7994313   2.6617962 116.2152601  38.4165549   2.9254803
 115.5032443  39.0381718   1.7432740   5.6281124  25.2149339  78.0789953
   5.9991776  26.0304685  78.4158069   5.3104388  25.4395433  77.2044319
  37.0051738   4.5527507  10.1939523  37.0199671   4.6920729   9.2470604
  36.1595656   4.1367579  10.3616536   6.5619344  71.4030552  17.5030005
   6.7320544  72.2822094  17.8412068   6.6875249  70.8276892  18.2575941
  71.2617351  30.3247685  89.9440241  70.4638190  30.0774331  90.4113459
  71.9732983  30.0300546  90.5124038   6.9481337  98.9224720   4.1209969
   5.9949619  98.8548756   4.1769069   7.2527701  98.7562847   5.0130790
 100.5167415  87.9600620  80.5802631 101.1459555  87.2998333  80.8708286
 100.7325174  88.1077003  79.6594667   2.6813856  76.2225389  39.6080017
   1.9983390  76.2345362  38.9375281   2.2555144  76.5735674  40.3900766
 103.4760775  50.7483673  40.7762575 103.2683982  50.5513716  41.6896534
 102.7352788  50.3983593  40.2813387  83.4076715  50.2254243  93.8121128
  83.1152941  49.8993535  92.9609811  84.1499651  50.7944341  93.6084941
  29.0455794  90.1574612  55.0156784  29.4753170  89.5982456  55.6628561
  29.7477150  90.7105064  54.6730804  18.4201539  81.1208725  31.2438989
  18.9056695  80.3232098  31.0335422  19.0852404  81.8091011  31.2591124
 115.9185267  87.4404621  17.5973547 115.6597155  88.3583641  17.5155044
 115.4401468  86.9935417  16.8990362  23.8264966  46.4097071   9.1793287
  23.3374333  47.1856546   8.9055407  23.9654088  46.5331173  10.1183200
  70.8366979  21.5612741  91.1647445  70.0716073  21.1370416  90.7762891
  70.9392483  22.3724599  90.6670591  24.0125704  54.7547245  12.6923394
  23.2380033  55.3157568  12.7313542  23.8761854  54.1095448  13.3861470
  14.0983140  87.2298241  35.3049684  13.6418581  86.4678669  34.9481678
  15.0001252  87.1338558  34.9987674  88.7962116  18.5401816  84.7300905
  89.2126180  18.5207219  85.5917507  88.7315703  19.4709582  84.5162815
   5.6707114  82.6636505  40.9308815   6.5234703  82.9534435  41.2550020
   5.4909170  83.2359123  40.1849413  17.5374794  99.4167328  31.4653087
  17.6342118  98.9408302  32.2901678  17.8780651  98.8171005  30.8014727
 107.0925184  58.9916515   7.6632720 107.4853464  59.3583202   6.8711412
 106.1898448  58.7940168   7.4135655 107.1286941   3.7407727  91.7926320
 107.7422715   3.4460063  92.4655869 106.6806913   4.4885821  92.1879843
 108.1075956  92.8719330  52.4252653 107.2784140  92.4468803  52.6443958
 107.9090615  93.3999062  51.6519213 107.8957768  96.1502838  18.8813901
 107.6152357  96.9545746  19.3180072 108.7471588  95.9508324  19.2707503
  28.7958860  85.2268887  33.1244802  28.6467171  84.2896938  33.2495713
  27.9198980  85.5958939  33.0117106   1.2761295 107.6236248  33.6298394
   0.9969751 108.5132790  33.4134579   0.4687000 107.1725655  33.8764811
  19.6705723 106.6062069  18.3538806  19.2010808 106.6359043  19.1875041
  19.7789228 105.6724930  18.1731498  85.9832127   8.0943484  87.1547693
  86.7072422   7.9339261  87.7599793  85.2376653   8.2942052  87.7208513
  14.1265392  89.1627693  73.8208628  13.7377810  88.3732128  74.1972828
  14.9514520  88.8643742  73.4378386 103.0748298  68.6353922  42.8243446
 103.6677017  68.0897188  42.3076534 103.3904554  68.5469055  43.7236691
  24.5110440  94.7747803   9.8238957  24.0282249  94.2414284   9.1925061
  25.3594017  94.3391895   9.9062300   7.2073364  71.3653421  23.3393312
   7.6998293  70.6068707  23.0256343   6.3093728  71.2044048  23.0495167
 115.7797559  99.6731091   9.4912952 115.6212746 100.3308105  10.1684570
 115.7022506  98.8355255   9.9481064  15.4827702  77.5103807   3.4741792
  15.9670782  78.3321714   3.3945546  15.4970753  77.1375656   2.5926840
  41.6807222  93.6528015  23.7630701  42.2149229  94.1096878  24.4127822
  41.9601011  92.7392387  23.8229179  12.0592570 102.8421974  36.5455723
  12.6819551 102.8491211  35.8186412  12.5994742 102.9724598  37.3249507
  30.7549381  76.8836212  19.7337663  31.0168386  77.6245451  19.1872621
  31.4048100  76.2062788  19.5464015  28.6524439  63.9490223  23.9067316
  27.8525591  63.8143349  24.4149423  29.0982723  64.6715450  24.3488026
  17.2498214 106.1433792  -0.0114990  17.8024518 105.7815742   0.6812719
  17.8590012 106.6065216  -0.5865045  16.9962668  17.0666158   3.6428237
  17.6945817  16.8331122   4.2544314  17.4009562  16.9945109   2.7783826
  99.2370106  78.2334180  94.1856506  99.8074699  78.0366750  94.9286859
  98.8397170  79.0761323  94.4052574  21.0291409  45.1408720   8.7339908
  21.0172582  46.0695744   8.9655119  21.1736345  44.6886539   9.5651644
  93.8413824  -0.0114016  89.3772506  93.9797462   0.7313008  88.7894720
  92.8987623  -0.1736884  89.3403423  92.3529710  77.5161839  13.3608997
  92.0000972  77.5983524  12.4749196  93.1629719  78.0259418  13.3443308
   1.7019199  79.9280596  42.0117760   1.4581850  79.3993664  41.2519646
   2.1488649  80.6888580  41.6407537  22.4795008  65.4079199  10.6165552
  21.5378237  65.4340887  10.4468679  22.5547957  65.0254869  11.4908028
   6.5959679  19.8305697  87.6458436   5.6639611  19.6177716  87.6939273
   6.9760166  19.4187589  88.4218603 107.2874143  52.2220945  15.3379810
 108.1672587  51.8823242  15.5012691 106.7323436  51.7621088  15.9676957
  14.0540338  64.6326971  12.3972297  13.4922373  64.0272999  12.8810799
  14.6932268  64.9341917  13.0428028  46.3211870  89.2688560   8.1694245
  46.9196558  89.9034595   7.7752817  46.4826059  89.3397045   9.1102529
  37.1772528 106.2245369  16.3979506  36.7621088 106.8827057  16.9553554
  36.6040134 106.1616516  15.6339645 115.6554439  65.1250887  38.6185503
 116.3930882  65.5537319  39.0525746 115.5507076  65.6033230  37.7960229
  91.9775476  74.2933559  12.7000034  91.2075653  74.8109102  12.9355776
  92.0758071  74.4257498  11.7571092  16.4526975  65.3548956   3.1477261
  15.5050087  65.2243423   3.1149366  16.7763066  64.9659395   2.3351836
   3.2458925  67.9904175  16.2768543   2.3052466  68.1471634  16.3596094
   3.6321321  68.8654327  16.2394071 106.8091401  69.1615009   3.0641302
 106.0531451  68.7009287   3.4282401 106.5085234  70.0631857   2.9508862
  35.6290889  89.3737793   8.1850356  34.9871254  89.9986553   7.8479218
  35.6686592  88.6879444   7.5184822   5.9281331 100.7307053  44.6915340
   6.2298286 100.7817459  43.7845564   6.5404820 101.2817287  45.1790094
  18.4892595  66.7779970  22.9951286  18.6763716  67.5383043  23.5457206
  18.9519024  66.9556379  22.1762061  26.6854787  97.4497414   8.4649950
  27.2185540  98.2237720   8.2834911  26.6466761  97.4042988   9.4203275
  73.9595020  93.9196414  88.6715919  73.5174095  93.4223933  89.3597281
  74.3954670  93.2550210  88.1382584   1.7152768  71.3656235   0.3852312
   2.4453166  70.8080053   0.1162811   1.1871499  71.4672470  -0.4065933
  29.7816110 104.8858643  30.6948924  30.3053284 105.1098442  29.9256182
  28.8986588 104.7483826  30.3517771  56.5090693  17.3880816  51.1441135
  56.9573475  17.4738646  50.3027344  56.9490160  18.0177928  51.7152023
  60.5059947  22.8471518  68.8904333  60.1543082  21.9663954  68.7607622
  59.7569693  23.3624602  69.1898584  11.1777008 106.9451237  24.5769811
  10.7156241 107.7238083  24.2665625  10.9890521 106.2763309  23.9186788
 105.3308227  88.7065411  14.4656014 104.9447837  87.9754448  14.9480021
 106.2117722  88.4068775  14.2411840 102.0986224  32.8455110  80.8797258
 101.1657144  32.7224393  80.7043201 102.1275927  33.2592340  81.7424089
  11.6052079  67.5132942  36.5649557  11.1511505  66.8782711  37.1188593
  11.5776920  67.1294975  35.6885004  20.5336558  30.6777234  93.1131299
  20.8993422  30.1117749  92.4332747  19.7890459  30.1858373  93.4593051
  93.6057676  34.1051150  12.3748922  94.2815651  33.6846209  11.8431783
  93.0338300  33.3873416  12.6467764  35.9711027  80.7713413  28.2586932
  35.9831190  81.7274475  28.2145357  36.8574667  80.5089378  28.0102229
 110.4041429  95.4854679  50.1850510 110.4894026  96.1374283  50.8806896
 110.9157582  94.7376442  50.4936504 100.1858951  14.8782201  91.9537401
 100.1365472  15.7765861  91.6270375 100.7118298  14.4148583  91.3018834
   7.9737657  92.5452328  19.7498655   7.8243339  91.9345188  20.4716182
   7.1252149  92.6105022  19.3117642  21.2368035  86.1987209  15.0907207
  20.3365850  85.8914280  14.9839044  21.7023396  85.8443356  14.3331480
  46.0620642  70.9596491   9.0110499  45.4658842  70.5093956   8.4126550
  46.3057423  71.7612934   8.5482144 116.4002985 109.1836739  39.0684485
 116.6609567 110.0575256  38.7774611 116.1278386 108.7358856  38.2675242
  36.9111991  96.1357212  41.5003824  37.2439861  95.9723186  42.3828697
  36.5783381  97.0326138  41.5321827  96.9149328  56.5244432  87.1072346
  97.4495233  55.7763715  87.3733681  96.2185491  56.1430593  86.5726048
  61.0489858   7.8743792  33.8191390  60.1098407   7.7046157  33.8927484
  61.1498703   8.7857962  34.0937018   8.4541637  81.1164665  50.4555655
   7.5144970  80.9550095  50.3707695   8.5188371  82.0468235  50.6711388
  54.4325352  97.8072548  25.6082082  53.6820030  97.7383709  26.1982846
  54.6435785  98.7408257  25.5970931  10.8344817 104.7494602  22.3587132
  10.6846166 105.3746986  21.6496015  11.0595584 103.9322948  21.9139385
  90.6172527  34.6752210  91.7559653  89.8034097  34.8742051  91.2930453
  90.9627760  33.9013047  91.3110953  25.7003617  77.3105097  10.1719666
  24.9579406  77.1814442  10.7622087  25.9057546  76.4328051   9.8499715
  27.8722225  13.7874360  89.3182450  28.7477814  13.4418435  89.1444707
  27.9038369  14.0715737  90.2317542  18.9674628  92.2369289   5.7790875
  18.9590693  92.5450134   4.8728600  18.0901515  92.4341106   6.1072296
 113.8452323  81.0923576   9.2388386 114.1872563  80.9428501  10.1202571
 113.9890451  82.0254707   9.0812063  84.5549549  33.7802358  93.1776766
  85.4697884  33.5018296  93.2201139  84.5789618  34.7142835  93.3855507
  59.8524798   5.4885627  15.1155281  59.0778626   5.3667594  15.6644940
  60.5492366   5.7154227  15.7314003 115.3378232  90.0463009  28.6843920
 114.6247641  89.4207478  28.5561180 114.9449596  90.8989334  28.4975171
  33.8063025  91.0950470   7.3959762  34.3991375  91.8441582   7.4559790
  33.0257654  91.4413452   6.9634604 113.3618968 105.4893208  12.5838089
 113.9711161 105.7613754  11.8974638 113.9115872 105.3693199  13.3581936
   2.2727795  78.6394739  23.7886858   2.0343475  78.0983353  24.5413852
   2.0606008  79.5328188  24.0591383   6.5061206  87.7273941  30.0934219
   6.4434969  86.7962170  30.3060675   6.9046581  88.1237316  30.8682227
  35.3315067  89.7240448  40.0752783  35.8148742  89.8195839  40.8959246
  36.0103965  89.6341515  39.4065046  54.6160746  96.8953133  18.9207006
  55.0647497  97.1050549  18.1015992  55.2973890  96.9587612  19.5900428
 103.3704950  75.3876305   6.0355443 104.0637447  75.0368881   5.4764223
 103.8354804  75.7982588   6.7645204  37.5751472  91.8912601  18.9023447
  37.9662418  91.7254639  18.0445635  38.1502628  92.5411510  19.3062186
  52.9706265   2.5884009   9.9363941  52.7229608   1.7173148  10.2463937
  52.1380092   3.0435324   9.8105460   9.2707955  39.3245835  75.3869623
   9.2348944  39.8919530  74.6168786   8.3911930  38.9526410  75.4516405
  29.0485191  83.7967873  20.9410763  28.8759303  83.3812523  20.0962234
  29.8375249  84.3185711  20.7946253  10.1677930  95.7698536  19.8968923
   9.8130673  95.3265858  20.6675506  11.0903728  95.9143162  20.1071501
  28.7260532  89.7878551  41.6041040  27.7917433  89.9902439  41.6524124
  28.8296747  89.3329239  40.7683277   7.9174948  73.3206367  28.3658791
   7.9661930  73.6362076  27.4635077   7.5797808  74.0660524  28.8624001
  64.8963165  84.0991879  10.8690143  65.5905342  83.5236454  10.5479980
  64.4247675  84.3684196  10.0807333  50.6466306   6.2048102  15.5108309
  49.9550153   5.5592395  15.6562114  50.3685142   6.9709254  16.0127795
  24.3981719  86.1124802   9.6596819  25.1066208  85.7869148  10.2149630
  23.9425421  85.3236961   9.3656480  36.0683584 102.0388412  34.2051530
  35.1774788 102.0556736  34.5548439  36.0780334 102.7280712  33.5410023
  81.5736355  19.3292475  16.7185044  80.7142414  19.0600634  16.3941360
  81.3815845  19.9769068  17.3966455  94.3243564   8.6807681  36.5233445
  93.9500822   7.8854895  36.1442995  94.0759481   8.6456824  37.4470830
   2.7586788  60.3480101  20.6172776   2.7384165  59.7531223  19.8676562
   1.9856593  60.1129675  21.1305308  99.9796534  27.3566766  93.6977984
 100.6922055  27.6537747  93.1319068  99.1976834  27.4148221  93.1488225
  30.3088331  89.5541191  27.4122286  29.9643540  88.7023258  27.1438646
  30.4994869  89.4523811  28.3447146  19.9817157  82.8847218  42.9098368
  19.7209859  83.4895229  43.6044407  19.1640246  82.4714375  42.6326942
   0.3208589  83.5116673  51.9492292  -0.3807509  83.6503887  52.5854158
   1.0981321  83.8852024  52.3646212  46.9819708  20.5370284  21.3854575
  46.4274837  20.8247138  22.1107244  47.6063265  19.9324084  21.7865157
   3.0193781  41.5417624  14.9315357   3.0817961  40.7422782  15.4541755
   3.4390711  42.2130252  15.4695880  11.3262402  31.7555757  86.5350514
  11.9882523  31.5352864  87.1903741  10.5713497  32.0476575  87.0459884
  26.4767098  87.7832603  42.1800518  26.6783810  87.9154491  43.1063843
  27.2758532  87.4058247  41.8124390 109.8259576  81.3141155  28.7209153
 110.1984080  80.4548073  28.5231805 109.5532264  81.2520599  29.6363378
  42.6456594 106.3412285  20.4036808  42.7076864 106.2001514  21.3483930
  43.2388592 107.0723915  20.2312398  41.9045353  87.1797371  24.7458529
  42.3341227  87.3601818  23.9097142  41.3882351  87.9657269  24.9244070
  27.6652551 104.3289661  16.3808000  28.4967923 104.6302605  16.0147333
  27.1893001 105.1332188  16.5878618   5.7663345  93.1854916   4.3543255
   5.3452873  93.4610081   3.5400516   6.2296629  93.9652634   4.6601403
  95.1283325  29.9574609  92.7046981  95.7460226  30.0729508  93.4267464
  95.4044414  29.1447873  92.2809651  15.4689527  68.9248133  21.5319610
  14.5895648  69.0661383  21.8825817  15.3231514  68.5455799  20.6652689
  64.4192423   5.5003596  42.0645189  64.1881455   5.6335211  42.9838085
  64.8626317   6.3093997  41.8094015  76.2893248  12.7103992  75.8285302
  76.1475421  12.6006408  74.8882729  75.8395488  11.9653935  76.2271505
   9.3354355  69.7274060  91.4206373   8.6554133  70.3812547  91.5827614
  10.1497685  70.1600499  91.6773933  97.1441509  85.7071781  10.4130089
  96.3939108  85.1243782  10.5301285  97.9067196  85.1507282  10.5713761
 100.0850035  15.8390565  88.9246243  99.2906166  16.1357350  89.3686557
 100.4191042  16.6203685  88.4839904  45.8545525   4.6319247  23.9451122
  46.2304027   4.6031714  23.0652595  45.4133989   5.4802466  23.9895058
  76.1985601   5.5235434  10.5804992  76.3996352   4.6143580  10.8022857
  76.6675032   5.6794406   9.7607315  90.0419761  61.9162412  73.5552150
  89.7180606  62.8157468  73.6022311  90.1691450  61.6594262  74.4685060
  67.0102180  14.7174216  14.8282766  67.4081911  15.5131102  14.4750965
  67.4707950  14.5652056  15.6534612  83.4671820  29.2640538  83.0007952
  83.3218218  28.5988755  82.3280090  84.4160587  29.3894620  83.0125612
  14.2616916  60.3354359  48.6296368  13.8338947  59.4983959  48.8101625
  13.5733163  60.9884167  48.7560701   3.6060971  78.5084963  21.4371037
   3.2041010  78.4774303  22.3052430   2.8833812  78.3405924  20.8323550
  41.1443806 106.5707779  33.9194894  41.0999060 106.1137390  33.0796242
  40.6686974 107.3883533  33.7727475  78.7717141  19.4102050   4.2293942
  78.3966697  18.8843775   4.9358553  78.3376683  20.2598143   4.3068165
  30.6686640 109.4728279  35.7165599  30.1365280 110.1028156  35.2305818
  31.0160470 108.8849163  35.0458026  78.3054219  39.7011895  95.0104534
  78.5628195  40.0875993  94.1733953  78.3082682  38.7575955  94.8496308
 113.8937651  77.6793385   2.2557364 113.8123932  78.4794188   1.7366204
 113.6595734  77.9458046   3.1447706  86.9173492  13.6506892  12.2717261
  87.0285762  13.1956053  13.1064475  86.2334169  14.2985202  12.4413955
  17.5840330  70.9426165  31.5964365  17.4893057  70.0260162  31.8554854
  18.1915843  70.9209967  30.8570838 116.7438521  76.7632055  38.0282855
 116.8450271  77.0336437  37.1156740 115.8126147  76.8858862  38.2126141
  63.9734329   8.5653449  18.7680268  64.1305746   8.5146857  19.7108793
  64.1977609   9.4664717  18.5359061  53.9320850  88.4416866  26.8570352
  53.4744549  87.7320099  26.4062905  53.6369658  89.2368412  26.4133477
  21.3220263  88.1290817  33.2176733  22.1599770  87.7643299  32.9330254
  21.5272880  88.5979366  34.0265417  59.4623375  97.0601463  19.8846257
  60.2595854  96.8278599  20.3607273  59.6392965  96.8009949  18.9803243
  25.0947404  44.1032982  11.6368508  25.6779766  44.2782021  10.8982873
  24.4745874  44.8324060  11.6301990   5.3459471  70.3141308  35.4110527
   5.1379251  71.2006140  35.7061768   5.9241796  69.9653482  36.0894561
  25.1444077  82.4629307  43.4927893  24.9381161  83.2992840  43.9101505
  25.1085210  81.8245029  44.2050838  27.9670824  18.9553405  55.0223207
  28.8867117  18.7313510  55.1649380  27.9462756  19.3337966  54.1433573
 101.0477305  17.4007173  87.0975888 101.9672156  17.4601169  86.8382656
 100.7195116  18.2967992  87.0231479  37.0738697 103.2559586  10.4746580
  37.0963287 103.1022167   9.5301527  36.8194723 102.4123764  10.8486557
  27.3507452 106.6742611   9.6113515  27.4392796 106.5337753  10.5540383
  26.9958305 107.5598049   9.5334548  29.5169091  76.8963861  10.4615569
  29.2145061  77.2685671   9.6331459  29.8698616  76.0388756  10.2242088
  47.9972978  15.6915904  15.4202867  48.6362196  15.0486041  15.7278371
  47.3897226  15.1861239  14.8802996  78.8233865  18.0959464   7.6220959
  78.2372369  18.7615348   7.2620291  78.2848467  17.3064566   7.6761127
  39.5106530  83.4942055   4.5755711  40.2069235  84.0658665   4.8990420
  39.6580720  83.4481335   3.6309141  85.0565685   2.9845477  10.9001148
  84.7358812   2.0925666  11.0334277  84.6105636   3.5021163  11.5705109
   2.0335615  80.3336334  15.0541294   2.1574502  81.0254860  15.7039237
   1.4956507  80.7379532  14.3733859  42.6131010  87.2871590  30.0596762
  42.1229839  87.8270245  29.4395447  42.0971346  86.4848137  30.1386714
   5.6195754 102.7614307  38.8047385   5.4867697 101.9367981  38.3372188
   4.8382449 102.8564453  39.3494654  94.5324911  14.9053145  39.4802618
  95.0211490  15.4719210  40.0772572  93.7658037  14.6314860  39.9836874
  13.4014142 103.2617188  11.2407947  13.4355092 104.1527081  10.8926618
  12.9322946 102.7614498  10.5730414  17.8031349 109.7882366  42.7380466
  17.1094465 109.2088604  43.0532408  18.4683621 109.1963673  42.3867750
  74.9129331 107.3914332  92.1674743  75.4129660 106.7705006  92.6972306
  74.3690526 106.8415303  91.6035279  16.1861575  88.0602264  26.4747047
  15.9656394  87.2864056  26.9931602  15.3639376  88.3071899  26.0513878
  29.3665051  77.5956059  29.8692226  28.7590265  78.2759380  30.1596475
  28.8034320  76.9056606  29.5182872  17.4159765  72.5001240  45.6815577
  17.7718246  73.1434345  46.2945509  17.3711216  72.9648113  44.8459244
  31.6630255  47.0915360  68.8470703  31.8790613  46.3444848  69.4051796
  32.4491059  47.2312779  68.3190709   6.2200356 103.2615662  25.3694534
   6.5458643 102.4045372  25.0945497   5.6408805 103.5368443  24.6587944
 106.4085128  90.4067421  56.8275738 105.9879973  89.9555779  56.0955572
 105.7538190  91.0368633  57.1285057  76.7037023  26.5120555  28.3970046
  75.9578122  25.9255362  28.2710123  77.0028819  26.3310576  29.2880511
   3.0812797  70.3815651  24.5623970   3.5411200  70.6154919  23.7561345
   2.4146682  69.7534466  24.2843151  10.5307364 103.3621883   5.1656508
  10.6265998 102.9112244   6.0045052  10.1439679 102.7072906   4.5844835
  64.6532859   8.2727290   7.2509944  65.2861298   7.9566527   7.8958482
  64.2657412   9.0485717   7.6560849 107.8709556  38.8536592  91.9597906
 107.1402837  39.4514985  91.8018722 108.1862021  38.6245294  91.0855186
  49.4223155   3.5909892  24.3368483  49.5260419   2.7687598  23.8578820
  49.3486215   3.3263827  25.2537918  14.1244936  85.4874897  10.7542574
  13.8654995  86.3896656  10.5665815  14.2122853  85.0793839   9.8928773
  51.7737532  90.7850838  26.1968923  50.8394670  90.5778599  26.1769438
  52.0271063  90.8378887  25.2753425  11.0134363  69.2816401  23.6884832
  11.1660898  68.6523104  24.3933773  10.8457065  70.1095295  24.1387010
  58.3555794 107.4619675  15.6837332  58.2240534 106.7934227  15.0114393
  58.2772827 106.9878292  16.5115583  27.1305537 107.0408916  16.9806480
  26.4657235 107.6185036  16.6056895  27.7088809 107.6267147  17.4690998
   8.1736517  52.3306274  21.0875225   8.3883113  52.9040527  21.8232775
   8.3957946  51.4520836  21.3958216  25.0230908  82.5209045   5.9555674
  25.1777959  82.9292011   5.1037514  24.8959970  83.2567883   6.5543586
  70.4759438  30.1999803  85.7420885  69.7766543  30.6008954  85.2258646
  71.0563345  29.8036904  85.0922149  21.2794958  41.6806169  78.1424922
  20.7480847  40.8879132  78.0685991  22.1780335  41.3801808  78.0060977
  26.2701917  74.0181923  18.1252444  26.4008856  73.9298916  17.1811295
  26.5185070  74.9223232  18.3178902  95.6895984  52.6132054  90.0272089
  96.2290896  52.2622724  89.3186700  94.8137189  52.6856751  89.6479791
  26.4464736  44.1353893  14.1659522  26.0337138  44.0765190  13.3043289
  26.0587096  43.4177542  14.6668220  24.5774937  88.3058071   4.1206512
  25.1275349  87.8103065   3.5138908  24.0720558  88.8942051   3.5597965
  67.2738923   1.6409064  48.5442877  67.8468622   0.9405471  48.2321262
  67.8645934   2.3734523  48.7194157 115.5676632 102.9028511  35.6440020
 115.8725662 102.1833515  36.1968064 115.8376552 103.6940670  36.1101651
  40.3039217 102.4386501  51.9968653  40.2680302 103.2645416  51.5143204
  40.4909134 102.6965618  52.8994989  10.2313483  63.6297512   5.4759407
  10.5118334  64.0716362   4.6745050   9.3345559  63.9337921   5.6157809
  19.6172035  83.6149216   2.1504067  20.2683282  82.9152393   2.2024795
  19.5654869  83.9607716   3.0414426   4.8659021  80.3572464  38.5269976
   4.0496349  80.8314133  38.3685398   5.2170944  80.7460308  39.3280888
  68.2036174  13.2397319  49.4678783  68.7552799  13.2102919  48.6861897
  67.9664530  12.3263407  49.6281910  60.8303250   1.2796927  14.1164386
  61.4363064   0.7231856  13.6272407  60.6284393   1.9984294  13.5173690
  82.3047079  10.5026007   8.6473858  82.7201523   9.8053599   8.1399471
  81.4647306  10.6478072   8.2119691  70.1513470   5.0290251   7.7546203
  69.2803706   4.6701861   7.9245174  70.4714383   5.2985812   8.6154974
 115.9846224   2.0065928  21.4396811 116.1105360   2.9245043  21.1992288
 115.3618349   2.0325518  22.1661067   5.8470333  99.7881222  27.4562097
   4.9082375  99.8875713  27.6143408   5.9043181  99.4357967  26.5680575
  42.2227049 103.4320259  36.7427945  42.4336815 102.9570103  37.5465894
  41.5307379 102.9132175  36.3326049  93.1331886   4.3843699   8.1760925
  92.6633609   3.5685874   8.3492798  94.0567411   4.1328192   8.1728709
  51.0046126  34.2067385  32.8991413  50.3193761  33.6784411  32.4897623
  51.7681230  34.0881968  32.3341346  34.4435488  61.2966199  71.2824398
  33.5994803  61.7273850  71.1474424  34.2846714  60.3810830  71.0526854
  60.9491814  40.5581713  16.3920856  61.4357938  39.8888446  15.9109998
  60.3770531  40.9562922  15.7360339  55.7262946  15.9736109  43.4618998
  56.2667586  16.4860869  42.8606510  55.3148140  16.6256762  44.0291119
 105.7114913 108.6203003  44.3637371 105.7553424 108.1095791  45.1721096
 105.3683462 108.0086517  43.7123060  63.3124388  29.6186400   9.7166353
  63.0877198  28.8830043   9.1469312  62.4768985  30.0533629   9.8872912
  21.8582773  99.6685791   9.8755383  20.9826493  99.8681545  10.2067149
  21.7139006  99.3838120   8.9731562  44.1544199 100.4576111  25.8271217
  43.4679222 101.0782146  25.5825663  44.5196533 100.8117294  26.6379476
  64.3426991  90.5536461   7.8190100  64.4997740  90.1999092   6.9435513
  65.0272131  91.2121201   7.9376376  26.9284368  98.1424713  31.7446923
  27.6315832  98.2130718  32.3903179  27.2049141  97.4317360  31.1662006
  11.6346586  83.7854481  46.2688112  10.9256208  83.3832169  45.7671022
  11.9729710  84.4736195  45.6959343  91.9494833   5.0714350  11.9484043
  92.6240314   4.4578505  11.6573167  91.9246448   5.7417346  11.2655318
  52.5954260   0.1034499  23.8283896  52.3959268   0.7956839  24.4586635
  53.4475268  -0.2338361  24.1047907 106.2543059  13.7898536  83.7137633
 106.5012146  14.3306727  82.9635769 106.1882735  14.4069476  84.4425076
  10.9050488  97.7833843  29.7160196  10.1354027  98.0432034  30.2223539
  11.0743225  96.8801880  29.9839878  46.1567926  86.3165855   7.3197436
  45.9310007  85.9262371   8.1640613  46.0668087  87.2591782   7.4599379
  65.2441872   2.4124861  71.8425083  64.9917425   3.3351279  71.8075228
  64.4140018   1.9362689  71.8269539  62.1727503   0.5552912  53.0385590
  62.4020780   0.0811530  52.2392893  61.3704265   1.0271598  52.8152752
  63.4230460  27.3083640  35.1722455  63.7520326  26.6331912  34.5788264
  64.0184010  28.0474711  35.0477171  97.0493044  27.7358390   2.8732857
  97.9086317  27.9877616   3.2114008  97.1207012  27.8535891   1.9260427
  25.1097488  94.2075062  44.2803478  24.9901676  95.1383114  44.4688606
  24.3554878  93.7817669  44.6878672  69.0029907 109.5909500  30.6296730
  68.7100744 109.4866657  31.5349674  69.8445272 109.1360474  30.5963182
 103.4679700  56.1972756  68.3911115 103.6223675  56.9272180  67.7914625
 103.6140729  55.4151483  67.8589850  48.2750511  89.6898365  19.4620430
  48.3398008  89.1898537  18.6483765  47.5798559  90.3268051  19.2970824
 114.8100390  87.5712204  31.2661743 115.0888975  86.6570187  31.3182473
 115.3677607  88.0279922  31.8958902  67.6751947  74.3352985   1.7102979
  67.8885221  73.8000965   2.4746805  68.3272505  75.0359964   1.7190002
  91.0316337   3.5106421  32.4518728  91.5346492   2.7263404  32.2326231
  90.8557762   3.4281588  33.3891559  83.0168403  16.9276095  15.2938449
  82.3613609  16.2337352  15.2223468  82.5227083  17.6951075  15.5819690
  30.0692272 102.1497059  29.5254230  29.7251225 101.8925667  30.3808188
  30.1769614 101.3244152  29.0526485 107.3738838  37.7384706  77.2704655
 108.2732392  37.9480023  77.5224286 106.9544078  38.5903115  77.1494537
  85.0904436  46.1184926  90.0160396  85.1936377  45.7766767  89.1279274
  85.2460671  47.0590539  89.9302608  42.2339821 104.6238232  23.4375358
  43.1298923 104.6763706  23.7704206  41.7341089 104.2353535  24.1554856
  39.7597837  87.9400730  28.7495494  39.3571305  87.9491138  29.6178937
  39.8467588  87.0111656  28.5355330  19.2781913 103.5762405  48.8870955
  20.0214410 103.9535809  48.4165382  18.7103307 103.2292271  48.1990862
  37.3838854 109.0973473  33.2348275  38.2252431 109.5303631  33.0904222
  37.6142931 108.1982994  33.4690380 101.3252283  89.9737878  90.3140989
 101.3209368  89.5092149  91.1509886 102.1354795  90.4832501  90.3271249
  94.4316400   2.6625014  15.9755683  93.8769211   1.9255019  15.7199049
  93.9637006   3.0736590  16.7023480  19.6780682  98.1879616  47.7474213
  19.2384601  99.0355206  47.8154087  19.6423614  97.9737186  46.8151855
   1.5708863  69.1390748  80.1556128   2.4146448  69.4333024  80.4987353
   1.7055308  68.2140679  79.9495452  66.4517869  19.2823649   4.2418453
  65.7745184  19.8337794   3.8500723  66.1072982  19.0575648   5.1061493
  14.4041026 104.9956417  58.0521488  13.6605644 104.3987751  57.9676914
  15.1102030 104.5688057  57.5669098  36.0515563  19.5445967  54.0289545
  35.2195163  19.8960067  54.3458986  36.0364757  18.6231471  54.2876673
  30.7258010  91.0679054  50.9071398  31.4043546  90.7533169  50.3097868
  30.6725192  92.0080471  50.7352924 101.5898205  54.9467225  87.0359254
 101.9930578  54.2085977  86.5789759 101.0298992  55.3587670  86.3779467
  17.2892082  96.0218239  44.6991968  17.7670503  95.5707836  45.3952312
  16.5475559  96.4315701  45.1444912  19.4490898  94.0666580  43.7136078
  19.2698693  94.4093704  44.5891953  20.3082967  94.4232082  43.4880781
  94.2913784   6.3839865  15.3527951  94.7636522   7.1187258  15.7443833
  93.3759798   6.5347434  15.5884850  83.6140121   7.2098590  35.4684234
  83.4766592   6.5491152  36.1472344  83.3024896   8.0252219  35.8613133
  12.6966559  24.2706723  82.4409288  12.7719151  24.1720529  83.3900553
  12.9200922  23.4077973  82.0920032  67.3760308   4.5473529  12.2554326
  66.5039648   4.1614581  12.1728158  67.6164807   4.4021655  13.1704926
  80.7956709  30.2500964  21.6988611  81.1627306  31.0836840  21.9931936
  80.8502735  30.2881861  20.7439804  22.6751876 105.3146744  12.6318896
  22.1811652 104.8546600  11.9532478  22.6513982 104.7258472  13.3861732
  43.5132170 108.6443615   9.2583632  43.2273436 109.5387936   9.4441187
  43.0843210 108.1118393   9.9282151  46.2331533  98.2148647   9.6135819
  46.8713093  98.4325314  10.2929974  45.3860426  98.4342861  10.0015128
  66.4055252 105.3549290  24.4108891  66.0083961 104.6404076  24.9088693
  66.3307428 105.0803852  23.4969592  62.6671947  26.0660411  37.4844289
  62.5570191  26.8605471  38.0067873  63.0268921  26.3742305  36.6526437
  51.2963343  97.7254677  24.1138506  51.9051504  97.1933270  23.6015987
  51.5833616  97.6124191  25.0199771  54.1638279 108.5963345  53.8220882
  54.6030235 108.0319691  54.4583511  53.2722664 108.2516670  53.7714720
  68.7354554  32.8161956  35.0214577  69.0441931  33.4599829  34.3839240
  69.1650475  33.0646277  35.8399701  60.1673187  21.3220740  18.9348626
  60.7428206  20.6846762  19.3576658  60.6784142  22.1311999  18.9167297
  80.5144514  11.0577441  46.2501621  80.8151592  11.9664241  46.2604809
  79.7052110  11.0674430  46.7613029  83.2358421   1.5890361  35.3172922
  82.4668373   2.1571398  35.2712274  83.7422146   1.9306803  36.0542417
 107.1382166  37.0960374  94.3633570 107.8444768  37.3373933  94.9626676
 106.8641020  37.9245801  93.9701634  55.1497507  79.0298891  11.6759586
  55.2265167  78.5577488  12.5050676  54.9883080  79.9380922  11.9315708
  48.1956387  83.1639576   0.4889346  48.1915760  84.0382767   0.0993416
  48.9526272  82.7299309   0.0954668  23.9446068  88.6697388  37.0372057
  23.7336659  88.2061100  37.8476310  23.1059885  89.0194130  36.7360806
  54.8909856  25.1213217   6.9294089  55.2918888  25.3522349   6.0914421
  55.5370213  24.5593119   7.3572123  95.5723000  57.3063703  73.9146286
  95.1285101  57.3773904  74.7597533  94.8665417  57.3474259  73.2692987
  83.8446487  16.1650611  11.1296618  84.5218767  16.7382765  11.4888668
  83.0502094  16.4046908  11.6068101  37.8109980 102.0732975  31.3555050
  37.3844552 102.9217911  31.4753222  37.3297358 101.4797592  31.9319868
  43.1093788  91.4132404  15.7458985  43.4363317  90.8376217  15.0545263
  42.5088072  92.0087624  15.2976763  77.6730503  18.5676337  52.6000261
  78.3539237  18.3369017  51.9680405  77.5581278  19.5120002  52.4942017
  84.8585619  32.9722357  23.6721897  85.6522716  33.4559203  23.9008880
  85.1047004  32.4578524  22.9033852  66.4353002   2.8888369  51.7703390
  67.2124542   2.3368407  51.6833591  66.5048779   3.2637835  52.6482964
  85.7163252  37.0671035   5.2187401  85.6938900  36.1467410   4.9567026
  84.8296846  37.3858691   5.0499415  37.8113270  91.0570335  12.0686913
  38.0256104  90.2114201  12.4627054  38.1652737  91.7027855  12.6802170
  34.1184592  89.7594070  30.1542282  34.4256473  89.9828434  31.0328293
  33.8361025  88.8474655  30.2239275   1.5943211 101.4752483  41.5564871
   0.9039564 101.0718441  41.0302734   2.1185325 101.9690132  40.9259081
  99.3748821   9.7131110  59.2502069  98.9762653   8.8569403  59.4060993
  98.6320652  10.3074980  59.1445589  37.9627371 105.2958965  57.5999165
  38.0535603 106.0880947  58.1294489  38.2337379 104.5861816  58.1822395
  21.5433526  85.1548862  41.3357401  21.1543298  84.9859238  42.1938467
  22.4096894  84.7504425  41.3816833  12.7221537  38.9215922  38.8442302
  13.5150337  39.3776107  38.5620594  12.3186517  38.6173892  38.0312872
  26.0259652  99.8704338   4.1042361  25.7741833  99.1603470   4.6946725
  25.2274489 100.0701904   3.6156690   3.8688785  34.5067406  12.8512740
   3.6494485  33.6623001  13.2449746   4.5479846  34.3020892  12.2084963
  12.6473904  60.5045748   9.3186414  12.2300875  60.6513405  10.1674926
  12.5190175  59.5717239   9.1467404  33.3664536  35.1480675  18.1155694
  33.0849934  35.6088185  17.3251772  32.5516272  34.8680067  18.5325301
  92.6882329  38.3960366  34.9565125  92.6422801  39.2087841  35.4600620
  92.8040089  38.6819172  34.0503669  58.8177002   2.0985217  91.5627643
  57.9442931   1.7677922  91.3529807  58.7064255   2.5574536  92.3953697
  62.3837805  81.7838955  10.9606421  63.2104254  81.6796970  10.4894423
  62.0225859  82.6069736  10.6315219  47.6026535  39.3860531  34.8022079
  47.3536396  38.6325979  34.2669201  47.8626060  40.0546551  34.1684675
  30.4270530  74.3624783   9.6259743  30.4551315  74.0598583   8.7183046
  30.0847816  73.6155081  10.1170111  78.8530278   6.1130471  83.5340613
  78.9312024   6.2266011  82.5868410  77.9283800   6.2770362  83.7194437
  15.0102007  49.8445082  72.5706100  14.6994770  49.9010992  71.6670179
  14.4691455  49.1619730  72.9676437  27.3202229  86.7513657  18.3635318
  26.6152716  87.3886681  18.2489550  26.9366407  86.0656071  18.9101815
  55.6679034  97.7977032  77.0525366  54.8940932  97.5054020  77.5342089
  55.5985796  98.7523550  77.0445257  94.9793877  76.0595894  49.0925550
  94.2789878  76.6650248  48.8494110  94.5234456  75.2657795  49.3722200
   8.9389598  62.5677395  14.4664812   8.7269074  63.2750034  13.8573456
   8.4489411  62.7806902  15.2606893   3.8570732  69.4556427  13.6523581
   3.6229691  69.6015882  12.7357745   3.0976525  69.7655392  14.1457915
  13.4111643  33.8308716  29.3632674  14.2319822  33.4399199  29.6626759
  13.5983098  34.1283345  28.4729171  21.2726665  35.3339243  23.2582927
  20.8017135  34.5696330  22.9261875  20.9912276  36.0530639  22.6927304
  13.4156787  33.7244773   9.3428135  12.5618696  34.1467595   9.4372487
  13.8624191  34.2357206   8.6680657  98.3478918  57.1521664  46.8412971
  99.1800716  57.4674940  47.1938229  98.2104923  57.6726055  46.0497808
   8.4586322  54.4695520  35.6846857   7.8206146  54.5367575  36.3950729
   9.1753411  53.9539528  36.0544348 109.1779830  41.7504025   6.0425019
 108.3398833  41.4435959   5.6965387 109.2617979  41.3131762   6.8898731
  12.2263277  15.6100452  13.8334882  11.9420469  14.7986352  14.2542386
  12.8658640  15.9831107  14.4401562 115.2155329  13.2896562  91.0689422
 114.9127413  14.0761561  91.5227806 115.4218579  13.5886140  90.1833436
  72.5155915   3.3182473  80.9508234  71.9109626   2.7326198  80.4950827
  72.9050569   2.7746482  81.6356951  39.1954374  56.5002537  17.5979960
  39.2801309  55.5547380  17.4752891  38.3159781  56.6173267  17.9572642
 102.1855212  32.9871507  83.7599438 102.5201107  33.6631055  84.3493277
 101.2912799  32.8274865  84.0617293 113.2353688  25.3891988  74.5348793
 112.7450276  24.8406453  75.1471585 113.3293129  24.8481078  73.7508994
 114.3691321  60.0838804  43.5889578 114.1370431  59.7583866  44.4586849
 114.9491068  59.4128466  43.2289934  78.5329871  22.1045346  93.3166694
  78.9574238  22.7467485  92.7477695  77.7352611  22.5403781  93.6165125
 108.7771662  56.1761475  18.0269015 107.9834284  56.3162327  17.5105786
 108.5302027  55.5119276  18.6703706  37.3932099  63.2443142   7.4031430
  37.6338029  63.4874344   6.5091407  36.9580460  64.0214252   7.7538067
 106.0271122  30.3492689  25.8359098 106.7279108  30.3662276  26.4876938
 105.9230079  29.4225168  25.6202102  11.4986408  36.9319415  48.2806635
  11.6017890  36.0731792  47.8706455  12.2550941  37.0123744  48.8616467
  25.2026796  34.5039606  39.9139738  24.9151683  34.9749279  39.1318226
  25.3976035  33.6198854  39.6030974 103.9410593  50.8866930   9.2304885
 103.6455049  51.4396429   8.5072142 104.8201074  50.6073046   8.9746588
  26.4114261  85.6952095  11.3450503  26.3816071  86.6434574  11.4721966
  26.7149115  85.3503799  12.1848249  22.1591878  50.6531906  38.8178945
  22.2008061  51.0863781  39.6704483  22.0399380  49.7264576  39.0256834
  33.2234025  12.5374055  22.0027065  32.7528834  11.7709303  22.3303628
  32.5796032  13.0038345  21.4696026   9.1193420  44.3394089  13.6469615
   8.9719445  43.9667988  12.7776706   8.2704508  44.2710590  14.0839314
  16.6444743  47.2336197   1.6484357  17.0813739  46.5628624   1.1236199
  17.1500015  48.0304003   1.4877638  90.9858551  69.3546391   3.4112248
  91.3890400  70.1787901   3.1383631  91.2368049  68.7287664   2.7318603
  28.7155604  86.2300968  23.8732266  29.5533705  86.6458797  23.6696863
  28.0820608  86.9474983  23.8574815  82.4852051  46.2146425  13.2602048
  82.0388426  46.4995432  14.0575898  82.1238794  46.7722559  12.5711906
 103.9599266  56.5928364  17.6683533 103.7272348  56.5407419  16.7413294
 104.9105587  56.7047548  17.6707542  24.4225407  46.7283297  11.6946805
  23.8462877  47.3310518  12.1646726  25.2791524  46.8469810  12.1050072
   2.0763877  50.2340269  10.2729058   1.4299646  50.8020735  10.6920612
   2.6818985  50.0003481  10.9764564  28.2147980  73.5735703   4.9508759
  27.5002503  74.2003155   5.0642174  28.1225038  72.9693365   5.6874996
   7.4313545  67.9992771  41.7408419   7.4534070  68.4945917  42.5596237
   6.6142869  67.5024605  41.7833900  49.6890402  42.3513508  11.0574651
  50.6181622  42.2428226  10.8545256  49.5772171  43.2952595  11.1704171
  55.5198347  75.0106544  92.9823194  54.5661854  75.0846476  93.0185161
  55.8195650  75.8893174  92.7491976  36.3766241  55.6982470  12.7789021
  37.0950294  56.2379122  13.1088817  35.7067299  55.7482529  13.4607911
  62.8969204  86.9413323  89.9392330  62.2411859  86.5253586  89.3795830
  62.8252232  87.8746456  89.7391844  15.4529226  64.5659018  36.6994119
  14.9725211  63.9055014  37.1987295  16.3636398  64.4578266  36.9735384
  30.6403446 101.0239357  93.0856487  29.8318463 100.5604929  92.8670525
  31.1793726 100.3690285  93.5292445  33.1937468 108.5689873  85.0922864
  32.4885434 108.0060763  85.4117393  33.5364085 108.9933724  85.8788705
  44.9382401  26.0692549   6.4218909  44.1848087  26.5100336   6.8146825
  45.6419182  26.1825585   7.0608246  38.2082653  83.3716774   7.8555149
  38.4504128  82.5374508   7.4534416  39.0259719  83.8681984   7.8879869
   4.1660988  55.7918787  25.3158689   4.7714204  55.2236652  25.7922626
   4.3912625  56.6765642  25.6037259  34.7423911  54.9690485  17.9226065
  34.4631505  54.2626190  18.5050225  35.2669597  55.5448771  18.4789169
  11.3228452  61.2842417   5.0239742  10.9780061  62.1538448   5.2267146
  11.4111137  61.2778139   4.0708745  42.1401024  11.2182832  13.1053603
  41.4490891  10.6652308  13.4698677  41.9262934  11.2866890  12.1748567
   9.9819207  45.4168606  25.3015113  10.5675495  45.6791115  26.0117912
   9.2053801  45.9645176  25.4167938  18.1026673  42.0732737   9.4082630
  18.3854699  42.1679688  10.3178167  18.8986647  41.8337822   8.9336425
   2.4534041  60.7252693  25.1428032   2.3756742  61.2629747  24.3547273
   2.9537272  61.2664223  25.7535958  60.0583732  84.1720480  61.6648537
  60.4335391  84.4984598  60.8469683  60.7134950  84.3833346  62.3299891
  20.0960970  50.2781725  35.0742245  20.2552938  50.9400511  35.7471299
  20.4499102  49.4697380  35.4450083  19.4748259  72.1870708  47.9505014
  19.6995354  72.0718336  47.0272112  19.1374183  73.0811644  48.0050993
  60.8102619 103.6366124  71.1114579  59.9012339 103.9348168  71.1426312
  60.8223665 102.9772324  70.4176980  39.0043426  49.0383625   0.0398598
  39.9458170  49.1364145  -0.1024310  38.9067888  49.0184259   0.9918670
 103.2665434  39.7758746  30.7930589 103.9391853  40.4185677  30.5678272
 103.4472336  39.5497942  31.7054558  88.8795746 108.0775032   1.3213284
  89.4730903 108.8195610   1.2059100  89.2032433 107.4147742   0.7111964
  65.7175553 106.8594021  73.0874067  66.4406955 107.4864001  73.0742985
  65.8944165 106.3056702  73.8478905  78.1447756 100.2630562  93.2697187
  77.3269999  99.9428744  92.8889823  77.8681338 100.8242411  93.9941317
  15.9151864  70.1790762  14.2190182  15.2189910  70.0170374  14.8556387
  16.4419138  69.3799305  14.2315042  33.2151270  53.3046055  19.6262133
  32.3021555  53.0170536  19.6206307  33.7218142  52.4927711  19.6468258
  43.3358860  34.7343755  35.3213286  42.4554014  35.1097441  35.3125429
  43.4332514  34.3726063  36.2021661  25.2316427  18.8042307  43.6355019
  24.9323130  19.3546200  44.3591785  24.4285607  18.5447097  43.1839085
  22.7177048  23.9374590  22.4892592  21.7708135  24.0693998  22.5363970
  23.0899906  24.7865033  22.7275038   3.7020341  36.2043571  -0.2309185
   4.6433228  36.2444282  -0.4000384   3.6294690  36.2155485   0.7234614
 115.9886470  47.8717995  55.0841188 115.7837370  47.4236631  55.9047413
 115.4716832  47.4104452  54.4237137  13.3641757   8.1527663   3.6043656
  14.0754451   7.6070071   3.2689917  12.5684417   7.7478362   3.2592952
   6.6379207  95.5621338   5.4073828   7.1337646  96.1746979   5.9506452
   5.7228661  95.8078671   5.5434787   1.9231132  61.3600540  16.3150072
   1.0516020  60.9645844  16.2975621   1.8398272  62.1470642  15.7765734
   4.4376329  37.1368051  22.2752380   4.1887546  36.2536478  22.5478578
   4.7710955  37.0275211  21.3846803   5.0200874  65.5959225  23.3133507
   4.8842362  65.7701635  22.3819971   4.9975631  66.4600515  23.7244582
  17.2487032  45.6797600   4.0668786  16.8832529  44.8122311   3.8934612
  16.7279923  46.2718630   3.5241950  33.1148565 105.8656735  83.7619096
  33.3778685 105.0064320  84.0917045  32.2007560 105.9560246  84.0311461
  12.0894229  27.4454427  27.7281380  11.5499842  27.4514318  26.9374394
  12.9022741  27.0167685  27.4602866  21.3255835  68.2803679  36.9715691
  22.1617460  68.7457800  36.9502473  20.7189751  68.8964272  37.3823357
 106.0067930  44.3246460  13.5662341 105.5455484  43.7133884  12.9919100
 106.2127199  45.0719547  13.0046701  38.2100153  52.3848057  13.6952293
  38.1469870  51.7189455  14.3799818  37.3330188  52.4192953  13.3132339
  16.1811256  79.2631245  11.9848502  17.0925820  79.5551491  11.9989300
  16.0313034  78.9035225  12.8591907  40.4886150  94.9660110  14.8071086
  40.9401655  95.5766106  15.3897738  40.0313902  95.5267239  14.1803861
  97.4290229  24.9847980  75.9062260  97.3410810  25.0297160  74.9541336
  96.6828514  24.4572253  76.1910563  16.9963776  20.4957671  86.5664112
  17.8046738  20.2771993  86.1026042  17.2838723  21.0165257  87.3163378
  54.5737600  67.3896027   5.4708207  54.6942759  67.6556253   6.3823783
  54.4212389  68.2091141   5.0003189  44.9238157  70.5056572   0.5903730
  44.3314075  70.3667831   1.3292876  45.1485300  71.4350414   0.6349381
  38.2625723  33.4641647   8.2098657  37.3640776  33.1357265   8.2425165
  38.7362909  32.8146219   7.6903296  39.9953556  73.1124306  12.1013892
  40.7628727  73.5287571  11.7091954  40.2714109  72.8905535  12.9906559
  25.1462841  65.7546568  18.4714055  25.6065130  64.9853182  18.8068748
  25.3153133  65.7429790  17.5293207  32.0900488  46.5641928   5.2358633
  31.7163038  47.3837948   4.9121353  32.5357556  46.8081331   6.0470790
   6.3208401  23.8677311   2.0129530   6.2413198  23.5446835   2.9104766
   7.1284121  23.4710574   1.6862908 113.9584078  53.6755657  27.0278263
 113.2439669  53.3916664  26.4575577 113.5474696  53.7983179  27.8835678
  51.0399580  81.7187881   2.0967647  50.7505655  82.1428776   2.9046226
  50.5889940  80.8744717   2.0946597  52.2179615  87.2712726  81.5679198
  53.1148851  87.3508210  81.8926245  51.7436635  86.8387241  82.2779733
  29.4952570  20.3185983  86.1328494  29.0838229  20.1539798  85.2844065
  28.9235913  20.9592099  86.5559888  25.9551226  11.6051526  83.0544513
  26.6309248  11.3112874  82.4435752  25.9659420  12.5595899  82.9825753
  27.1938777  65.9316397  12.4540305  27.8164363  66.0399389  13.1730032
  27.1680117  64.9873018  12.2997999  28.5236049  55.5864334  20.0260663
  27.5889397  55.4384995  20.1701117  28.6233664  56.5378571  20.0588965
 114.8684561  98.2551140  82.6827961 114.5648539  99.1516012  82.8255051
 115.5537569  98.1270546  83.3386904  37.3847437 109.1798306   1.9632332
  37.6001716 108.6590576   1.1895289  38.1268668 109.0498734   2.5536540
 112.0075060  15.0095124  74.0594536 112.8646232  14.8918338  74.4690066
 111.8823672  15.9581561  74.0341407  16.0642874  78.7115240  14.7544360
  16.8397725  78.4111643  15.2283967  15.8729994  79.5715046  15.1286983
  26.5322161  65.5574799   1.0713894  26.8269253  65.5653620   0.1607212
  25.5840945  65.6773758   1.0173484  85.5050909  85.0136918  94.4761441
  85.5518353  84.8893542  95.4240823  86.0898506  85.7512779  94.3022030
 101.2496758  35.7139630  60.8035165 101.0803700  35.8545919  59.8719626
 100.3870297  35.5401654  61.1801678 112.2522615  91.5497971  30.4821134
 111.5768381  92.1743488  30.2176023 112.4461510  91.0551739  29.6858764
  50.4483414  73.4595394   1.7172717  50.1395750  73.0093145   0.9310222
  51.0989046  74.0838146   1.3958988  45.0445271  54.1016865  43.2137823
  45.7590628  54.2576885  43.8313055  44.4445086  54.8346329  43.3516455
   1.3459116  49.9004364  28.4314823   1.0269063  49.0117979  28.2740188
   0.5592062  50.4451656  28.4070802 112.5406488  65.2649164  37.3214126
 112.9855209  66.0400438  37.6641822 113.2469379  64.7103310  36.9900155
   9.3559730  95.3079796  13.1594038  10.1510477  95.6581020  13.5612774
   9.2777783  94.4226933  13.5149109  20.5861163  96.3897991   2.5488415
  20.5002117  96.2898636   1.6007569  21.0310245  97.2297573   2.6618034
 111.9862457  82.0863342  36.6015816 111.9197460  81.7331696  37.4887609
 111.2072518  82.6337051  36.5026689  28.1887698  54.9301100  11.3296282
  28.0656242  54.8088074  10.3881645  28.8603783  54.2909527  11.5676463
  34.3718457  41.7110538  15.6844640  34.2156887  41.1487150  16.4431596
  35.2866650  41.5515184  15.4523313  39.8783173  99.0050358  85.0159853
  39.8125447  99.8860449  84.6475667  40.4272416  99.1107220  85.7929957
 110.2027894  12.1332068  65.1784211 110.3620625  11.9459004  64.2533380
 109.4097067  11.6405435  65.3894549  13.4257483  72.4522781   3.4794682
  13.9416146  71.9220352   4.0868863  12.5165534  72.2825146   3.7259942
  26.0175276  58.5103464   4.8157150  26.7889953  58.8453579   5.2726960
  25.4762077  58.1293964   5.5071521  31.2784849   3.5406489  87.6710075
  31.4295470   4.4856782  87.6891958  30.5328690   3.4285827  87.0813226
  24.1853976  52.3854923  53.9393759  23.2480073  52.4510574  53.7570858
  24.5633721  52.0419741  53.1298304 110.9746982  34.4940228  87.9698729
 110.2901245  33.8551850  88.1685555 110.7753373  34.7903295  87.0817917
  85.3183086  18.2623477  94.2904002  84.4653953  18.1937451  94.7194274
  85.2725411  17.6390595  93.5653808   8.7122434  30.2958274  33.7001848
   8.0428332  30.2597070  33.0169439   9.5397556  30.3497648  33.2221198
  24.0097165  85.2879333   2.4520299  23.5319948  85.3262711   3.2806095
  23.5376310  84.6365643   1.9332953   6.9402634  26.5557523  59.1758424
   6.0120426  26.6383596  59.3945008   7.3987471  26.8286271  59.9705535
   1.5914956  29.9716997  19.4031632   1.5750661  29.1623139  18.8924205
   0.8420672  30.4729819  19.0817535  16.7822337  76.0383844  31.2648726
  17.5655556  76.2539816  31.7709923  16.1064041  76.6223097  31.6091371
  83.5966360 101.6488690  75.9145087  83.1867182 101.0405964  76.5294927
  82.8711331 102.1754641  75.5789870  10.3188145  22.8659558  21.7426443
  10.2838123  22.5160170  22.6328969  11.0410738  22.3940730  21.3280320
   4.2155144  46.7808342   5.4948044   4.9297389  46.3868475   4.9939173
   4.6177602  47.0366669   6.3248527  35.7720733  41.9584799  39.5312309
  35.7010961  41.3640356  38.7843537  35.0432205  42.5691700  39.4214010
  69.0201474  19.9874253  94.6728211  69.0946175  19.1510863  94.2132302
  68.9909060  19.7496743  95.5995636  44.0999686   2.6971717  79.8680550
  44.5464121   2.3073621  80.6197029  44.4180952   2.1985049  79.1154843
  57.2011029 105.9305853  87.2837341  58.1074834 105.7817835  87.5531113
  56.8528104 106.5355009  87.9387146  19.9165213  48.8343477  16.5639806
  19.7602642  49.4991064  15.8932257  20.8220124  48.9792395  16.8384337
  22.5054240 104.8019314  46.9383621  21.9148183 105.4416561  47.3360538
  23.3798051 105.0835419  47.2073936  22.3049760 102.2821236  26.5564156
  21.9365597 101.4009857  26.4924145  22.7272582 102.3033714  27.4151707
 115.0936294  16.5056415  90.4597521 115.0111843  17.4342246  90.2425799
 115.5089808  16.1157270  89.6905434  10.0288701 104.9780941  52.9191494
  10.4494548 105.8051968  52.6841021  10.6617880 104.5409679  53.4888506
   8.8383746 100.8617973  30.0498080   9.0983331 100.4332733  30.8652949
   8.7320614 100.1441097  29.4254279  19.2852664  73.4792614  15.9078944
  19.2280030  73.3504868  16.8546629  19.8014927  74.2788267  15.8057189
  36.9596267  73.3088398   7.5046468  37.7896667  73.6608458   7.8261375
  36.3652539  74.0591383   7.5045794 115.3653673  83.8187599  28.7652254
 115.7531132  84.1407776  29.5789766 115.3541104  84.5815086  28.1870246
  22.6292645  66.6352887  56.3972407  22.1835314  65.8230729  56.1567217
  21.9247710  67.2765584  56.4905125  21.5765095  11.7048824  26.9557166
  22.3621392  11.2206483  27.2097540  21.3938999  12.2742128  27.7032089
  32.0829201  71.4633465  14.2571688  32.2549605  71.4747190  15.1987123
  31.1342883  71.5692902  14.1857302 114.8109653  61.1042118  54.6668005
 114.1151713  61.0743332  54.0101337 115.5561819  60.6756687  54.2458057
  27.7280521 102.1540451  11.4971185  27.0072722 102.4225521  12.0668650
  27.6030350 102.6635170  10.6964684  86.2449623  12.3553224  85.0118214
  86.2293131  12.6728673  84.1089636  87.1275617  12.0030637  85.1265579
  47.6474762  97.8813744   5.4342496  46.8971109  97.2871876   5.4452759
  47.8399324  98.0069351   4.5050406  32.1117115  68.5086918  20.1516056
  32.8765702  68.7503195  20.6739450  31.8667221  69.3153572  19.6982777
  32.3761916  47.5736332  13.0460262  32.7088547  48.3859015  13.4278524
  33.0449796  47.3156786  12.4116671 104.6955205   4.3495126  81.6152781
 104.3075252   3.4919066  81.7890805 105.2812696   4.2013783  80.8728593
  83.3721365   6.5531111   8.8539982  83.2876886   6.0000087   8.0773485
  83.4073509   7.4455786   8.5097808  52.3797607  46.9270086  20.7459664
  53.2948637  46.7832279  20.5048251  52.4214172  47.4890852  21.5196371
  13.3117974  74.1965246  32.7366066  13.6888766  74.7273588  32.0349956
  12.3800707  74.1447592  32.5234485  27.2319889  77.3208189  12.7745819
  26.5856910  77.9569960  13.0808628  27.0043111  77.1708965  11.8570220
  40.2423906  56.4470530   1.6809709  40.4159594  57.2488165   2.1742031
  39.4523716  56.6421890   1.1769652   4.6854435   5.4651160  94.3743615
   4.3377672   5.6267591  93.4973091   5.6303345   5.5885692  94.2839420
 107.4851282  89.9418640  38.5055017 107.2135111  89.0663147  38.7809491
 106.8102344  90.5232811  38.8557911  22.4717522  47.7768373  33.4047532
  22.3334479  48.0912447  32.5113034  23.0868649  47.0495605  33.3102059
 108.3790995  49.6592565  94.3712988 108.5065700  50.3467794  93.7176201
 107.6829410  49.1108937  94.0095122   8.6273116  70.3634596  15.8591914
   7.9270059  70.9125948  16.2116873   8.3518076  70.1697731  14.9631917
  58.9689147  75.6479043  73.8062960  59.3302262  74.9458093  73.2652360
  58.3985674  76.1375899  73.2137233  20.8234167  32.4731898   1.0973505
  20.0018549  32.0110440   1.2637453  20.9030676  33.0897355   1.8251964
 104.3371393  48.2743692   7.2995007 104.8378541  48.9230967   7.7941436
 104.8293986  47.4603033   7.4053609 108.7529614  59.3214273  14.6076012
 109.6375980  59.4019794  14.2510021 108.6632671  58.3919668  14.8180521
  40.2860165  71.1454153   4.6337372  40.6007814  71.5918064   5.4197949
  39.4348669  70.7875443   4.8861402 101.9963290  69.1568899   3.6134508
 102.7997388  69.6146297   3.3659893 101.6706361  68.7846422   2.7939451
   2.4557720   2.2785087  91.3361007   1.8113886   2.2493119  92.0433166
   2.0886980   2.8954310  90.7029369 106.6083904  32.9023743  24.7461295
 106.9162150  32.2227645  25.3457999 105.8810868  33.3185387  25.2088022
 109.1235717  51.1392355   4.7713977 109.0820988  50.1922512   4.6382210
 109.5313396  51.4756918   3.9734298   2.4321733  54.1312218  23.7895036
   1.5713558  54.3139172  24.1661310   3.0428958  54.6239996  24.3376136
  24.1069627  97.4043751   8.7935483  24.9544621  97.5571060   8.3756357
  24.1995406  96.5515423   9.2182034 112.4872601  83.4930987  54.3161279
 111.8635142  83.7065238  53.6221391 111.9748461  83.5448927  55.1229626
 103.6151315  20.9519811  78.6204964 103.7020732  21.8365712  78.9757079
 104.3964888  20.4925103  78.9280611  55.8700228  91.2464237  11.2221169
  55.1538134  91.5873241  11.7578983  56.3590193  90.6732750  11.8125606
  50.4796028 104.0524859  75.4535144  51.0225415 103.9660782  76.2370854
  51.1060643 104.1770739  74.7405940   3.1423426  81.7860126   5.5014127
   3.9465457  82.0412350   5.9534639   2.5186309  81.6067791   6.2050390
  62.6843977  91.5797424  12.0530391  62.3298788  92.3129272  12.5560141
  62.6190901  91.8614388  11.1405635  26.9465756  47.4407864   4.8054102
  27.3970532  47.2995996   5.6380969  26.0713291  47.0781660   4.9421015
 113.7672354   5.7134004  76.4919978 114.5490266   5.5026288  77.0025009
 113.1594683   4.9977250  76.6781753   3.1656538   3.7102170  87.2160065
   3.6411558   4.0190597  86.4448094   3.8503109   3.4972091  87.8501236
 110.7647754  33.7305112  81.0576826 110.3229762  33.6910291  81.9059080
 111.0771013  34.6329446  80.9920817  10.6124330  77.9880476   3.7924063
  11.4388514  77.9803038   4.2753202  10.8202434  78.4299088   2.9691184
  19.4126355   6.2859960  79.8005026  18.7860762   6.4397473  79.0933829
  19.1353594   5.4568048  80.1901072  24.9750948  67.4997473  11.3566625
  25.6307364  66.8308449  11.5539956  25.3913307  68.3244419  11.6073811
  31.5266919  92.0176411  17.0358264  31.5949202  91.1182213  16.7154765
  30.7113600  92.0321560  17.5370824 100.5721951   1.4964147  90.1943797
 100.7305075   1.0621066  91.0325607  99.6233440   1.4511676  90.0766271
   4.8001465  44.9822617  28.9414597   4.4949353  45.7662249  28.4848571
   4.5697615  44.2598677  28.3572483  20.8118176  60.5139303  25.5413628
  20.8313513  61.3934374  25.9186220  21.7327070  60.2914906  25.4045606
  20.1772976  58.7436771  28.9815116  20.9145856  58.6393499  29.5829725
  20.5454946  59.2073965  28.2294297  47.7664661  77.4690008   4.2075583
  48.0790615  76.9454241   4.9453795  47.6451635  76.8365240   3.4993994
  31.3761878  26.9521856  23.2086873  32.3238420  26.8216562  23.2425332
  31.2372160  27.8059340  23.6186028  45.4944086 101.8755245   6.3565636
  45.6895113 102.4429703   7.1023315  45.8012915 101.0102081   6.6272712
  78.4735918  87.4546719   4.3071511  77.8264809  86.7643929   4.4520277
  78.0091715  88.1139469   3.7914932  67.8330004  81.4720029  87.7360493
  67.1728527  81.5288276  87.0452481  67.9951942  82.3811716  87.9877192
 110.5814340 105.7576942   9.8433042 111.0794540 105.9254456  10.6433451
 109.6663048 105.8583164  10.1053047  19.2570317  97.0014763  13.2649660
  18.3387351  97.2270203  13.1163311  19.6839237  97.1694279  12.4248552
 116.2214649  71.1547613  17.1453989 115.8667048  71.4982891  16.3254178
 116.6758499  71.8990040  17.5401998 115.9219122  57.7667856   3.4824604
 115.4596508  58.0711889   4.2634109 115.2442088  57.3501348   2.9501519
  24.1803646  71.8455124   9.0088242  25.0196576  71.8496513   9.4690442
  23.8163590  72.7166128   9.1666627  31.6122890  22.4371743  23.5579228
  31.6702533  23.3261061  23.9081717  30.8229256  22.0729136  23.9584851
 115.7937671   9.6800656  94.1462787 115.0396682   9.8890491  93.5950140
 116.5159584   9.5615764  93.5293242  14.7672379  50.7004595  33.9161992
  14.1272724  51.4075804  33.8346362  15.0639379  50.7495785  34.8249292
  42.5667864 101.8238396  88.9638281  41.7845565 102.3753685  88.9765239
  43.2182139 102.3429245  88.4922105  18.9908195  80.6995487  21.8816566
  18.3392227  81.1766148  22.3955202  19.3512082  80.0551033  22.4907899
  52.4268675  92.5004387   8.2115293  53.3392954  92.3462391   8.4563321
  51.9407558  92.4124050   9.0313935   8.5678994   9.2595239  91.9483372
   7.7105604   9.4079633  92.3472917   9.0954005  10.0073047  92.2290373
  31.0049200  47.7819014  24.2525673  31.3361287  47.1193743  23.6462784
  30.4065919  48.3113050  23.7253380  60.5851269  95.3703213  10.7886064
  59.8224974  95.1730156  10.2448249  61.2767363  95.5845928  10.1625121
  23.1746960  66.3650846  13.5147977  23.0895758  66.4441204  12.5646722
  22.9648662  67.2377396  13.8474822 111.1964799  50.2329583  93.1177197
 110.3081871  50.5227513  93.3255365 111.6140724  51.0011716  92.7282387
  26.1113858  50.4053688  11.0380340  25.8926868  51.1174345  10.4368961
  26.0257578  49.6114779  10.5101752   2.8893194  81.0856819   8.6731267
   2.0510679  81.3137245   9.0750778   3.3785734  81.9082355   8.6564207
  83.5628712  94.7271818  70.3666311  82.8647053  94.8997683  70.9983068
  83.5866368  93.7733049  70.2905756  18.7119031  60.7723618  23.5764885
  19.2394626  60.8771896  24.3682742  18.7410378  61.6307211  23.1538820
 101.1475588  72.2260613  92.9607737 100.6250835  73.0135579  93.1127569
 101.9861675  72.5539823  92.6360684  91.8003822  32.2965188  90.6189081
  92.5293292  32.8140779  90.2768487  92.1533240  31.8739553  91.4019146
 102.1878887  26.8360944  84.9461680 101.3330484  27.2488446  84.8232084
 101.9868518  25.9173818  85.1244366  40.2167749  85.3405666  28.3344603
  39.6268582  85.0035191  29.0087199  40.4602575  84.5695877  27.8220725
 100.8191443   9.9135108  75.9372264 100.6118632  10.5530782  76.6185623
 101.6873742   9.5861096  76.1722094  20.5330300 107.5708103   5.5182207
  20.5274844 108.4055138   5.0497299  21.1269164 107.0161629   5.0123554
  30.9329735  11.0976262  90.1125020  30.1977192  10.5626149  89.8135108
  30.7662522  11.9634528  89.7399717   1.3869317  40.1624489   4.4304407
   1.1899588  39.6582437   5.2198768   2.2582370  40.5255175   4.5893174
  10.0453221  18.6146874  84.9092585  10.5830990  19.4027419  84.9866491
  10.3612601  18.0397172  85.6062710  50.9903860  64.5923996  14.5182443
  50.7802963  65.4762125  14.2166364  50.5784512  64.0155602  13.8749766
  40.7167435  87.5811481   2.6835272  40.7488966  88.5378075   2.6824978
  40.3648758  87.3523998   1.8232396  37.9618621  89.4308662  15.0331950
  37.3886490  90.1611710  14.8001397  37.4112892  88.6538792  14.9363017
  43.4850298  33.5589929  67.2111326  44.2140375  33.4672589  67.8246146
  43.8651167  34.0008397  66.4518314  99.1061641  61.9175668  81.6440767
  99.2806292  62.6085706  82.2830742  99.8083092  61.2816472  81.7812639
  47.3584080  95.5141735   3.3563924  46.8699551  95.9626007   2.6660606
  46.7402458  95.4503536   4.0844262  52.7326918  85.0347233  17.4817872
  53.4002686  85.6787586  17.2456050  53.2294703  84.2771435  17.7908504
 106.4137127 105.0389004  44.4201088 105.7810917 105.5452919  44.9296093
 106.2464621 105.2909470  43.5119581  63.7796736  61.5020657  15.9960783
  64.7259283  61.3747168  16.0639942  63.4058285  60.6561661  16.2428999
   9.0975605  92.2448297  81.4525324   9.9529253  91.8310399  81.3369435
   9.0612398  92.9145761  80.7696336   7.7274692  79.3849230   7.9346758
   8.4480369  79.1055870   7.3698878   7.9140258  80.3045273   8.1237912
  34.8931919  36.7338319  79.7446281  34.0451847  36.2921758  79.7898751
  35.4761826  36.0920186  79.3391293  54.3439341  63.0557442   0.3910477
  55.2533007  63.0105066   0.0956909  54.0231466  63.8912773   0.0516209
  13.4402776  58.2343054  19.8855615  14.2114961  58.3827066  20.4327655
  12.9280972  57.5831509  20.3650427  23.3661819  89.1799068  25.2756500
  24.0962720  89.7678471  25.4693699  22.9139447  89.0757084  26.1128211
  26.4952397  99.1262627  20.3574467  25.7555771  98.5461330  20.1769471
  27.1424150  98.5638809  20.7830405  34.1388011  75.3233480  15.7459521
  34.4195342  74.8382521  14.9700010  34.8906040  75.2852869  16.3372004
  96.3650670  74.4992208   4.7390160  95.4527893  74.6339512   4.4824451
  96.4544024  73.5493231   4.8161227  32.4889218  72.1272130  66.8276363
  32.9803692  72.9447980  66.7485267  32.2623001  71.8958612  65.9268838
  55.2111102   1.7607356   3.5919964  54.4341685   1.2062598   3.6637619
  55.5314292   1.6102648   2.7026230  39.2350268  81.5929127  30.3450155
  39.0464473  82.5031567  30.5733347  39.0431094  81.1010170  31.1434150
  39.2132616 103.1807613   3.0955905  39.9864411 103.7425423   3.0423751
  38.4766030 103.7905121   3.1376225  45.8454800  58.7622023   4.8061389
  46.5137577  58.4918737   5.4358661  46.2488604  59.4839334   4.3238252
  86.3560952  34.2502255  87.4206632  86.1509801  35.1084943  87.0497882
  86.6029144  33.7159009  86.6658073  29.0947151  88.8398170  22.0033097
  28.3092046  88.5836697  22.4866271  29.2348337  89.7560501  22.2422767
  93.0646015  30.7613130  70.1611095  92.6499332  29.9035783  70.0684887
  93.9476527  30.5677171  70.4757100  34.3840361  88.3457947  10.5559516
  34.9372959  88.2317352   9.7832131  33.5199046  88.5573101  10.2027202
  60.1802778  49.3503284  27.9595590  61.1193085  49.2687654  27.7928185
  59.9502230  50.2138329  27.6165318  58.0414295  71.1257982  24.5733762
  58.8714933  71.5344143  24.8188567  58.2738304  70.2229261  24.3564939
 110.6962396  43.4942575  88.0901694 111.4339543  43.8773389  88.5647791
 110.5361939  42.6592298  88.5298872  22.1452318  48.8084741  70.7090837
  22.4343334  47.9838605  71.0998016  21.2233435  48.8804860  70.9564096
  63.3020903  30.4953618  80.2618986  64.1418780  30.6605668  80.6904954
  63.2333232  29.5411916  80.2295142  45.0989914 101.2895203  28.1041598
  45.2927399 100.4773521  28.5722113  44.3632174 101.6718674  28.5823631
 111.6175581   9.6073909  72.2845250 111.0511805   9.4194169  71.5361172
 111.0144187   9.8572679  72.9845387  92.9824126  76.4980454  74.4992548
  93.3296644  77.1747965  75.0803357  93.5095942  75.7228298  74.6925217
  95.0683392   1.7146440  87.2873235  95.4231442   2.1371026  88.0695492
  94.9336327   2.4319167  86.6679615  60.8202553  97.0044613   2.2704194
  59.9788809  97.4598885   2.3004052  61.1880875  97.2367477   1.4177927
  69.3572606   0.5349303   2.9910052  69.0363897   0.6306697   2.0942838
  68.9540185  -0.2745866   3.3045340  57.5577450  80.6178761  17.3220539
  56.6664982  80.9294224  17.1644104  58.1188011  81.3098240  16.9718313
  37.4152350  97.5425625  30.4871774  38.1993723  97.6655674  31.0221815
  36.8686771  96.9447327  30.9971809  52.6638603  86.9817829   1.4175645
  52.0020247  86.9434261   0.7271028  53.4957552  86.8651676   0.9586783
  91.6786624  85.4288621  77.5156170  92.4703897  85.8691831  77.8246683
  91.9356490  85.0294061  76.6845768  82.8412117   0.1285411   3.5951465
  83.7401403  -0.1973485   3.6393002  82.7461637   0.4482985   2.6979560
  34.1992497  85.4522800   9.9186319  34.8079634  85.4686165   9.1800982
  34.4443417  86.2112808  10.4478562  15.9939682  61.2593412  24.5266962
  16.9313002  61.2184000  24.3370557  15.6007934  61.5929508  23.7202525
  58.4668255  68.4546947  20.3647494  57.5752068  68.7995911  20.3168249
  58.9711714  69.1520214  20.7837987  20.1318789  45.5551004  28.2579613
  20.0612211  45.4302406  29.2043495  20.2379966  46.5000582  28.1483030
  -0.1275581 104.8077011  18.5253572   0.5171546 105.4894257  18.3360517
   0.3670845 103.9897442  18.4753942 114.8516353  97.3057938  26.3540316
 115.4191262  97.2175980  25.5882597 114.0049179  96.9654369  26.0651374
  26.5256487  71.9544835  93.9285599  26.3398157  71.5880055  94.7930793
  27.0342528  71.2756867  93.4849506  80.8925144  23.6553617  87.2088706
  80.8286742  23.1619401  86.3911354  81.8326528  23.7735744  87.3445034
  16.4233624  11.1619611  88.3644932  16.5560805  11.0311027  89.3033725
  16.8954264  10.4382081  87.9527050  27.0241284  47.5683165  30.5860472
  27.3344612  47.8369427  29.7213125  27.6652813  46.9213390  30.8802843
  59.2952241   9.9100352  24.0555429  58.9324893   9.1081382  24.4318748
  59.5244707  10.4479075  24.8134136  82.6627112  31.8717332  72.8619391
  81.9841308  32.5460668  72.8940969  82.3686070  31.2061353  73.4838062
 113.4048091  81.4630413   3.1098914 112.9894351  81.4258480   3.9714670
 114.2592519  81.0510159   3.2379431  62.1504068 100.4914379  13.0731487
  62.8106689  99.9411201  12.6519203  62.4389315 101.3873768  12.8991616
  46.9784307  76.0963583   7.3517531  47.6139307  76.7621851   7.0889735
  46.1400795  76.5580702   7.3666131  94.6472765  45.1742024  90.6662568
  95.3714384  45.6328912  90.2403077  93.9781810  45.0989385  89.9859053
  34.4172263  73.0733776  13.9172471  34.6722150  73.1912851  13.0022001
  33.5696816  72.6305676  13.8745570   3.8490616  73.3594842  62.2612768
   3.0169760  73.8114781  62.1213776   3.9127337  73.2636018  63.2115322
  25.9209323  72.9481888   7.1286219  25.9191322  72.4664593   6.3014799
  25.1577497  72.6157045   7.6010978  31.6371155  99.7681618   9.5965952
  30.9322476  99.3537045  10.0942099  32.2729421 100.0363922  10.2599251
  23.0453801  81.3939095  21.6148639  22.3842883  81.5436935  22.2906995
  22.5892806  80.8894062  20.9413028  96.9976760  21.3846345  69.4474727
  97.0445968  20.4904361  69.7857600  97.8242041  21.5077872  68.9806562
  46.5775156 102.6510525  33.2727671  46.9479418 103.3199215  33.8486481
  45.6570101 102.5969410  33.5296130 104.2677082   0.3024150  34.0897298
 104.1778578   1.2552500  34.1058707 104.0873398   0.0601817  33.1814218
  19.5579112 104.1064358  17.7610791  19.9022663 103.2687759  18.0708718
  18.6074603 103.9935207  17.7721965  29.3298518   7.6687474  67.5271588
  28.6356007   7.5122352  68.1672793  29.9613272   6.9662900  67.6821261
  53.0405903  96.8457603  38.5665512  52.4604321  96.5476704  39.2671132
  53.7163877  96.1701202  38.5114598  39.6135139  77.5087881   8.3468503
  39.0447664  77.4526644   9.1147095  40.4982233  77.5659561   8.7077552
  10.2254021  82.8140545  16.1222208  10.4964685  82.6908779  15.2125061
   9.8407477  83.6903667  16.1409605 108.7617255  46.4386029  94.3080222
 109.6716286  46.7260785  94.2327319 108.6209680  45.8853955  93.5396629
  45.8914232  90.3888512  10.6273103  45.8023930  91.3209343  10.8261013
  46.0629463  89.9784946  11.4749086  33.4038424  54.7318649   5.6316829
  33.8737512  54.9695539   6.4310086  34.0769053  54.3654346   5.0581461
  17.3479533  57.4341679   7.6172608  16.8582010  58.1252146   8.0631614
  17.4382305  56.7430544   8.2733411  18.5623884  77.6229382  10.9397662
  18.7404263  77.1313858  11.7415833  18.7361276  78.5345888  11.1741495
  47.7699757  81.9782543  17.2741878  47.8321552  82.1505451  18.2136989
  47.8303623  81.0257816  17.2008395  10.5337083  97.1174049   7.6389396
  10.4541624  96.1802292   7.8167021  11.2118244  97.4191284   8.2433856
  68.8121891  97.1954346   9.5408553  67.8899097  96.9867516   9.6894348
  69.0588522  97.7374649  10.2902544  31.1704373  88.4813023   4.1471192
  31.1028576  88.1735802   5.0509822  32.1107697  88.5783291   3.9968124
  53.0911697   7.9027892  37.9296184  52.3339153   8.4680510  38.0822110
  52.7448047   7.0134593  38.0027246  25.4660916  52.1807528  18.0225134
  24.6657634  51.7418957  18.3107996  25.8591461  51.5741444  17.3950040
 104.1745163  42.4466462  55.6904846 103.3988191  42.5767560  55.1449615
 104.1900206  41.5054841  55.8642345  32.6858330  51.0787201  38.9657736
  32.2535896  51.2723494  39.7975802  33.4686589  50.5858278  39.2116833
   3.7053810  21.6224093  89.9342626   4.3880211  21.2626119  90.5006385
   3.0558525  21.9801087  90.5395704  23.3635402  89.0787601  28.0815601
  23.8174367  89.7704697  28.5629654  22.4648333  89.1086864  28.4096813
  10.7048965  79.1766357  24.0395188   9.8564851  78.7341452  24.0646148
  10.4936075  80.0885105  23.8393497  32.0219398  88.3681488   9.0715784
  31.8410492  87.9829884   8.2141644  31.6397524  89.2445564   9.0259039
 108.4544016  66.0997911  86.9955474 108.2992435  67.0415731  87.0676976
 108.0383516  65.7282205  87.7734095  19.5597947  76.7750359   4.2268121
  20.2571559  76.3443661   3.7324002  19.8221314  77.6950169   4.2591727
  19.2334782  46.5421052  85.0676793  18.5797011  46.3080354  84.4088775
  19.6461474  47.3346944  84.7245532  93.8716472   1.1659098  35.1495886
  94.0558113   2.0550776  34.8467588  93.2457746   1.2812091  35.8645844
  40.0052118  94.1794682  53.9277220  39.5967436  93.7987709  54.7051907
  39.4166923  94.8894787  53.6713028  56.4268160  89.8570156  27.9992151
  55.7668257  89.3798637  27.4962544  56.0461760  89.9426365  28.8732934
  90.8152522  57.0803590  85.5530518  90.4043699  56.3864274  86.0686731
  90.1959539  57.8089852  85.5955243  34.1596866  98.3525658  12.8505516
  35.0189590  98.2855415  13.2669532  33.8442612  97.4499512  12.8055847
  15.0213467  71.2841458  77.7844494  15.4510676  70.7390447  77.1253305
  14.1264712  71.3897367  77.4615294  69.2553176   6.3754893  34.2461109
  68.4827079   5.8951712  34.5437670  69.7887672   5.7180167  33.7995863
  61.0403956  21.6762686  35.8487558  60.9144891  21.5931178  36.7939901
  61.3001550  20.8001853  35.5637407  26.6302085 103.8430023   2.7232364
  26.2384772 103.3300114   2.0164022  26.9855547 103.1891155   3.3252215
   9.0991861  63.4275723  10.9446871   8.7299877  62.5787449  11.1884487
  10.0280261  63.3569002  11.1649001  21.9674611  48.1069899  12.0815599
  21.3684940  47.8688431  11.3739181  21.4400983  48.0326796  12.8769207
  19.1099392  11.8935914  80.7167321  19.5826041  11.0768886  80.5560690
  18.9142453  11.8767543  81.6535634  42.6340389  64.7968483   6.9479787
  42.4525976  64.2489958   6.1843252  42.5375175  65.6937027   6.6277152
  58.3672714  77.7195406  16.7769027  58.2533407  78.6543369  16.9484019
  58.9635468  77.4209785  17.4635935  75.0587238  12.4598551   3.4160012
  74.3201078  12.8246260   2.9285285  75.2015866  11.5979624   3.0249071
  60.9217787  59.6031761   5.4887623  61.6985655  59.1967869   5.1044714
  60.6929255  60.3055239   4.8800173  86.7171110  19.1347976  86.9882315
  86.6146679  19.0237851  87.9334372  87.0816410  18.3024116  86.6874271
  88.2672596  96.1334038  14.1543639  87.8426170  96.2215710  15.0076759
  89.1796303  96.3743687  14.3148243  46.2524652  76.8901682   0.8739554
  46.8162584  76.3077307   1.3830104  45.6841278  77.3023224   1.5246093
   6.1442214  80.7875538  31.9716406   5.3264427  81.1317825  31.6125035
   5.9944117  79.8452377  32.0479441  46.7266833  37.6511045  87.3683148
  46.4263331  38.0772634  86.5655643  47.6817118  37.6912065  87.3178696
  25.7246804  85.1077366   7.1818244  25.1075935  85.5400658   7.7721888
  26.0444331  84.3548870   7.6790255  18.7713194  80.3408146  10.8437681
  18.7395787  81.2878799  10.9790123  18.6549222  80.2295876   9.9002045
   9.9515277  95.3926945  17.1057820   9.2377979  95.8995056  16.7185211
  10.0142765  95.7155800  18.0046940  50.6004763  48.0079985  27.4010038
  49.7446394  48.0346107  27.8288698  50.6428862  48.8221216  26.8993735
  22.3749900  81.7647648  28.1700802  21.6918874  82.4158573  28.3303428
  23.0180073  81.9168091  28.8626432  95.8468915  51.1211438  84.8259479
  95.0182498  51.5469785  85.0456065  95.9220231  51.2186189  83.8766926
  38.7273932  92.1332550   9.3352592  38.3241796  91.4772034   8.7667137
  38.4027338  91.9233799  10.2109206 113.1408406  19.4341893  92.4406048
 112.3539854  19.2252584  92.9440331 112.9663063  19.0839381  91.5670517
   9.4672428  10.7106347  74.2764288   8.6911427  10.7319922  73.7165695
   9.9747120  11.4778609  74.0117222  49.1362047  80.3796101   8.3369994
  48.3176661  80.7585430   8.0166352  49.7915697  81.0600567   8.1830233
  84.3180550  61.0699220  75.1234478  83.8169611  60.2704473  74.9623090
  83.6762620  61.7753835  75.0418645  73.1595230  91.6829491  13.8380551
  73.4264421  91.7762089  14.7525430  72.8594112  92.5562000  13.5858941
  13.1190811  36.4128537  89.4753116  12.8752075  36.7358346  88.6078757
  12.5740563  36.9161172  90.0802177 113.8053568  55.2832365  21.5787935
 114.4766354  54.8059607  22.0664668 113.3093496  54.6020269  21.1247468
  80.2646507   0.6129122  36.5452981  81.0344518   0.5077601  37.1043849
  79.7372402   1.2787009  36.9866490  33.2722460  11.3827748  77.2419804
  33.7968336  11.3280292  76.4432055  32.3694836  11.2719245  76.9437116
   1.2742363  29.6533628  92.3180541   2.1662937  29.6406980  92.6648979
   1.3335692  29.1817231  91.4872318  34.8718476  86.9425488  20.4821706
  35.0011706  87.1544361  21.4066219  33.9824915  87.2400379  20.2904010
 110.0093759   4.8198844  40.5970335 110.8917345   4.8402549  40.9675169
 110.1109232   5.1812220  39.7164941  44.3391752  87.4990463   3.5661444
  44.3619633  88.0012226   4.3807220  44.1002083  88.1397820   2.8963804
  26.0054432  40.5969377  89.0664631  26.0182511  41.1620660  88.2939958
  25.1561581  40.7673020  89.4738036  54.4844533   4.1528273  11.4483333
  53.9970721   3.4423972  11.0312355  54.1495563   4.1790534  12.3446524
  95.3020633   1.1917544  43.8463163  94.3752063   1.4189006  43.7716675
  95.3882755   0.3734923  43.3571959  35.7163273  52.4398465  75.6958383
  35.5689942  53.2714124  75.2452630  34.9199187  52.3007150  76.2082928
  20.7678580  74.6020174  18.3501911  20.0070333  74.1771078  18.7462044
  21.4537549  73.9347458  18.3730555  66.1488724  59.3620300  15.3122997
  66.0707760  59.6203566  14.3939328  67.0888376  59.2431879  15.4485786
   6.8728834  83.4796429  12.8492212   6.9221210  82.8127193  12.1643674
   7.0708287  83.0074883  13.6579990  51.1109829  81.9990826   7.5479054
  50.9923077  81.9184971   6.6015160  51.7959404  82.6601887   7.6479644
  81.3809360  17.1002436   7.0890963  80.4623808  17.3580981   7.0116705
  81.8671764  17.9215861   7.0169395  19.8194814  86.8756294  26.7324471
  20.6463027  86.3939667  26.7569923  19.4768178  86.8088055  27.6237106
  69.6840477  70.4377222  14.4131577  68.9631605  70.1492453  14.9729192
  70.3392649  69.7441673  14.4899762  22.9323983 107.7718067  28.1630373
  23.4396362 107.8390980  27.3540783  22.1833920 107.2227764  27.9311275
 111.2723947  59.5686288  91.4296415 112.2000791  59.3448968  91.3549569
 110.8666731  58.7863202  91.8032893  29.2016159  20.9248061  92.5428879
  30.1445996  20.8311553  92.6779718  28.9232622  21.5437360  93.2179245
  61.0957874  17.3705054  25.7869387  60.5880035  16.6422892  25.4290342
  61.7691005  17.5397063  25.1279593  50.9311451  16.3484908   9.5966911
  51.4454282  15.5412150   9.5903975  51.5831019  17.0481349   9.5556366
 103.3635677  16.1317874   6.2916183 103.8939775  15.9647132   5.5125302
 102.5954879  15.5709506   6.1832476  38.1823301  96.2714863  19.3205428
  37.2285986  96.3336277  19.2679334  38.4868336  97.1737957  19.2238736
  61.7210245  95.8728790  29.6992397  61.5551996  94.9504948  29.5044231
  61.9974947  95.8781815  30.6156278  52.0559120  91.1635303  34.4081736
  52.3539686  91.9917107  34.0320015  51.6448164  90.7025242  33.6769414
  65.0149788   8.5815001   1.5825367  64.4463648   8.3392001   0.8516464
  64.5118846   8.3517314   2.3637760  40.0820303 104.5905781  30.5160284
  40.2211475 103.6455154  30.5770683  40.6825829 104.8771286  29.8279476
  20.0388360  95.1638603  23.2631063  20.4929948  94.4113636  22.8840041
  19.7545350  94.8622608  24.1259170  58.2311916 105.8187389  29.2268348
  58.2433367 106.7747879  29.1815233  59.0356684 105.5908012  29.6927643
   9.6565663  13.0716605  67.8249079   8.8445507  12.6862283  68.1539970
  10.2873980  12.9421039  68.5330778 104.0070082  58.9608617  91.2827465
 103.1665398  58.5194821  91.1601427 103.7947727  59.7428842  91.7922801
  73.6280680  97.7138233   2.5132629  74.2149305  97.2484875   3.1093240
  72.7596474  97.6092815   2.9020399  52.4029875  92.1625900   3.6204836
  51.6942263  92.3444366   3.0033788  53.1753588  92.0395088   3.0686390
  64.3893194  85.1258373  15.3279543  64.9430227  85.9056950  15.3662276
  64.8817253  84.4587803  15.8062792  52.1085596  74.2847395   6.3512349
  52.8344154  74.6774769   6.8361288  51.8345404  73.5424185   6.8898517
 105.7227517  62.2439332  78.6651796 106.1107589  61.5245290  78.1670445
 104.8324324  61.9494863  78.8571733  31.6725183  92.8882885   6.5343839
  32.2467518  92.6677799   5.8009911  30.8224869  93.0608654   6.1295408
  10.7008730  53.1664796  77.6915794  10.6179797  53.8619370  77.0391267
   9.9822031  53.3253045  78.3035594  35.8948874  94.1860008  13.5664439
  36.0354018  95.0437927  13.9672899  34.9733996  93.9903545  13.7361944
  97.0577396  43.4333945   2.9234639  96.9563211  43.1025267   2.0310120
  97.6377834  42.8017188   3.3486253  37.6329041 108.6671066  24.0267467
  37.9203010 108.0376720  23.3653474  37.6165318 108.1666470  24.8425317
  31.6777086  83.3842945  15.7433879  32.2711492  82.8110886  15.2581060
  31.4488459  84.0743923  15.1208067  53.1754303  91.8536949  17.6762044
  52.6142406  91.0788727  17.7070749  53.7474823  91.7052555  16.9232416
 105.8937801   0.7856894  11.6159952 106.2020744  -0.0830507  11.8738353
 105.2803529   0.6194640  10.9002411  19.8531592 102.5041199  13.5421586
  20.5483198 102.5866795  12.8893435  20.2083278 102.9254341  14.3248355
  42.1170698  59.4133897  88.5344153  41.2404333  59.0326066  88.4820086
  42.0070921  60.1939340  89.0774447  15.2542698  99.6082497  42.5610113
  14.5928693  99.8338032  43.2151556  15.6739902 100.4416180  42.3475552
 104.1090513  46.1892743  67.0505434 103.3467031  46.7224069  67.2759944
 104.8046447  46.8249841  66.8824631  42.5971222  99.6618080  15.0600684
  42.6856947 100.1404858  15.8842361  43.4975481  99.4828224  14.7890866
  81.0678709  21.7676110  94.7233985  80.2947454  22.0423026  94.2303937
  81.1565871  22.4235959  95.4148036  45.1698494  81.9902039  16.6513193
  46.1166430  81.9040012  16.7625976  44.7978497  81.5519428  17.4166751
  51.7154217  87.1627522   4.5956907  51.0050392  87.1987152   3.9551470
  52.2106934  87.9687214   4.4495809  23.9881802  96.7517853  21.4856982
  24.6164250  97.1122265  22.1115017  23.1849551  97.2492886  21.6391730
   6.1723982  58.3913178  92.5202352   6.0895525  59.2875810  92.8459443
   5.3214966  57.9915090  92.7000931  66.7925024 106.9736290   7.2795558
  67.0354557 107.4506760   6.4860630  67.0567894 106.0701084   7.1062118
  40.9436560  91.8143559  35.7836604  41.6855955  92.3911381  35.9655166
  41.1156130  91.0309505  36.3061047 110.0164820  57.1098657  88.9875263
 109.9235845  56.9417996  89.9252659 109.1573168  56.9014878  88.6205834
  15.6772387 104.7630501  37.6496887  16.1671782 105.5545044  37.8728437
  15.9212768 104.5780182  36.7428064  21.4072990  99.1610718  31.3220239
  22.2459412  99.4537830  30.9653306  20.9998608  99.9581623  31.6609430
  27.7044559  88.1027794   0.0163884  28.0163884  89.0042686  -0.0627452
  27.2630453  88.0757236   0.8653028  39.2483664 103.0160904   6.2011117
  39.5588446 102.5746727   5.4105532  39.9290943 103.6591530   6.3993937
  12.7119528   8.2770677  82.9130584  13.5377060   8.7245507  83.0977696
  12.9631888   7.5188060  82.3856562  43.6297417  79.6242714  11.8334818
  42.8269291  79.3459320  12.2742248  44.1582346  80.0205517  12.5262225
  46.7553456  18.1983805  10.5087149  47.5091435  18.5758830  10.9620464
  47.1340520  17.7225161   9.7695440   2.2966032 106.9256496  36.3567638
   2.1597970 107.8122520  36.6906261   2.7019140 107.0526314  35.4989576
  38.8563752  95.8141613  47.7164173  39.1300893  95.8872700  48.6307287
  39.6719551  95.8622551  47.2176695  88.7620760  69.2786069  92.7064460
  88.1681229  70.0042386  92.8985506  88.1868804  68.5646958  92.4312854
  47.2517586  88.7286377   2.4233980  47.5859213  89.4700718   2.9282165
  47.0232868  88.0734539   3.0827668  91.2455273  92.5300789  24.8193359
  90.8900356  92.2818947  25.6727195  92.1510124  92.7816868  25.0010610
  23.8754058  95.6124496  30.1666641  24.4117379  94.9536800  30.6077957
  24.5083761  96.1910820  29.7415018  24.0751410  90.4410744  33.2808995
  24.5141268  91.0699368  33.8536549  23.4410167  90.9649944  32.7913880
  36.9281769  84.0273762   0.3849586  37.5214577  84.7757339   0.3200740
  36.0524845  84.4116306   0.3432038  27.6835418 101.9226360   4.3020535
  27.0112777 101.2628555   4.1318110  27.8541589 101.8538952   5.2414125
  18.3072459  40.6497617  91.4328778  17.3685013  40.5502076  91.5912437
  18.4123455  41.5685029  91.1857265 101.2558318  23.1397386  55.4312426
 100.9680057  23.7744803  54.7751218 101.7087103  23.6654658  56.0905915
  11.0840678  93.4712505  24.0831208  10.3962135  93.7763023  23.4914851
  11.6067731  94.2521095  24.2655253  41.9303608  96.7377472  11.4787579
  41.4827919  96.0644627  10.9663165  41.2780476  97.0259190  12.1172523
  46.5547497   8.3980513  15.5052745  45.9419210   9.0929557  15.7456601
  46.9700946   8.1488276  16.3308692  84.1676248   1.6124202  14.1799867
  84.2156376   2.0114089  15.0487459  83.8769067   0.7153369  14.3441510
  13.9667403  49.7719045  69.8751932  14.0178524  49.6461625  68.9276677
  13.0944382  50.1378388  70.0215322 101.0380817  48.3584352  93.7011634
 100.3339864  48.2528253  93.0613765 101.2007619  49.3014092  93.7248207
  59.3713999  84.7098446  25.7682037  59.9806309  85.3872013  26.0618925
  59.7373724  83.8940525  26.1099339  35.7636118  71.7526913  15.8806586
  35.2514672  72.1133995  15.1568997  35.1834297  71.8157053  16.6393745
  50.6658030  90.7466316   6.0110551  50.7158852  91.4773560   5.3948069
  51.4726782  90.2532387   5.8636063  28.7845063  89.1967010  38.5360456
  29.0967488  89.1023540  37.6361370  27.9786181  89.7072220  38.4576631
  30.8047891  79.6028948  28.2190251  30.4646444  79.6519518  27.3256445
  30.2946687  78.9059019  28.6315942   9.6463858  62.2256036  82.0787078
  10.0786005  62.9040666  82.5974554   9.4253718  62.6588388  81.2542730
   8.1114680  72.4500036  32.9557729   8.9320344  72.9112911  32.7822328
   8.3557540  71.5246487  32.9722404   2.9905885  92.3621655  18.1898355
   2.8446487  93.0524921  18.8366592   3.0210191  91.5550995  18.7036037
   5.2271634 105.6820488  26.5124106   5.9369785 105.4072666  25.9319901
   4.8472440 104.8630810  26.8305039  19.6574998 103.9024258  24.3047905
  19.3534100 103.6311722  25.1709223  20.6108165 103.9343452  24.3847919
  96.6974462  11.9960833  25.0719857  97.4120201  12.6329375  25.0662971
  96.9678987  11.3383532  25.7126760  18.3768141  87.6792049   9.6612364
  18.7952244  88.0815792   8.9001441  17.9642045  86.8871212   9.3168736
  86.3302625   5.3063536  36.5041804  87.0252718   4.6495391  36.5464544
  85.7103361   5.0432063  37.1843863  18.5299838 108.6334896  35.8991575
  18.1504107 108.8393593  36.7534256  19.3514132 109.1244221  35.8774590
 106.3024963  13.0929423  71.5620136 106.1414970  12.9474688  72.4942923
 107.0838512  13.6453009  71.5372276  92.8623308  23.0814124  62.7762127
  92.5464977  23.3424998  63.6412668  93.7535204  23.4279013  62.7319860
  22.4338757  54.0672059  88.4567863  23.3500372  54.2743249  88.2724559
  21.9367777  54.6356053  87.8685325  38.0278826  27.8847027  14.4192767
  37.9730248  26.9522429  14.6284270  37.1777844  28.2390666  14.6800268
  46.5317869  30.2515388   7.6731420  45.9565163  30.5372119   6.9634342
  47.2593927  30.8732677   7.6566577  47.6198435  48.3057117  41.5808201
  46.9078064  48.4831858  42.1954203  47.4457073  47.4202156  41.2617493
  43.4190607  58.9966917   3.5739610  43.6775112  58.6978292   2.7021140
  44.2355061  59.0130234   4.0733472   3.1712185  13.1709523  94.6361897
   3.6213051  13.0180736  95.4670217   3.3438622  12.3824925  94.1216420
  72.7115929  92.6807660  84.7504240  73.3489859  92.0436568  85.0729996
  71.8696534  92.2296066  84.8122650  11.5281677 107.4377251  19.5380056
  11.5400338 108.2859039  19.9815083  12.2386312 107.4917126  18.8988197
  45.9782887  80.9031868  13.0406094  45.8003712  81.6088676  13.6623740
  46.6901255  80.4044628  13.4416008  33.7576437  67.8029871   1.2390894
  33.3553553  67.5957680   2.0825678  33.0900741  67.5736761   0.5925602
   5.1753317   1.2771602  84.5946890   5.7979952   0.8664413  85.1945495
   4.3659388   0.7798476  84.7121578  38.4075499  43.8069010  25.0458550
  38.7781596  44.5413160  24.5564508  37.7978420  43.3946037  24.4338894
  64.7403765  75.5146742   3.8679010  64.7690725  76.4267921   3.5790244
  64.0684795  75.1105642   3.3188286  54.0066195  99.4402218  20.6393504
  53.6011648  98.5904503  20.4669571  54.3627357  99.7117233  19.7933614
 107.4097277  12.4035115  76.3876921 107.3877741  11.5196271  76.0209602
 108.1130339  12.8435273  75.9102219  53.6444807  65.4573679  14.7339118
  53.3444786  66.1188936  15.3573036  52.9077339  64.8514462  14.6545839
  46.5434408  83.9045048  13.8039792  45.7907152  84.3591213  14.1820836
  46.9029045  84.5237446  13.1687152  39.3669915  30.5427504  14.5183182
  38.6333060  29.9356031  14.6148002  39.1135907  31.1109734  13.7908971
  52.0587254 101.1048222  21.1407852  52.7784634 100.5137348  20.9198213
  51.8832541 100.9331608  22.0659733  17.2505938  17.9864593  88.5295611
  16.5783869  17.3058839  88.4950822  17.2105538  18.4064002  87.6703298
  29.6974993  74.8849392  17.6820040  29.6273088  75.5459690  18.3707321
  30.2871537  75.2738047  17.0359981 109.0364767  14.6684070  55.9935313
 108.2229782  14.3078227  55.6407863 109.7035910  14.0202422  55.7675463
  17.0961106  84.0674019   0.9204236  16.7746639  83.2264614   0.5952575
  17.9729223  83.8761234   1.2533633  97.9783011  15.6594796  77.8745585
  98.8121105  16.0993285  78.0404693  97.6822306  15.3735395  78.7387424
 115.6772924  31.2648721  91.8289089 116.3437653  30.5784745  91.7988252
 116.0282541  31.9638391  91.2770951  20.3744078  65.0925541   8.3897507
  19.8408413  65.0771618   7.5952053  21.2032557  64.6906853   8.1294787
 115.1462103  13.3802886  77.2240013 115.4131390  13.8876863  77.9905051
 115.2201296  13.9938254  76.4930182   1.5271759  24.8693657  37.0597339
   1.8658227  25.5194283  36.4441323   1.2531936  25.3805399  37.8212237
  10.8964396  35.0660610   9.7682059  10.8742881  35.9351230  10.1687956
  10.4512787  35.1780820   8.9282566  59.8080194 106.9000525  73.8468843
  59.6434676 106.0100788  73.5352736  59.5159876 107.4627537  73.1297260
  26.9226586  13.9741750  93.6882081  26.8647705  14.4189353  94.5338262
  26.5648781  13.1015201  93.8515794 112.6742483   5.0703807  82.7424902
 112.2774006   5.9270711  82.9000634 111.9740725   4.5511670  82.3470121
   5.7257830  49.4994206  83.0220860   6.3778960  49.0584416  83.5666257
   4.9093949  49.4216294  83.5157329 112.1118843  95.5500454  92.1429181
 111.6115486  94.7757525  91.8852994 112.9702151  95.4263062  91.7377209
  16.7022692  31.7565675  69.9159342  17.3581253  32.2531457  69.4265610
  16.5556656  32.2708554  70.7098132 114.5131589  36.3641686  76.2332278
 113.7398363  35.8007283  76.2061220 114.6617747  36.6109986  75.3204196
  22.4449897  50.8867645   1.3622935  22.3118782  50.2896261   2.0984557
  22.9988933  50.3973961   0.7540669 102.0200778  30.7842679  49.1474467
 101.7398811  30.9973664  48.2573300 102.9404260  31.0455556  49.1778499
  13.4269415  41.7717786  90.0814831  14.1481959  42.2981401  89.7365755
  12.9711615  41.4508672  89.3033355  15.1774346   5.2101893  79.8966723
  15.9503638   5.2598043  80.4591232  15.3644692   4.4890733  79.2956406
  50.6456232  54.1553736  28.2000852  51.4856815  54.2746353  27.7570128
  50.4520035  53.2233667  28.0995488  17.6399851  44.1357613  13.5078979
  17.2223592  44.6055174  12.7859914  17.2890508  44.5484638  14.2970455
  22.6087761  67.5621462   7.3988730  21.8146873  67.2594643   6.9583732
  22.3959422  68.4472084   7.6948434  43.4966898  26.1726499  11.9470823
  44.2812157  25.6611490  11.7493057  43.8310957  27.0189929  12.2439146
  65.1528025  97.8422737  24.7150922  65.9296274  97.8091049  24.1568136
  65.3157187  97.1848774  25.3915000   8.9802468  53.5529280   6.4204317
   9.4655973  54.0185118   7.1015334   9.3491071  52.6696634   6.4247561
 113.5455371   6.7321677  73.8552624 113.2446528   7.4720426  74.3827945
 113.6353541   6.0130067  74.4805389  92.9143084  54.7801251  79.2157870
  93.1057239  54.9685998  78.2970530  92.9097963  53.8243814  79.2683238
  25.9436345  51.1104679   2.6318023  25.4284096  51.6811466   2.0616262
  25.3126574  50.4729652   2.9659981  40.2590704  75.1454020  15.9353137
  40.4475689  74.2072058  15.9132814  39.6050620  75.2744961  15.2484107
  12.8290211  31.6258760  48.5015565  12.1335160  31.8458123  47.8817731
  12.4101864  31.0425992  49.1344815  72.4856651 104.6757073  75.6866878
  72.9490912 105.2595085  75.0861460  72.6104104 103.8022370  75.3155869
   8.2571493   0.8692498  79.4503480   9.0771471   1.2985606  79.2063552
   8.5228096   0.0025983  79.7578782  40.8167076  99.8836803  12.7158558
  40.2777290  99.2323685  13.1647742  41.3690805 100.2533436  13.4046698
 112.3352682 102.5214905  63.2500988 111.5671456 101.9538588  63.3134705
 112.8694308 102.1256680  62.5614601   7.1370530  66.1147928  27.2896051
   6.3001150  65.8996582  27.7012897   7.3991305  66.9403934  27.6969433
  28.8391709  82.6061726  16.8901193  29.0383124  81.9343948  17.5422597
  29.6909285  82.8449249  16.5244150 112.3561598   3.3450980  79.5369118
 112.2269107   2.6511664  80.1834291 112.4917222   2.8807111  78.7109595
  92.2136497  65.1925611  45.7791805  92.5761127  65.9150887  46.2918234
  92.1417904  65.5416203  44.8907995  16.1159264   9.8996873  73.4033257
  16.6587673   9.3515248  72.8366929  15.5979477  10.4304881  72.7981955
  60.9522855 104.9274535  91.6010752  60.9526431 104.1512961  92.1612632
  61.7322409 104.8290533  91.0549834  28.4301448  37.3071313  23.9909554
  28.9526772  37.9229808  23.4772205  28.8497663  37.2964358  24.8512077
  18.3557974  48.4116216  93.0240948  19.3007122  48.5564370  93.0730530
  18.0779969  48.3326097  93.9366826  94.8270226  23.3724494  58.8787347
  94.8230971  22.4168868  58.9344984  95.7378889  23.6180825  59.0406638
  81.8548203  23.2703948  11.7836535  81.0806942  23.3171296  12.3447037
  81.5299606  23.4841132  10.9089959   1.8931717  51.3943434   7.1014851
   1.1538915  50.9906292   7.5561368   1.5791006  51.5306997   6.2076181
  50.9852028  62.1339750   6.9830382  51.7706919  62.6263523   7.2213638
  50.2677298  62.7569294   7.0987701   2.8281543  49.6347141  14.7558522
   1.9350982  49.2909670  14.7330260   2.7361059  50.5169058  15.1157033
  93.6992730  10.4418178  82.1468216  92.8314973  10.0658937  82.2947281
  94.1256870  10.4042001  83.0029684  64.6991777  79.7618389   9.5879227
  63.8109303  79.5509624   9.8756397  65.2627993  79.4257069  10.2847588
  43.7402344  72.0460129  15.3084302  42.8408194  71.7668915  15.1370549
  43.7118864  72.4173355  16.1902153 107.8374363   5.8435292  90.0560981
 108.3682609   6.4459462  90.5772021 107.9000617   5.0077767  90.5185148
  89.3187297  32.9688687  94.9690733  89.5058287  32.3454042  95.6708721
  90.1589955  33.0914826  94.5273156   3.5045658  39.5096154  61.5982204
   3.0061899  38.7612958  61.9266635   3.0898129  39.7256322  60.7630259
  61.4267838  66.2844009  92.4516022  61.2070358  66.4156443  91.5292585
  60.5812514  66.1690802  92.8852029   9.5658909   5.6723208  69.1475445
   8.9096724   6.3356252  68.9339262   9.2180191   5.2323289  69.9231893
  36.5521383  74.4604063  17.1420503  36.2352800  73.5581684  17.0996034
  36.8719792  74.5599985  18.0387199  98.6830879  44.7384877  53.1617051
  98.4202171  45.6571431  53.2183248  97.8832246  44.2483182  53.3519488
  33.5365796  70.3986216   0.3612585  34.2592573  70.9858179   0.5829893
  33.8023829  69.5486021   0.7120359 108.5276867  37.4778314  88.9215767
 108.0251623  38.0191846  88.3127719 109.4375397  37.7388902  88.7792617
 107.4662305  35.1893468  87.4757260 108.3895636  35.4214902  87.3767590
 107.4627067  34.4980283  88.1377721  94.1053867  43.5676575  43.4342241
  94.4396114  44.3752861  43.8244295  94.2200470  42.9065275  44.1168594
  17.9954398  39.7163033  45.8537769  18.6109114  40.2681637  46.3363457
  17.5326955  40.3226471  45.2754688  60.5654287  81.1373329  13.8840854
  59.7726393  81.1182404  13.3480310  60.9403372  82.0038319  13.7264276
  22.7747273  50.7494402  14.9069107  22.7731133  49.9701357  15.4627097
  23.6766028  50.8183765  14.5936990  40.8709145  59.4658613  21.2956643
  40.9332132  58.5275984  21.4745927  40.8351660  59.5257807  20.3410101
  20.4219484  40.2927589  14.6504152  19.6381557  40.8260870  14.7825491
  21.0044861  40.5411720  15.3681695  30.9569621  61.5063906  19.3786800
  30.2657747  61.1514091  19.9376822  30.6934357  61.2663984  18.4903157
  97.3081029  33.8094850  94.9440852  97.5121809  34.4697900  94.2818293
  96.3964499  33.9808602  95.1802043  32.7619301  34.3560643  85.2900713
  33.3281313  33.5909791  85.3915435  31.8743931  34.0124364  85.3921741
  85.0970554  88.4944820   9.5406747  85.8098412  88.0594635   9.0727782
  84.7721291  89.1513729   8.9249289  89.8058569  94.8244972  83.4959894
  90.5005324  94.1689057  83.4338707  89.3887055  94.8138041  82.6345342
  54.5652294  40.2139664  15.8732820  55.4531717  39.8565054  15.8703709
  54.3649483  40.3653431  14.9495912  63.2792044  80.9971619  17.7013910
  62.7791786  80.6573200  16.9592953  63.0986071  80.3831959  18.4131885
  46.3969588 104.8706908  89.5163458  46.2648344 105.8143324  89.6075481
  47.3328566 104.7437376  89.6719390 103.4221078  43.7720628  71.4578491
 102.8569294  43.0035062  71.3795596 102.8931523  44.4939370  71.1182552
 110.1948644  48.1967111  56.5182239 110.7373763  47.9270024  57.2592860
 110.7318593  48.0106111  55.7480055 106.4216925  24.3877311  63.4243017
 105.5027915  24.1223617  63.4621602 106.4891005  24.9036260  62.6208478
  89.5708335  40.0651879  93.4072418  89.7018803  39.4455094  94.1249164
  88.8363553  40.6091638  93.6916058  83.0066408   0.9758563  91.3746157
  83.2819391   1.8916888  91.4157459  82.8384949   0.8177896  90.4456520
  17.7853953  17.9878850  93.1674495  17.7919947  17.0452066  93.0014807
  17.7853905  18.3844657  92.2962695  16.1482607  38.0436940  87.5724566
  16.1525379  37.5748487  86.7379522  16.6800343  37.5011201  88.1547433
  49.4554793  40.0090261  59.0863114  49.1668879  39.2402978  59.5782405
  49.8812376  39.6494241  58.3080774  38.7942386  92.8141594   1.8528840
  39.3542194  93.5898781   1.8829906  37.9988432  93.0747700   2.3172735
  43.6573553  53.5842562   3.5309216  43.5745382  54.0676498   2.7089095
  44.3737268  54.0191746   3.9934072  16.9583975  53.4420915  89.2438841
  17.8078495  53.7764878  89.5317060  16.3193785  54.0154786  89.6671009
  51.3365519  95.8358282  77.3785370  51.1652064  95.6734938  76.4508945
  51.1129737  95.0117773  77.8111869  32.0636535  33.8719606  13.6798060
  32.7656889  33.2350087  13.5468757  31.4497137  33.7044430  12.9647911
  30.7817316  70.3105640   6.8339473  30.4605269  69.4161177   6.9480729
  31.4916611  70.2306509   6.1968857  41.2934208 100.2846813   1.5979712
  40.5348635  99.8002529   1.9237936  40.9198666 100.9712505   1.0454302
 104.2205931  70.8289189  81.8175512 103.8371039  70.1390691  81.2760025
 103.6615134  70.8626885  82.5937730  31.1964178  48.4364462  35.7956672
  31.4034486  49.3067503  35.4551721  30.4216766  48.1647730  35.3035259
  61.2069798 102.0429897   5.5071551  60.9504890 101.1221313   5.5567402
  61.1014748 102.3694611   6.4007533  13.6997187  60.2712297  14.4286251
  13.2233703  59.5112705  14.7629702  14.2026961  60.5877638  15.1789939
   3.4470150  81.0942078  11.3001537   3.7621462  80.1931572  11.3710380
   2.5216275  81.0070133  11.0714900 116.0183335  22.8368373  62.4676400
 116.0734797  21.8991036  62.6516109 115.0868822  23.0422778  62.5478178
  58.3778811  55.5474138   9.7634542  59.2573547  55.9241009   9.7341830
  58.1465864  55.4074478   8.8452244  38.1838417  90.0504017   7.5337851
  38.4638834  89.3003368   7.0091730  37.2282910  90.0375366   7.4791104
  91.4626885  37.0853658  92.7368861  91.4109970  36.1656613  92.4766984
  91.1038268  37.5658650  91.9908502  30.4489779  40.4436922  11.9353759
  30.0158095  39.6783018  11.5575242  29.7542739  41.0974503  12.0142603
  94.3384040  33.3832879  90.0966739  94.8513473  33.2203717  90.8882418
  94.4506062  32.5910707  89.5712858 114.2312694  21.5662522  71.4831477
 115.0574566  21.3987441  71.9365698 114.3660880  21.2161489  70.6025320
   1.8345724  24.0285773  85.7249564   1.3001667  23.9643807  84.9334270
   2.4656330  24.7220321  85.5322921  88.6252798   0.2497054  34.0951633
  88.0330862   0.9896041  34.2296433  88.2855905  -0.4364347  34.6696615
   2.5620538  70.9836006  11.0543358   1.8143336  70.3938961  10.9574163
   2.1907330  71.7812252  11.4313591  29.7241759  72.1063328  10.6511927
  28.9296556  71.6480255  10.3774667  29.9197054  71.7500019  11.5178108
  54.3958616 100.3525066  17.8305399  53.8172817  99.9321938  17.1942902
  54.1421461 101.2752819  17.8119969  30.2906132  56.1086273   7.9366058
  31.1500764  56.3006067   7.5615066  29.7790337  55.7695341   7.2020769
  21.2763238  69.5761395  17.8878105  20.9067416  69.9134064  18.7038314
  21.5491867  68.6833906  18.0994260  69.6096134  87.1446800   3.5894582
  69.7430182  86.1988735   3.6518341  69.9358034  87.3757267   2.7197164
  20.5212723  43.3783383  95.0984444  19.7983776  42.9490991  94.6408398
  20.6601273  44.1931863  94.6157601  15.8682667  72.1666665  91.5194261
  15.2207314  72.1715684  92.2243419  15.8604275  73.0619283  91.1807701
  71.4300442  56.2259722   4.9377352  70.9260178  56.0013580   5.7198715
  70.7804012  56.2592649   4.2355317  50.7250786  71.0456419  18.0401862
  51.3532305  71.6965103  18.3532774  49.8697805  71.4530897  18.1768811
  85.2171809  26.3624806  87.0327800  84.6771289  27.1518559  87.0710450
  85.8255912  26.5232606  86.3115173  22.7514005 109.4820213   4.5495206
  22.5823307 109.8021126   5.4356283  23.3686447 110.1136780   4.1803885
  54.5874500  53.5590267  10.0414062  53.9423704  53.2254839   9.4178295
  54.5593166  54.5092916   9.9298763  13.6362660  51.3378191   4.6279669
  14.0852058  50.7951021   3.9797837  14.2436850  52.0573378   4.7999248
  98.3232261  10.2004952  64.6960908  98.3048535  11.0062308  65.2125031
  97.4050451  10.0292249  64.4867021  10.6666027  39.5940442  77.8106421
  10.1578699  39.6131558  77.0000511  11.3774000  40.2176900  77.6620739
   5.3941046  42.8662248  87.7799308   5.3117787  43.4725232  87.0438152
   6.3079964  42.5826116  87.7555662 110.3802348  21.0528655  88.4304386
 110.0670219  20.1547236  88.5375309 111.1927653  21.0849805  88.9354104
  55.0882769  91.5304470   8.5628545  55.4047346  91.5234852   9.4662035
  55.8824635  91.5844440   8.0312675  19.5022058  75.0081158   6.4669067
  18.6212146  75.0194263   6.8410170  19.4545782  75.6095219   5.7237560
 109.6418812  58.0069494  11.3935232 109.2450084  57.6570034  12.1911824
 109.0148326  57.7962494  10.7016802  53.3192492  89.8181725   4.9987608
  53.3730316  90.7667065   5.1154327  53.9851046  89.6197033   4.3403670
  11.9906937   8.7091250  92.4510559  11.1342417   8.6213393  92.0327094
  12.5470911   9.1007848  91.7778104  42.2576571  67.9264116   9.0475667
  42.1204042  66.9856167   8.9366800  42.7228308  68.0040598   9.8805249
  60.6015635  69.2845440   7.2092295  59.9759197  68.9349794   6.5747184
  61.3989449  69.4348860   6.7014802  22.2609936  22.5845475  76.7260188
  22.3260676  22.8710027  75.8150083  21.9614970  21.6770787  76.6709393
 111.6004073  89.2149925   9.6842265 111.5569144  90.0283813  10.1869678
 111.8501224  89.4914722   8.8025028 104.5068813  21.9785018  83.1451136
 104.1064263  22.6762958  83.6637181 105.3568126  22.3323865  82.8831738
  15.4563129  95.5019569  22.0685101  15.5070782  95.7812786  21.1543798
  16.1131608  96.0335159  22.5182080 100.6721474  56.3853974  84.8680025
  99.9692012  56.8935914  84.4632262 101.1166597  55.9634824  84.1327292
 105.1270295  18.1754441  93.6419673 104.4156195  18.5304160  94.1749997
 104.6851111  17.6903768  92.9450843  34.8104988  42.9581494  87.9497570
  35.4588591  42.2771783  87.7704948  34.0105568  42.4772973  88.1621069
  10.4520356  29.4473691  67.9578405   9.9422537  29.4521279  67.1476990
   9.8872124  29.0081353  68.5936671  20.9448123  83.0691528  12.6748836
  21.2381601  82.6507854  13.4842944  21.3177514  83.9499474  12.7117395
 106.2476362   8.0783416  18.0091512 106.2848819   7.1883345  18.3595002
 106.1078705   7.9602290  17.0696044  64.3648291  64.9504375   5.5616707
  64.2095184  64.1641951   6.0850590  64.0621901  64.7175264   4.6839499
 114.3861771  64.9097824   2.7836126 114.4274139  65.8629465   2.7060810
 113.5358620  64.7389841   3.1886068  18.8502133  51.6166210   7.3190331
  18.3218277  51.4840794   6.5319663  19.6147740  52.1055603   7.0147049
  31.8767858  86.3075638  25.2217293  32.0110106  85.3917503  24.9778152
  31.9009590  86.7826653  24.3911099  75.0766945  92.1938229  25.0519228
  75.4772091  91.4692783  25.5324030  75.1394701  92.9401875  25.6479311
  22.5317645  68.6576319   1.3722582  23.3121347  69.2095661   1.4234585
  22.1688461  68.8358641   0.5046429 112.0109797   3.2620997  76.6500884
 112.6611567   3.0021663  75.9974497 111.5893460   2.4423261  76.9078272
  39.3425165  38.0073781  78.5722428  39.8586689  38.8133187  78.5888880
  38.4460627  38.3004136  78.4087533   4.9769160  79.4514513  14.6978450
   4.0874755  79.6710968  14.4205654   4.8575720  78.9049435  15.4745781
   2.2235012  85.5712128   6.6064125   1.9394262  84.8936558   5.9928608
   2.8621429  86.0873032   6.1144549  81.4934838 103.8985819  93.4981967
  82.3510468 104.1235585  93.1373624  80.9249222 103.8184304  92.7323344
   2.4603628  59.6760511   9.5344055   1.5417594  59.4438887   9.3983948
   2.7215558  59.1767788  10.3081846  42.3011875  84.2788506  25.5049419
  41.8971682  85.1231480  25.3045154  42.8697681  84.1015053  24.7556090
  24.2197227 101.6845512  10.5673909  23.7678289 100.8511162  10.4354107
  24.7059321 101.8246651   9.7548652  87.9773485  96.3308853  64.8421794
  87.2079146  96.2922043  65.4102498  87.6188051  96.3665432  63.9553839
  11.6726719  13.8422198  89.0654397  11.1525713  14.5691628  89.4078940
  11.5497958  13.8856549  88.1171542  22.8811479  69.1187811  14.7321963
  22.0084381  69.4916773  14.8569179  23.4047699  69.4923306  15.4410768
 103.9968168 105.4291243  92.0569572 103.4416353 104.6646494  92.2105285
 104.5949423 105.1549858  91.3617396 112.7810932  42.7192636  55.9985906
 112.6243545  41.9422765  55.4619628 112.1434236  43.3601422  55.6841355
 102.7487231  62.9042764  77.8566319 102.1534635  62.6050706  77.1693402
 102.9163743  63.8226552  77.6451844  34.2697334  48.0716944   2.0192572
  34.6572471  48.1536770   2.8906611  34.6165156  47.2467184   1.6795671
  62.0763861  15.9446902  81.5855437  62.3141562  16.2473197  82.4619609
  62.2462736  16.6966767  81.0181969 112.0960380  16.1197801  78.2475477
 111.5993668  16.6257806  78.8905960 112.9815222  16.0770650  78.6085576
  46.3764620 107.8134632  18.0500042  45.9093523 107.8752232  18.8832045
  47.1739531 107.3266697  18.2580256  21.3457084  93.2335281  34.1659403
  20.5579329  92.7182579  34.3395519  21.7823458  93.2971001  35.0153732
  67.9102421  49.3257570  32.1244502  67.1074057  48.8764620  32.3886800
  67.7054930  50.2562237  32.2168469   9.5227181  18.6539216  77.1580487
   8.8284241  19.2267461  77.4837130   9.6156632  17.9822488  77.8336602
  88.9448370   0.1669646   8.3804178  88.5913862   0.6202079   9.1458416
  88.7444986  -0.7561826   8.5350192   3.7464987  56.3725419  71.8703013
   4.4260203  55.6989141  71.8435770   3.3605419  56.2889524  72.7422434
  56.6323042  20.2669835   3.8530928  55.6944466  20.1226830   3.7272891
  56.8369579  21.0149097   3.2918823  47.3900414  45.5239344   5.0559688
  46.4640617  45.7593870   4.9979949  47.8510380  46.2677002   4.6679917
  31.8447042  84.1786575  11.9256556  31.1330891  84.1453266  12.5649714
  31.7226219  85.0141144  11.4747190  17.3457277  99.5386124   1.3860734
  18.0088866  99.1378784   0.8240595  16.5116990  99.2475700   1.0174000
  17.2399342  59.6973753  36.7960978  17.2849464  60.4383707  37.4003625
  16.4836097  59.8867464  36.2408113 103.3882118  18.2326360  81.4980548
 102.9193712  18.1264014  82.3257822 104.2112542  18.6563106  81.7416435
 106.2862694 104.7463936  79.8250907 106.7173111 105.3283209  79.1991550
 105.5039894 105.2256388  80.0982052 113.5440970  21.2378497  50.2577144
 114.2852164  20.6335444  50.3000051 113.1558801  21.2023063  51.1319285
 116.4708843 116.4708843 116.4708843 109.4712190 109.4712190 109.4712190
