
39143  0.0000000e+00
  38.6972499  34.2753196  59.1037750  39.4596243  34.7257304  59.5895863
  38.2032847  33.6429691  59.7171497  37.9916477  34.9794912  58.9413691
  39.0342164  33.4906912  57.9726219  39.8971725  32.9294014  58.3308983
  37.9546690  32.4656129  57.6712656  37.1685362  33.0265546  57.1658564
  38.3922100  31.8822885  56.8610859  37.5897503  31.5645671  58.8525963
  38.5651636  31.0685158  59.4977236  36.3659430  31.5938544  59.2495823
  39.5716619  34.2722845  56.7405081  39.3030548  35.4966545  56.6578150
  40.2299786  33.6337161  55.8291483  40.3895330  32.6474357  55.9771252
  40.7534218  34.3492436  54.5989847  39.9900579  35.0607920  54.2842197
  42.0273495  35.0736761  55.0444508  41.7962027  35.5536580  55.9953928
  43.2290983  34.1520214  55.1120520  44.0800953  34.7570109  55.4249287
  43.0177546  33.3179402  55.7811928  43.3584785  33.7679172  54.1002131
  42.4175596  36.0490322  54.1276026  41.6707802  36.6201782  53.9334011
  40.8804512  33.3060861  53.3736658  40.8771420  33.6615300  52.1987534
  40.9551001  32.0065546  53.7579441  40.7601738  31.7294574  54.7094297
  41.5959740  31.0141063  52.8041029  42.5328970  31.4453840  52.4515772
  41.9027090  29.7239780  53.6927176  42.2363472  30.1639223  54.6325254
  40.9690762  29.1942286  53.8819075  42.7881718  28.8455558  53.1301975
  43.5133219  29.3246174  52.7224445  40.9297132  30.5459929  51.4691734
  41.5673304  30.5148983  50.4072046  39.5877171  30.4826427  51.3855362
  39.0368915  30.4637289  52.2319031  38.8523865  30.2192140  50.1254368
  39.4992757  29.4720030  49.6657419  37.5213027  29.5140505  50.3762245
  36.7718887  30.2518535  50.6628036  37.0619106  29.2019510  49.4383192
  37.5012445  28.3854437  51.4316273  37.8636956  28.8661838  52.3402643
  36.0509205  27.8817916  51.7533064  36.1361933  27.4628735  52.7559710
  35.3405237  28.7084913  51.7550087  35.6947803  27.0534682  51.1408091
  38.4730148  27.2195005  51.2628412  38.6027169  26.7624450  52.2438526
  38.0411696  26.4304519  50.6472015  39.3746948  27.7603483  50.9755135
  38.8168335  31.4270306  49.1672039  39.1264462  31.1566186  48.0105209
  38.6926198  32.6481962  49.6365595  38.0038142  32.9440880  50.8809757
  38.7000966  32.7388549  51.6940975  37.0828104  32.3839664  51.0425758
  37.5743484  34.4141412  50.9006453  37.7438235  34.8776174  51.8725348
  36.5260053  34.4541621  50.6048822  38.4096956  35.0099730  49.8318386
  39.2797089  35.4817963  50.2885199  37.8907895  35.8012390  49.2907906
  38.8520551  33.8958073  48.8924360  38.4274817  33.8356829  47.8903294
  40.3133345  34.1402149  48.4111500  40.5796623  34.5053625  47.2824001
  41.3016510  33.8249803  49.2540026  40.9637260  33.4568739  50.1317310
  42.7277374  33.9278817  48.9943218  42.9574823  34.9717331  48.7805605
  43.4920311  33.6538982  50.2756596  43.2275438  32.7045345  50.7413387
  45.0456429  33.7093472  50.0861502  45.2735281  34.6345925  49.5569181
  45.6404972  33.7737823  50.9972525  45.4211998  32.9076076  49.4503260
  43.1615925  34.6716547  51.2042236  42.2611618  34.5177317  51.4994049
  43.2651043  33.0150270  47.8659868  44.0096951  33.3756137  46.9882822
  42.9059458  31.7194581  47.9631805  42.2958803  31.4314246  48.7148190
  43.3532143  30.7006621  46.9973135  44.2927361  31.0070515  46.5373850
  43.6436987  29.3631649  47.7775097  42.7375174  28.9757586  48.2431841
  43.8590765  28.5277104  47.1113825  44.7357416  29.5121503  48.6449528
  45.5081081  29.3098927  48.1119108  42.3677588  30.4307652  45.8559179
  42.5110483  29.4624853  45.0464058  41.3122940  31.2542105  45.6905890
  41.3565159  32.1012998  46.2388468  40.1400280  31.1178613  44.7699499
  39.3290925  31.7336416  45.1589108  40.5941486  31.7076826  43.4012318
  41.4821339  31.1920166  43.0356264  39.8802853  31.4635301  42.6145363
  40.8845329  33.1675959  43.3281374  39.8996973  34.1095543  42.8988552
  40.5323458  35.2547383  43.0807018  40.0526571  36.2183571  42.9927540
  41.7182064  35.1062822  43.5894060  42.1552134  35.8887553  44.0550900
  42.0074606  33.8066745  43.7306261  42.7973270  33.2332277  44.1928720
  39.6160340  29.6855807  44.7875929  39.3900871  29.0445995  43.7750053
  39.3983984  29.0985894  45.9853315  39.4913864  29.7118020  46.7824650
  38.8657141  27.6917458  46.1817074  39.5160365  27.0392084  45.5991459
  39.0507030  27.2228193  47.6221466  38.3424473  27.7248383  48.2812786
  38.8823605  25.7482481  47.9334879  39.1531229  25.4590154  48.9489365
  37.8182912  25.5182433  47.8791332  39.4908738  25.0964546  47.3066092
  40.3759050  27.4366283  47.9959536  40.8229589  26.6080785  47.8082132
  37.4847722  27.4644399  45.6384563  37.0521712  26.2926435  45.5007648
  36.7009234  28.4869242  45.2948189  37.1114516  29.3992400  45.1560831
  35.4108524  28.3575225  44.5748234  34.7025156  27.7653551  45.1542234
  34.6109414  29.6922660  44.5193338  33.6041069  29.5004845  44.1483879
  34.5691180  30.1995277  45.4832077  35.2926946  30.7156110  43.5956240
  36.3269186  31.5444541  44.1378593  36.5775084  31.3782549  45.1751566
  36.9141150  32.5087523  43.3633375  37.6446509  33.2194471  43.7205887
  36.5237188  32.6874733  42.0038319  37.3043966  33.5107255  41.2798119
  38.1153846  33.8861942  41.6304159  35.5338454  31.8814182  41.4237690
  35.3204918  31.9607592  40.3680277  34.9186110  30.9343123  42.2853756
  34.1215944  30.3136754  41.9033098  35.7202482  27.6563096  43.1877089
  34.9386477  26.8020701  42.7787304  36.9312334  27.8657794  42.6447630
  37.5006771  28.5517263  43.1194353  37.4287176  27.1729159  41.4554358
  36.5882015  26.7255092  40.9249067  38.2486033  28.1101084  40.5599642
  39.1716886  28.3902836  41.0674238  38.4818697  27.5655890  39.6449852
  37.5379610  29.3575525  40.1117849  37.3924518  29.9941015  40.9845591
  38.5854268  30.1815987  39.2414880  39.5039535  30.3560853  39.8018217
  38.8516212  29.5585394  38.3876491  38.2005191  31.1300540  38.8668227
  36.2847066  29.0322304  39.3797159  35.4383898  29.0060568  40.0661325
  35.9635401  29.7073960  38.5865545  36.4445639  28.0894327  38.8565731
  37.9833055  25.7589436  41.7252016  38.4226847  25.0677443  40.7550669
  37.9953480  25.3852844  42.9963350  37.5558472  25.9935760  43.6722946
  38.5169268  24.0939474  43.4533119  37.9025555  23.5795832  44.1922855
  38.3781457  23.3857989  42.6363802  39.9896646  24.1121984  43.8378668
  40.7336378  25.0369716  43.4698963  40.3905821  23.1620955  44.6520758
  39.7576523  22.4615788  45.0109291  41.7199850  22.9341459  45.0907230
  42.0339155  23.8691425  45.5547619  41.7215204  21.8779635  46.1924362
  40.8765697  22.0755720  46.8520594  41.6826296  20.8591223  45.8070087
  42.6278257  21.8043041  46.7935085  42.6391554  22.4636483  43.9016819
  42.2747135  21.6406488  43.0422544  43.7615967  23.1350875  43.8487577
  43.9803123  23.8834000  44.4908524  44.7632933  23.0944395  42.7489758
  44.3962240  23.6325240  41.8750048  46.1535788  23.8727403  43.1643295
  46.5707016  23.4084678  44.0579510  46.8527651  23.7887454  42.3323584
  45.9095287  25.3838992  43.5411310  44.8565197  25.9843612  43.2289219
  46.8072748  26.0220861  44.1754293  45.1270294  21.5864730  42.3450184
  45.3615332  20.7115817  43.1992769  45.2656794  21.3495159  41.0309649
  45.0024939  22.1075106  40.4175472  45.6640768  20.0644970  40.3367233
  45.8245754  19.3017387  41.0986567  44.5571136  19.6214712  39.3481231
  43.7707424  19.2069149  39.9788880  44.2242861  20.5224013  38.8327026
  45.0383377  18.5362732  38.3796310  46.1003685  18.5907745  38.1404233
  44.8751163  17.5790155  38.8747239  44.2053509  18.5293770  36.7836833
  45.3563309  19.5104301  35.7409430  46.3875532  19.1616809  35.6855822
  44.9258041  19.4089007  34.7447300  45.3367853  20.5334783  36.1165690
  47.1019554  20.1501632  39.7525692  47.2068071  20.4896331  38.5731602
  48.1519651  20.0569725  40.5922794  47.9491043  20.1278257  41.5791559
  49.6220922  20.0671148  40.2526808  50.2183771  19.7083426  41.0916233
  49.8972130  19.1176534  39.0515113  49.3995047  19.4087756  38.1265044
  50.9392166  19.2364454  38.7544918  49.6212769  17.6403284  39.3837285
  48.6047125  17.5756943  39.7717023  49.7383356  17.1669030  38.4089088
  50.6222105  17.0441532  40.3356743  50.2410650  16.3135433  41.2330246
  51.8170452  17.3612797  40.3036785  50.0856733  21.5444493  39.9967194
  50.4386902  21.9134355  38.8962650  50.0262642  22.3678160  41.0687733
  49.5402384  22.0332623  41.8885040  50.2281523  23.8282704  41.0676146
  49.6185875  24.2712569  40.2800274  49.9258137  24.5945644  42.3554134
  49.8793602  25.6401944  42.0511103  48.9076757  24.5205593  42.7375460
  50.9299183  24.5237923  43.4967136  51.8818140  24.9291778  43.1536913
  50.5539560  25.1859760  44.2766285  51.1336231  23.1261396  44.1011238
  52.2199392  22.9175949  44.6076059  50.1750994  22.3297429  44.2554331
  51.6611576  24.0933585  40.5371857  52.6465082  23.3061099  40.6332922
  51.8262911  25.2242160  39.9373412  51.1464739  25.9502149  40.1130629
  53.1068563  25.7052255  39.3450356  53.6612988  24.7759080  39.2144179
  52.7043772  26.0656381  37.9344130  52.0711708  26.9526911  37.9174709
  53.5392857  26.3121772  37.2784853  51.9876099  24.9979711  37.1932125
  50.6481457  25.2688384  36.7616868  50.1680326  26.1998630  37.0245290
  50.0097561  24.3207860  35.8730865  48.9513588  24.3797898  35.6664252
  50.7414246  23.2488513  35.4151559  50.1518869  22.5717258  34.8148656
  52.0794010  22.9689193  35.9096527  52.5666332  22.0287824  35.6971574
  52.6417065  23.8109136  36.8450069  53.6613464  23.6216283  37.1465230
  53.9223242  26.8070221  40.0954676  53.3808613  27.5090051  40.9975243
  55.2079153  26.9104648  39.8210359  55.5696869  26.2185264  39.1803741
  56.2076712  27.4619317  40.7473135  55.6702423  28.0018711  41.5268898
  56.7773438  26.2840176  41.5225029  57.0213652  25.4547429  40.8585310
  57.6972866  26.4967728  42.0670605  55.9418583  25.7367182  42.5956678
  55.7223749  26.4908814  43.7518740  54.7963953  25.7744479  44.4291687
  54.3892050  26.0534215  45.3897762  54.4615650  24.6667194  43.7411261
  53.8502264  23.9219880  44.0440273  55.1721334  24.5823860  42.5897932
  55.0075769  23.8849831  41.7817402  57.2487020  28.3716726  40.2425957
  57.6667595  28.1804180  39.1072893  57.6284552  29.3771267  41.0115671
  57.2136784  29.4849038  41.9261456  58.4235334  30.4974008  40.5528784
  58.7843275  31.0418439  41.4255285  59.2299700  29.9875331  40.0258160
  57.7943420  31.5279937  39.6265388  56.5210772  31.6321754  39.6185660
  58.4877396  32.5351620  38.9973402  59.4972944  32.5259185  39.0258765
  57.9176426  33.5446000  38.1327510  56.9115639  33.2636786  37.8213143
  57.5746059  34.8063421  39.0102792  56.8397856  35.3494096  38.4159613
  56.9989300  34.5631695  39.9033451  58.7598372  35.6790590  39.4957995
  59.2796087  35.0926089  40.2534342  59.4321346  35.7698798  38.6426473
  58.4483957  37.1461773  40.0168896  59.4267035  37.5630283  40.2561474
  58.0647326  37.7078938  39.1651940  57.3781395  37.1258259  41.0899019
  57.2424936  36.2309051  41.5380239  56.6781712  38.1149888  41.6545439
  55.6618357  37.7577615  42.4223375  55.5083799  36.8302393  42.7914667
  55.0867844  38.5249472  42.7398872  56.9340134  39.2991424  41.2420130
  57.6902866  39.4596481  40.5920982  56.3284159  40.0280857  41.5912819
  58.7552547  33.9570761  36.9343042  59.9612951  33.6459041  36.8352747
  58.0216169  34.6553683  36.0756183  57.0292234  34.6468496  36.2631941
  58.5358858  35.2811646  34.7652841  58.6175537  34.4667506  34.0454507
  57.5023937  36.1576104  34.0186548  57.0879030  36.9411469  34.6529794
  57.8926754  36.8075466  32.6932907  58.6324883  37.5509620  32.9901314
  58.4313202  36.0446858  32.1311402  57.0372534  37.2116375  32.1519327
  56.3958025  35.2572560  33.6653376  56.0927010  34.8732519  34.4913340
  59.8329544  35.9670472  34.9540257  60.0261021  36.7158008  35.8743739
  60.6930161  35.8477974  33.9595389  60.5367374  35.0695968  33.3349752
  61.9347954  36.5763950  33.8666272  62.0452833  37.4238586  34.5431614
  63.0721998  35.6666374  34.3959737  62.9030800  35.3277135  35.4180431
  63.1538820  34.7516465  33.8092709  64.3863821  36.3962626  34.3630958
  64.7378683  36.5307832  33.3401251  64.5900297  37.6946163  35.1173139
  64.2670059  37.5664496  36.1504364  65.6328726  37.9917693  35.0065327
  63.9881659  38.4502745  34.6124983  65.3166580  35.4083133  35.1431775
  65.0982475  34.4443488  34.6836400  66.3638353  35.6246829  34.9317455
  65.1164913  35.3901100  36.2144876  62.2406149  37.0241356  32.4582529
  62.6929665  36.2243509  31.6192746  62.0936155  38.3402514  32.1564174
  61.9522429  38.9441514  32.9535508  62.3431826  38.8905191  30.8157849
  62.7777195  38.0941939  30.2115154  61.0104513  39.1495132  29.9899387
  60.4557276  39.8413706  30.6237507  61.1650705  39.6553659  29.0368891
  60.1743793  37.9611397  29.6408916  58.7743855  37.9909086  29.6784234
  58.3450794  36.8314886  29.1912413  57.3023748  36.5566659  29.1309571
  59.3752289  36.0629272  28.7806749  59.2985487  35.2257109  28.2209492
  60.5109787  36.8026233  29.0017700  61.5063477  36.5347219  28.6794734
  63.2314205  40.1376820  30.9477115  62.9256868  40.9543228  31.8259788
  64.3017149  40.1728249  30.1616001  64.4078541  39.4347167  29.4803977
  65.2156782  41.3180923  30.0495934  65.6505728  41.4341497  31.0423160
  66.3869476  40.9653521  29.0354395  66.7527533  39.9666715  29.2740297
  65.9756851  40.8378267  28.0340910  67.5578976  41.9760275  28.9392543
  67.7885532  42.4275303  27.8539228  68.2561588  42.2188377  29.9077249
  64.4363594  42.6120567  29.6101308  63.6160564  42.5781536  28.7107635
  64.7595358  43.7427950  30.2665687  65.2695560  43.6526442  31.1336660
  64.4479132  45.0659990  29.8378348  63.3634949  45.1360989  29.9228764
  65.0280333  46.0707712  30.9297514  64.8092270  47.0949602  30.6276655
  64.4915915  45.7807302  31.8331933  66.5657473  46.0087109  31.3005805
  67.3083973  45.0525284  30.9327555  66.9393063  46.9581699  32.0507622
  64.9511719  45.3408146  28.3503556  66.0368109  45.1236725  27.9825401
  64.0008497  45.8720732  27.5802517  63.1677532  46.0789013  28.1124902
  63.9715242  46.2402439  26.1308098  63.1970835  46.9917917  25.9774375
  65.2662516  46.9916010  25.7804632  66.0963583  46.2945461  25.8950901
  65.2204037  47.2156477  24.7147226  65.5289984  48.2854700  26.5039182
  64.7002649  49.1074324  26.8133116  66.7438459  48.4687233  26.8325257
  63.6252785  45.0801420  25.2304673  63.6431980  45.3568316  24.0607500
  63.1152201  43.9232349  25.7159925  63.1563616  43.9482689  26.7248440
  63.0199718  42.5685930  25.0338149  63.8518763  42.4417830  24.3410230
  63.1506538  41.5076685  26.0667706  63.9591312  41.6366625  26.7863727
  62.1789837  41.4007235  26.5489674  63.3403158  40.2529955  25.4863524
  64.2705107  40.2276468  25.2503490  61.7610836  42.4652433  24.2062783
  60.6429482  42.4875546  24.7556353  61.9875860  42.4914932  22.9301977
  62.9362583  42.6634359  22.6292753  60.9008741  42.3999405  21.9166160
  60.0035524  42.8942966  22.2888255  61.2246466  42.9503679  20.4599690
  61.9001818  42.2904539  19.9156559  59.9499512  42.9841471  19.6924639
  59.1860247  43.5324764  20.2436948  60.0448608  43.3726883  18.6784959
  59.6617556  41.9490528  19.5090961  61.7628431  44.3869257  20.6418538
  60.9581423  45.0087881  21.0340881  62.5646639  44.4043875  21.3800120
  62.2852278  45.0464201  19.3734133  63.3304453  44.7395897  19.4119000
  61.7146349  44.8045015  18.4767497  62.3671103  46.1090374  19.6019816
  60.3900290  40.9388399  21.8364215  61.1361837  40.1732206  21.2332463
  59.2486000  40.6016922  22.4435759  58.6298656  41.3758516  22.6383662
  58.5753584  39.3141127  22.3654246  59.3145800  38.6082482  21.9867325
  58.1541014  38.9176345  23.8209701  57.3483753  39.5867538  24.1229296
  57.7380037  37.9145837  23.7268972  59.3459177  38.7678719  24.8353195
  59.8594666  39.7118473  25.0177407  58.9554071  38.5876513  25.8368850
  60.4535389  37.6706171  24.5485830  60.0705910  36.7518330  23.8211846
  61.5908813  37.7636933  25.1172733  62.2891569  37.0888948  24.8394990
  61.8602371  38.6505890  25.5184770  57.3440170  39.2738748  21.4321733
  56.9364405  40.3248310  20.9843493  56.7561865  38.1003571  21.2664890
  57.2945499  37.3785424  21.7239308  55.4964304  37.8101063  20.4591608
  54.7617579  38.6151528  20.4754496  55.7733822  37.4871874  18.9213717
  56.4904308  36.6850591  18.7466395  54.4654465  37.2220898  18.1538796
  54.0076399  36.3262177  18.5733116  53.7787580  38.0668545  18.2080758
  54.5705795  36.9169855  17.1127450  56.3066339  38.7758708  18.2076883
  56.2791586  38.5969758  17.1328247  55.6009293  39.5984912  18.3233619
  57.3059225  39.0453672  18.5495842  54.7665930  36.7084289  21.1855030
  55.3041506  35.6524682  21.3495445  53.5666704  37.0058084  21.6325855
  53.1058264  37.8412676  21.3013244  52.8757572  36.3222766  22.7761984
  53.3105183  35.3405881  22.9642749  53.1687212  37.1887445  24.0949416
  52.9178953  38.2417750  23.9671898  52.3710299  36.5728402  25.2161145
  52.5944901  35.5089331  25.2952862  52.5366688  37.1686983  26.1136746
  51.3190317  36.7655778  25.0057483  54.6560526  37.1818686  24.3816781
  55.0657225  36.1738586  24.4464111  55.1799393  37.7621269  23.6221099
  55.1622295  37.8819847  25.7014441  56.2095213  38.1107998  25.5041528
  54.7113085  38.8625860  25.8537364  55.0166512  37.2153354  26.5514374
  51.3734913  36.1274242  22.4898005  50.6685305  37.0256138  22.0303893
  50.8364534  34.9009466  22.7538204  51.5337658  33.6743045  23.2902074
  51.6684103  33.7575960  24.3686485  52.4832582  33.5375309  22.7726603
  50.6262445  32.5581670  22.8748488  50.6953192  31.7171502  23.5647941
  50.9217358  32.4661398  21.8297076  49.2618799  33.1708264  22.9181337
  48.8761330  33.0990958  23.9350653  48.5791922  32.5827122  22.3048162
  49.4307804  34.6351719  22.5635266  49.2279911  34.8327565  21.5109396
  48.5455322  35.5206013  23.4756804  48.9236498  35.7814002  24.6457124
  47.3755836  35.9183645  23.0162287  47.1111012  35.6182075  22.0888376
  46.4369583  36.7835355  23.7436581  46.8714333  37.1182203  24.6856380
  45.9810448  38.0058432  22.9563618  45.5773115  37.5603080  22.0471859
  45.0637007  38.9541507  23.7674952  45.0031805  39.9387050  23.3037186
  44.0901709  38.4691191  23.8387847  45.4973459  38.9744306  24.7673225
  47.2302437  38.8551545  22.5701022  47.9625225  38.2341981  22.0540667
  46.9657612  39.5650363  21.7863822  47.5613022  39.4192982  23.4420204
  45.1591349  36.0094166  24.0447998  44.4304276  35.6754470  23.1517196
  44.8676205  35.6442785  25.2994132  45.4804611  35.9409952  26.0453916
  43.7002230  34.8240900  25.7427788  43.7652779  33.8584113  25.2414513
  43.7739038  34.5193124  27.2524738  44.5472860  33.7520719  27.2888756
  44.0270233  35.4498529  27.7605343  42.4389839  34.0372562  27.8821874
  41.8855619  33.5344005  27.0891118  42.8158903  33.1033373  29.0387869
  43.6088800  33.5128093  29.6645689  41.9484282  32.9676342  29.6846962
  43.1741238  32.1356940  28.6874413  41.6218042  35.1208019  28.5160732
  41.2877083  35.8914471  27.8213906  40.8089876  34.5785666  28.9992023
  42.0977163  35.5374980  29.4037533  42.4278259  35.6112385  25.2226424
  42.4000216  36.8557787  25.4493165  41.3583136  35.0066304  24.6135378
  41.5310526  33.6982870  24.0081501  41.3131952  32.8749561  24.6884179
  42.5180340  33.4667563  23.6076880  40.5847216  33.6759496  22.7714205
  40.3018141  32.6866865  22.4116683  41.2386036  34.0665269  21.9916797
  39.3649292  34.6456814  23.1517458  38.6231089  34.0806150  23.7161112
  38.9226627  35.0892448  22.2596979  40.1682091  35.6826162  23.9859581
  40.5360842  36.4076829  23.2599807  39.2120743  36.3718820  24.9442935
  38.7543440  37.5091147  24.8102570  38.8864279  35.6826091  26.0029030
  39.4382524  34.8418283  26.0960507  37.9233885  36.0509229  27.0900416
  37.2735834  36.8681622  26.7770314  37.0620990  34.7989058  27.4071598
  37.6018381  33.9733100  27.8710318  36.2906003  35.1251650  28.1046152
  36.3706040  34.1826630  26.2314820  37.1329093  33.8056302  25.5496907
  35.7373261  33.3542347  26.5489268  35.5516005  35.1546025  25.5020404
  35.8195662  35.7162786  24.4964981  34.5443392  35.5759478  26.2164927
  33.9019346  36.2758255  25.8735824  34.3785381  35.1359367  27.1103621
  38.5950422  36.7384958  28.3021426  38.5267663  36.2607884  29.4330955
  39.1128707  37.9258394  28.0077600  39.1138792  38.2324028  27.0454097
  39.6452308  38.8851786  28.9742684  38.9017916  38.8522029  29.7707033
  40.9728670  38.5268211  29.6263790  40.9214115  37.5552893  30.1178956
  42.2206974  38.5491109  28.7260675  42.1467972  37.7841473  27.9531074
  42.3157215  39.5573545  28.3229256  43.1101561  38.3026385  29.3059063
  41.2497044  39.5912147  30.7355571  40.3866720  39.5230126  31.3978410
  42.1902561  39.3968630  31.2510180  41.2871027  40.6322479  30.4146862
  39.6079254  40.2181864  28.2568479  40.1802731  40.3382778  27.1809602
  39.1445327  41.2017822  29.0294933  38.6576438  40.8949327  29.8594809
  38.9567900  42.5933170  28.6700344  39.7080374  42.7955246  27.9065967
  37.5861144  42.8038549  27.9748487  36.8274665  42.3686123  28.6253262
  37.4668002  43.8812160  27.8601623  37.4539661  42.0500994  26.6022062
  38.3999968  42.0142937  26.0619807  37.1362352  41.0322714  26.8284345
  36.2913084  42.9037523  25.5573893  37.3513508  44.1144800  24.7136402
  36.7418242  44.8108339  24.1377330  37.7150965  44.7065544  25.5534291
  38.2603431  43.7457514  24.2383838  39.3921995  43.5487413  29.7519612
  39.6616626  44.7167540  29.4799376  39.6101379  42.9787588  30.9530282
  39.3877673  42.0046234  31.1003995  40.1940536  43.7346840  32.0576787
  39.6202946  44.6402884  32.2546005  40.1236153  42.8508377  33.3396339
  39.0517998  42.6677179  33.4156489  40.6192160  41.9047832  33.1217599
  40.6038475  43.4427023  34.6530104  40.4475212  44.5179939  34.7390628
  39.9517560  43.0363274  35.4261446  42.3144197  43.1320524  35.1597190
  42.0647764  42.5711870  36.8518901  42.9971981  42.2078466  37.2839475
  41.7296505  43.3060122  37.5838947  41.3460398  41.7519665  36.8321419
  41.6144657  44.2759085  31.8134379  42.3621368  43.5495281  31.2051034
  41.9057703  45.4335594  32.4365163  41.1645365  45.9233332  32.9169297
  43.2403469  46.0235786  32.3005176  43.6138630  45.6933880  31.3312101
  43.1033373  47.5526714  32.3960686  42.5480366  47.8275633  33.2928324
  44.4604921  48.1527376  32.3538494  44.4253540  49.1939640  32.0333600
  44.8754263  48.0344963  33.3548260  45.0513840  47.6608133  31.5812182
  42.3540449  48.1082439  31.1638212  42.9611492  48.5964537  30.4014730
  41.7646646  47.3160648  30.7020974  41.3315582  49.1148043  31.5579700
  41.0180140  49.6881104  30.6855512  40.4212999  48.7216568  32.0106959
  41.8038082  49.7844172  32.2767901  44.1919613  45.5076599  33.4321189
  44.1576052  45.9624434  34.5771122  44.9809074  44.4390297  33.1573129
  44.9112034  44.1130447  32.2039104  45.8850956  43.8409853  34.1374731
  45.3019714  43.7886190  35.0568867  46.1291265  42.3943281  33.7955737
  45.1731920  41.9517040  33.5156178  46.7660856  42.3914576  32.9110575
  46.7911625  41.4874840  34.8631072  47.6800871  42.0415974  35.1645613
  45.8763218  41.3781548  36.1320877  45.7002258  42.3791695  36.5258718
  44.9379158  40.8994293  35.8522153  46.5288496  40.7493305  36.7377996
  47.1552467  40.1378584  34.3527985  47.7313089  40.2816200  33.4386992
  47.6546240  39.4989729  35.0811863  46.2264585  39.6061587  34.1460252
  47.1268034  44.7164583  34.4339919  47.6536942  45.3925896  33.5617089
  47.5794697  44.6754789  35.6579018  47.0728254  44.0199232  36.2355375
  48.6592007  45.4524994  36.2489676  49.1837645  45.8498049  35.3800106
  47.8933811  46.4635992  37.1387959  47.3927164  45.8826447  37.9133463
  48.8453531  47.4105406  37.8638530  49.2341328  48.0910349  37.1063066
  48.3607244  48.1982851  38.4406471  49.6114206  46.8751717  38.4247661
  46.8638754  47.2730780  36.2762117  47.2402477  47.7133894  35.3528643
  45.9562063  46.7194033  36.0360408  46.4655066  48.1206703  36.8338752
  49.4368267  44.5078611  37.1381330  48.8133049  43.5577154  37.7157831
  50.7764101  44.6733618  37.2265553  51.5748882  45.6605673  36.4159870
  51.2493849  46.6732359  36.6540027  51.3651991  45.4546928  35.3663421
  53.0256271  45.4367733  36.7013097  53.4391785  46.4005804  36.9982314
  53.4439898  44.8349237  35.8945537  52.9687071  44.6712637  37.9930687
  53.0907774  45.2757692  38.8918304  53.7752342  43.9423513  38.0724812
  51.6433764  43.8563490  37.9728246  51.8618965  42.9346848  37.4334788
  51.1388874  43.5635853  39.3788648  50.6188393  44.4626331  40.0494432
  51.2743282  42.3005915  39.7943664  51.8809032  41.7939043  39.1655231
  51.1405373  41.7687082  41.1482477  51.8477821  40.9442234  41.2384081
  51.4440775  42.5709200  41.8208694  49.7052908  41.3988972  41.4838314
  49.4931221  40.6482124  42.4386883  48.6962938  41.7625427  40.6961823
  48.9472055  42.4648857  40.0151110  47.2404099  41.3525677  40.8122778
  46.9510365  41.4101267  41.8615913  46.3911819  42.4709892  40.1356745
  46.5014172  43.3516598  40.7684183  46.7395258  42.7036524  39.1293812
  44.8996592  42.1601009  40.1179123  44.5794153  41.6909313  39.1876340
  44.6436214  41.4705896  40.9223509  44.0998554  43.4576941  40.4620647
  43.6689186  44.1958189  39.5770812  43.9921093  43.9033651  41.7128420
  43.6145258  44.8391533  41.7557096  44.3971634  43.4179354  42.5004864
  47.0160818  39.9333358  40.3257227  47.3167086  39.5671892  39.1792059
  46.2678862  39.1906857  41.1629248  46.2903690  39.4907331  42.1270657
  45.6749201  37.8970265  40.8320618  46.3378000  37.1802807  40.3473282
  45.1683664  37.1614480  42.0950556  44.7461700  37.9236889  42.7499199
  44.2006779  36.0639834  41.7609262  43.7876463  35.4997444  42.5970697
  43.3350039  36.4029694  41.1918879  44.7370815  35.3177524  41.1748219
  46.4048290  36.5109229  42.6868868  46.9750452  37.1212196  43.1601667
  44.5237780  38.1839848  39.8108935  43.7249184  39.0836644  39.8908305
  44.4831514  37.3524904  38.7761521  45.1084661  36.5669751  38.8859296
  43.4175253  37.2617841  37.7553082  42.5941086  37.8792143  38.1142855
  43.8857698  37.8670049  36.4184761  44.3860197  38.8225245  36.5760636
  44.7518396  37.2666073  36.1400056  42.8652430  37.9600453  35.3416395
  42.5701427  36.9154406  35.2425551  41.6430807  38.8134241  35.6792450
  41.9800091  39.8458791  35.7720089  40.9256554  38.8076234  34.8586559
  41.1034632  38.4233785  36.5422487  43.3744431  38.4353328  34.0248680
  43.5361004  39.5088291  33.9269948  44.3430805  37.9580307  33.8764787
  42.8144073  37.9787445  33.2087851  42.9526997  35.7434869  37.5701928
  43.6630774  35.0067973  36.9362664  41.7419434  35.3043580  38.0042195
  40.8466339  36.0389113  38.9119148  40.5167627  37.0090890  38.5403728
  41.4932728  36.2454081  39.7647405  39.6122932  35.2008581  39.1802001
  38.8557768  35.4609203  38.4398293  39.2299318  35.2410507  40.2001429
  40.1745653  33.8007164  38.8814998  39.4987869  33.0098677  38.5559511
  40.8392859  33.4989905  39.6909475  41.1017418  34.0342021  37.7395391
  41.8413734  33.2340908  37.7099919  40.3097248  34.0562463  36.4383769
  39.7439814  35.0824189  36.0778356  40.2326965  32.9063511  35.7675433
  40.7415247  32.0800972  36.0477233  39.5351815  32.9077315  34.5039129
  38.7552714  33.6641049  34.5919251  40.5562830  33.2726455  33.4182429
  41.4208651  32.6356220  33.6047721  40.1849174  33.0672073  32.4142575
  41.0359478  34.7526622  33.3833170  41.4081430  34.9672294  34.3850827
  42.1176147  34.8945212  32.3232150  41.7049742  34.6398640  31.3470078
  42.5377321  35.8927011  32.1997833  42.9708862  34.2933416  32.6372409
  39.9407554  35.7414460  33.0761051  39.6807432  35.7414675  32.0175695
  39.0602231  35.4043150  33.6230087  40.1417065  36.7554545  33.4218144
  38.8785028  31.5482068  34.2327023  39.4119740  30.5898547  34.8498154
  37.8519797  31.4482260  33.4227514  37.6806378  32.2404289  32.8201270
  37.0477843  30.2910972  33.2068086  37.6707482  29.4024467  33.3083868
  35.9620214  30.2760434  34.3096018  36.5563202  30.2822208  35.2233124
  35.3268123  31.1596513  34.2475939  34.9723125  29.0681458  34.2076206
  34.2324996  29.2746902  33.4342384  35.4146051  28.1204009  33.9006114
  34.2733121  28.8146901  35.5482030  34.2778635  27.7025676  36.0197020
  33.6831307  29.7978759  36.1778545  33.4076643  29.6949291  37.1440959
  33.6269116  30.6841731  35.6967974  36.4635086  30.0592136  31.8177176
  35.6857014  30.9300637  31.3585544  36.7931461  28.9771557  31.0739899
  37.4767518  28.3409834  31.4587831  36.4853811  28.8910842  29.6257401
  35.7014918  29.6161199  29.4067860  37.7258420  29.2907286  28.7705016
  38.5402369  28.5715985  28.8583231  37.3907018  29.3803072  27.7371740
  38.3860278  30.7094741  29.0917039  37.6158905  31.3821697  29.4691682
  39.5037961  30.6018662  30.1161146  39.1145182  29.9351907  30.8855963
  40.4587269  30.3626132  29.6481729  39.4905114  31.5894842  30.5771327
  38.8704133  31.1808395  27.6743293  38.0332422  31.3439012  26.9956112
  39.5163274  32.0454717  27.8269887  39.5355678  30.4237962  27.2589350
  35.9195852  27.5830317  29.1394162  36.0498309  26.5521812  29.7740936
  35.0959086  27.6376820  28.0689430  34.8149586  28.5752916  27.8198147
  34.2550659  26.5636539  27.6237774  34.3110132  25.6101251  28.1488991
  32.7813840  27.0409656  27.9089689  32.6268959  27.7714157  27.1148181
  32.0415998  26.2799811  27.6605320  32.4278831  27.5789046  29.2432928
  32.4176764  28.9649367  29.4424200  32.6346159  29.5996714  28.5959864
  32.0608687  29.4887328  30.6986952  32.1392417  30.5448461  30.9105420
  31.7532086  28.6593223  31.7793965  31.5166211  29.0521502  32.7572060
  31.8304586  27.2554445  31.6415095  31.7418003  26.6101575  32.5029922
  32.0770407  26.7260838  30.3359246  32.0079803  25.6492043  30.2916694
  34.3845415  26.1693883  26.1397433  34.4026089  24.9802899  25.7381392
  34.5350623  27.1360421  25.3029275  34.6333623  28.0477977  25.7261825
  34.7330046  27.0057154  23.8289690  33.8523269  26.6682506  23.2825041
  34.9586773  28.4414363  23.2332611  34.1939116  29.1100550  23.6284685
  35.9609747  28.7515354  23.5287952  34.9944544  28.4735131  21.7525578
  35.9931922  28.0683994  20.8522773  35.3634143  28.1099558  19.6354282
  35.8435655  27.8594565  18.7010264  34.0921926  28.5390306  19.7202015
  33.4597754  28.6534715  18.9410663  33.8187790  28.7233186  21.0677528
  32.8473091  28.9398289  21.4870024  35.9687877  26.0726142  23.5026312
  36.9439912  26.0263705  24.2501140  35.9039617  25.2546334  22.4102569
  34.6400380  24.9384570  21.6446996  33.9342952  25.7388663  21.4225078
  34.0840316  24.2561126  22.2876358  35.1965070  24.2695475  20.4231334
  35.5106926  25.0946093  19.7838688  34.4424963  23.6015153  20.0068426
  36.5053177  23.5283923  20.8840656  37.2405720  23.5177135  20.0794601
  36.2444329  22.5408983  21.2647128  37.0057583  24.3388891  22.0607114
  37.1234441  23.7610459  22.9774189  38.3627820  24.9172902  21.7478418
  39.4162893  24.4818974  22.2497439  38.3557105  25.9339547  20.8974314
  37.4630904  26.2576151  20.5530906  39.5800900  26.6848397  20.6116414
  40.2130985  25.8928132  20.2115226  39.4057703  27.8043294  19.4982588
  38.6497903  28.4989214  19.8645008  40.3971052  28.2525182  19.4313216
  38.9553833  27.4222803  18.1072509  38.0058169  26.8878460  18.1356931
  38.9339995  28.3061433  17.4697340  40.0192356  26.5620637  17.4250042
  39.8809600  25.3739381  17.3827386  41.0240555  27.1466398  16.7866647
  41.8054438  26.6859412  16.3424909  41.1071253  28.1517100  16.8417466
  40.1259947  27.2611189  21.9671655  41.3653231  27.1873808  22.2145152
  39.1965485  27.6962900  22.8027844  38.2181644  27.6954722  22.5520587
  39.6236253  28.2777405  24.0536189  40.4859161  28.9241672  23.8902211
  38.4901977  29.1544366  24.5650721  37.5915337  28.5772371  24.7826576
  38.8277340  29.5814991  25.5094171  38.3471584  30.3519368  23.6315966
  39.2821026  30.9026217  23.7351751  38.2549906  30.0338888  22.5931144
  37.1850801  31.2884259  23.8150430  36.4293790  31.0222101  24.7972870
  36.9579530  32.2177100  23.0065012  40.1981878  27.2114253  24.9708200
  41.2015486  27.4655533  25.6378436  39.5897126  26.0440063  25.1098919
  38.8652825  25.8577251  24.4312119  39.8370075  24.9595690  26.0656905
  40.0784874  25.4363418  27.0156741  38.5342789  24.0603900  26.2297654
  37.9493284  23.7896132  25.3507829  38.9210582  22.6327848  26.6623545
  38.0286407  22.0238066  26.8067122  39.5881510  22.1205759  25.9690070
  39.4821286  22.6771092  27.5958109  37.5996518  24.6709657  27.2240138
  36.6334438  24.1709995  27.1563745  37.9632401  24.7380543  28.2493949
  37.4276519  25.6475019  26.7713594  41.2233496  24.2611980  25.7899427
  42.0321369  24.0117168  26.6773343  41.4912367  24.1285539  24.4916296
  40.7599163  24.4357228  23.8663936  42.7367210  23.6733603  23.8796473
  43.0200005  22.6941490  24.2656612  42.5855446  23.5733938  22.3013449
  42.5186968  24.5607591  21.8444538  43.5470009  23.1757998  21.9763494
  41.4251709  22.8256083  21.8978572  40.6382513  23.3156013  22.1473861
  43.8580656  24.6108294  24.2638016  44.8925781  24.1349721  24.6550965
  43.7012529  25.9062123  23.9446449  42.7707243  26.1966968  23.6803889
  44.7861481  26.9370985  23.9807367  45.6031895  26.4770818  23.4249234
  44.4098949  28.2203460  23.2301307  45.3182268  28.7430716  22.9304886
  44.0507269  27.9060841  22.2501612  43.2884026  29.1410780  23.7656760
  42.9560375  29.7976494  22.9615974  42.4533176  28.4575033  23.9188623
  43.5885429  30.2096272  25.1118326  44.7482204  31.2715030  24.2133236
  45.0969791  32.1022105  24.8268342  45.6641817  30.7564354  23.9237857
  44.3300438  31.5855098  23.2569623  45.3245306  27.2452331  25.4221439
  46.5336418  27.2302723  25.6024313  44.5058441  27.0901036  26.4622688
  43.5501909  26.9012976  26.1954808  45.0065088  27.0067644  27.8717971
  45.6823063  27.8534007  27.9926562  43.8181210  27.1638346  28.8092923
  43.1390381  26.3122129  28.7682199  44.2551899  27.3541379  30.3008747
  44.7442675  28.3197951  30.4289746  43.3155870  27.4114752  30.8503819
  44.8659229  26.5004230  30.5945873  42.9733133  28.4219909  28.4513116
  43.6204767  29.2669535  28.2161117  42.2509718  28.3264780  27.6406312
  42.4722385  28.6693358  29.3871760  45.9296465  25.7570934  28.0554485
  46.8889952  26.0184646  28.7748384  45.7347107  24.4878650  27.5894308
  44.7971630  24.3707013  27.2325325  46.6778803  23.3620453  27.6812100
  46.9704914  23.1530452  28.7101889  46.0491514  22.0115089  27.1369982
  45.8057308  22.1361399  26.0818624  46.8320799  21.2572050  27.2154307
  44.7311068  21.6529512  27.8384852  44.8502779  21.7581177  28.9168382
  43.9538860  22.3028970  27.4364996  44.2389870  20.2009845  27.5815940
  44.2346287  20.0992084  26.4963651  44.9102068  19.4811225  28.0499578
  42.8750515  20.0288677  28.1213379  42.7960777  19.7701919  29.0944505
  41.7320681  19.8875320  27.4341893  41.6936874  19.8434532  26.0749841
  42.5084257  19.9830830  25.4946303  40.8512259  19.8298144  25.5180550
  40.5719900  19.7504365  27.9949617  40.6594706  19.6111882  28.9914846
  39.6505141  19.6368337  27.5973678  48.0396128  23.6591029  26.9538164
  49.1096687  23.4202027  27.5214696  47.9384947  24.2246675  25.7401347
  46.9888163  24.3707395  25.4288888  49.0629959  24.6029305  24.8908496
  49.6501255  23.7062240  24.6926212  48.4863806  25.0782347  23.5364246
  47.6866674  25.7933211  23.7293339  49.1915369  25.5672979  22.8643584
  47.7742529  23.9646387  22.7912498  48.0387449  22.7947903  22.9968309
  46.9246149  24.3179059  21.8383574  46.5705967  23.5382843  21.3026690
  46.7108870  25.2850914  21.6409445  49.9779415  25.7022977  25.4844999
  51.1778975  25.4633617  25.6942749  49.3822002  26.6984367  26.0365987
  48.3919001  26.7252994  25.8399081  49.9907970  27.7620673  26.8348074
  50.6748676  28.4215140  26.3006926  48.8900948  28.6795330  27.2835445
  48.0047417  28.1205964  27.5866032  49.1778278  29.2142153  28.1887650
  48.6173582  29.8983502  26.2913513  49.4816637  30.5433989  26.4494419
  48.5010099  29.6982765  24.7882915  48.4357643  30.6441498  24.2505383
  49.3737316  29.1936946  24.3737340  47.5812149  29.1570187  24.5666647
  47.2951698  30.6575775  26.7042375  46.4565897  30.0459051  26.3714528
  47.2635078  30.7142878  27.7923012  47.3441219  31.6724181  26.3095188
  50.7207489  27.1745586  28.0357599  51.8521070  27.5357556  28.3434296
  50.0970554  26.3368630  28.8841772  49.1806269  26.0199666  28.6016250
  50.6781912  25.6485939  30.0531197  50.9211922  26.4386249  30.7636857
  49.4708824  24.8789835  30.7525992  48.8051176  24.3733406  30.0531840
  50.0573969  23.8019657  31.7220783  50.6182194  24.2837214  32.5230169
  49.2353201  23.2690287  32.1998525  50.5147409  23.0216575  31.1137581
  48.6736059  25.9429455  31.4828920  49.2857456  26.4426899  32.2336555
  48.1839418  26.6536117  30.8171010  47.5165892  25.2282643  32.2013140
  46.8633413  26.0847616  32.3679781  46.9952917  24.4644189  31.6243458
  47.9025841  24.7701097  33.1119156  51.8674946  24.8190188  29.6028233
  52.9054928  24.9097991  30.2404261  51.7872143  24.1658711  28.4308481
  51.0198307  24.3629074  27.8044295  52.9302502  23.3824825  28.0061674
  53.4683609  22.8665781  28.8013935  52.3644638  22.2377443  27.0776820
  51.8195868  21.4760876  27.6354313  51.8207550  22.7696919  26.2969685
  53.5048723  21.4247704  26.4095283  54.1131306  21.9773412  25.6934357
  54.0606689  20.9783936  27.2341132  52.8916121  20.2890396  25.6132674
  51.7281055  19.9194694  25.7533908  53.6807394  19.5864797  24.8168397
  53.4462023  18.6114287  24.6969652  54.6710777  19.7725701  24.8853970
  54.1511917  24.1511917  27.3635221  55.3314209  23.6890674  27.4719787
  53.9911079  25.3795218  26.9582200  53.0331945  25.6993222  26.9429946
  55.0740147  26.2110424  26.5037680  55.8486891  25.6546474  25.9761333
  54.5739555  27.1367335  25.4035521  54.2420530  26.4931130  24.5888782
  53.7474680  27.6664591  25.8772635  55.5359268  28.1295848  24.8700380
  56.6091871  27.7221656  24.4026327  55.2423048  29.4192576  24.9074244
  55.8927679  30.1635408  24.6999669  54.3758154  29.7617769  25.2972579
  55.7112169  26.9282150  27.6854062  56.9117689  26.8094730  28.0065656
  54.9756575  27.8640032  28.3290148  54.0506220  28.0926800  27.9941773
  55.4953671  28.6968398  29.4010139  56.1238766  28.0604959  30.0240278
  56.4312077  29.8445678  28.8987184  56.9024754  30.3704238  29.7290683
  57.1725988  29.3557429  28.2666659  55.7120228  30.9239483  28.0590057
  56.3551331  31.9828248  27.7397490  54.5322752  30.7044744  27.7014756
  54.4419241  29.2538047  30.3760576  54.7312450  30.2537465  31.0953808
  53.1675386  28.8023543  30.3042603  52.9894829  27.9987979  29.7188616
  52.1440172  29.2955232  31.2408471  51.1800480  28.8358712  31.0227108
  52.4568605  29.0151691  32.7223468  53.0896282  29.7117639  33.2723141
  51.5965080  29.1995192  33.3657074  52.8549957  27.6282310  32.9965353
  52.0276356  26.9737267  32.7222943  53.7468243  27.3830891  32.4197841
  53.0844069  27.1941972  34.4970989  52.2397709  27.6200724  35.0386930
  52.9809284  26.1096478  34.5309305  54.3964052  27.6319623  35.0985837
  55.1583385  26.9704938  35.0536132  54.5806551  28.4657216  36.0733271
  53.6612558  29.1565251  36.6628885  52.6978922  29.0612006  36.3748741
  53.8339567  29.8103213  37.4131060  55.7608557  28.4749317  36.6592121
  56.4953232  28.3022928  35.9877539  55.9460068  29.0755820  37.4498081
  51.7901802  30.7922006  31.0765409  51.1515236  31.2528872  32.0153785
  52.1074152  31.4186144  29.9635577  52.5400543  30.8070326  29.2861414
  52.0662880  32.9033947  29.8584843  51.7100668  33.2393932  30.8322978
  53.4843874  33.4747386  29.6546793  54.0639496  33.1768942  28.7808943
  53.6389875  35.0040650  29.5536542  54.6573448  35.2837181  29.8235512
  53.2081461  35.4310775  28.6480403  53.0541754  35.4741383  30.3443074
  54.3374586  33.1532598  30.7517481  54.5451355  32.2252965  30.6200147
  51.2085724  33.4418559  28.7033725  51.1824512  32.9075575  27.6188064
  50.5185699  34.6094656  28.9080071  50.5742121  35.0700283  29.8051620
  49.8955631  35.3253770  27.7802944  50.4888630  35.2196717  26.8720412
  48.4332991  34.7221565  27.6459575  47.8429747  35.2993703  26.9343138
  48.5669231  33.7188697  27.2414136  47.5346613  34.6167541  28.8511777
  47.6709604  33.5588789  29.7978449  48.2541227  32.6718640  29.5990396
  46.7766428  33.5971260  30.8844614  46.7393398  32.7891922  31.6001797
  45.8523703  34.6334839  31.0626888  45.1552582  34.6783781  31.8863535
  45.8196783  35.6659436  30.1457691  45.1216030  36.4775109  30.2887726
  46.6174698  35.6486464  29.0156221  46.6441965  36.4929986  28.3427501
  49.8297930  36.8601370  27.9974794  49.6888781  37.3188019  29.1360450
  49.8474789  37.5726318  26.8859696  49.5201969  37.0436954  26.0902214
  49.5777750  38.9964008  26.8862438  50.2702951  39.4049621  27.6221752
  50.0865793  39.5737982  25.5390096  49.8053122  40.6250286  25.4764676
  51.1698627  39.4884992  25.4534388  49.6655560  38.9754009  24.7310710
  48.1722546  39.4095349  27.2392249  47.1628284  38.8222337  26.7924428
  48.0329418  40.4117489  28.1664085  48.8148642  40.8245754  28.6545396
  46.7444897  40.9667444  28.5840726  45.9838772  40.7109070  27.8464317
  46.3607883  40.4137421  29.9743772  47.0232058  40.7970667  30.7505012
  44.9598885  41.0259342  30.4929686  44.8515224  40.6655884  31.5159559
  45.0761509  42.0927191  30.6841660  44.1163206  40.6869698  29.8916388
  46.3035727  38.8650608  30.2028918  47.2754526  38.3848166  30.0892091
  45.8902168  38.5442758  31.1591005  45.7061672  38.4048057  29.4158888
  46.7749596  42.5626850  28.5537028  47.6953077  43.1576490  29.0535927
  45.8725643  43.1542301  27.8860950  45.2290249  42.4621582  27.5297332
  45.9836340  44.4369745  27.1627283  47.0412397  44.6930218  27.0993876
  45.5636406  44.2565727  25.7165098  44.5365953  43.8922882  25.6923485
  45.5961227  45.1867962  25.1493025  46.3979673  43.3208513  24.9681830
  46.6174841  42.3949766  25.4998469  45.7998943  43.0179596  23.6137962
  45.6191111  43.8862705  22.9801965  46.4111948  42.3111916  23.0526376
  44.8976469  42.4332666  23.7931848  47.7665329  43.9109468  24.5824075
  47.6914787  44.7393084  23.8779259  48.3054256  44.1566277  25.4974675
  48.4304237  43.1389809  24.1932750  45.1525307  45.4607201  27.8050733
  43.9810371  45.2626133  28.0555725  45.7118368  46.6661882  27.9586077
  46.6749096  46.8304348  27.7024460  45.0287867  47.8250790  28.4545803
  44.4152975  47.5977516  29.3263912  46.0519648  48.7919044  29.1141343
  45.5033970  49.6496820  29.5032239  46.6066408  48.3489990  29.9413419
  46.8048191  49.0682793  28.3759427  44.1603613  48.5503864  27.3791742
  44.3355131  49.7486353  27.1395493  43.0949163  47.9789829  26.8101573
  42.8550243  47.0340443  27.0740795  42.2352219  48.4627008  25.7098746
  42.8408718  48.4982109  24.8043203  41.0280752  47.5393438  25.4378462
  40.1808071  47.5811815  26.1223102  40.5695105  47.9090977  24.5207334
  41.2378740  46.1092234  25.0892115  41.9386244  45.8188629  23.9226007
  42.4092674  46.5639305  23.2982874  42.1953201  44.5218515  23.5796976
  42.7960443  44.3072128  22.7082253  41.6575861  43.4725571  24.3261838
  41.9412374  42.1851635  23.9710498  41.8903828  41.5948343  24.7263837
  40.9708786  43.6457253  25.4908848  40.8232689  42.7925396  26.1363935
  40.7374239  45.0457096  25.8875918  40.1620197  45.3005028  26.7653108
  41.8346310  49.9279976  25.8826280  41.3647175  50.3025627  26.9065595
  42.1436310  50.7795143  24.9345970  42.5253248  50.4845047  24.0472507
  42.0134497  52.2600174  25.0737071  42.3012829  52.5049734  26.0960817
  43.1115866  52.9679441  24.3102646  43.1327152  54.0208149  24.5915508
  44.0187120  52.4089909  24.5400453  42.9268742  52.8122377  22.9249978
  43.7753487  52.6972485  22.4908686  40.6338406  52.7686644  24.6696234
  39.9989367  53.4975433  25.4854178  40.1591063  52.3954391  23.4838176
  40.8435965  51.9267845  22.9076791  38.8982034  52.8102684  22.9468513
  38.4325314  53.4762001  23.6733365  39.1862035  53.7238598  21.6403913
  39.6881533  53.1400108  20.8688569  38.1796670  53.8463926  21.2404323
  39.8877478  55.0531816  21.8737960  40.7735395  55.4072809  21.0994744
  39.6424747  55.7189226  22.9703760  40.2720833  56.4803839  23.1798387
  38.8689733  55.5934095  23.6075902  37.8865695  51.6605854  22.7607751
  36.7082357  51.8566990  22.8651047  38.4283161  50.3992176  22.7199888
  39.4015956  50.3344202  22.4580193  37.7761865  49.1255474  22.9825544
  38.5523129  48.3668995  23.0834818  37.0474482  49.1322041  24.3121982
  36.1052680  49.6551943  24.1482234  36.7259073  47.7547026  24.8602605
  36.3379431  47.0908308  24.0876937  37.5936913  47.3262215  25.3617215
  35.9318733  47.9185104  25.5888057  37.9167295  49.7258329  25.4673791
  38.0713701  50.8044958  25.4414511  37.5582242  49.4745255  26.4655900
  38.9513731  49.4022751  25.3536797  36.8765259  48.6167192  21.9020605
  36.7823792  47.4788713  21.6301894  36.2130475  49.5647335  21.2407112
  36.3092923  50.5281353  21.5282607  35.2906084  49.3232870  20.1154637
  34.3930364  48.9146280  20.5796432  34.9040818  50.6357241  19.4474471
  34.0732956  50.5587578  18.7460399  34.5229673  51.3107872  20.2137017
  36.1616087  51.2039042  18.6972439  37.0961499  50.9506464  19.1978371
  36.2103271  50.7777596  17.6951826  36.1161017  52.6798010  18.4709132
  35.1181102  53.3427191  18.2938635  37.2795630  53.2777786  18.2517040
  37.3542571  54.2514181  17.9937327  38.0578017  52.6433372  18.1425130
  35.8194995  48.2569790  19.1147780  35.0925779  47.3963594  18.5441458
  37.1356750  48.3009434  18.8309264  37.7188253  49.0385485  19.1996682
  37.8177261  47.2751665  18.0396950  37.1011162  46.4595079  17.9434276
  38.2455134  47.8303671  16.6321135  38.9667559  48.6414766  16.7321658
  38.7153673  47.1081924  15.9644282  37.1609688  48.4769487  15.7523358
  36.6857386  49.2680216  16.3323879  37.6348424  48.9692497  14.9031079
  36.0801435  47.5094461  15.1953101  36.4008236  46.3356876  14.9927509
  34.8700261  47.8485966  14.9923313  38.9545989  46.4995241  18.5936499
  39.7062492  45.8180618  17.8472126  39.0818429  46.4872599  19.9300611
  38.3432007  46.8647671  20.5062532  40.2245188  45.9099388  20.6847405
  40.0610828  46.1305380  21.7395973  40.2755070  44.3920898  20.5016088
  40.2764320  44.1365433  19.4419897  41.1528778  43.9124060  20.9354758
  39.0636945  43.7264776  21.1533117  38.9605784  44.2070198  22.1262193
  38.1812644  43.8272572  20.5214429  39.0487313  42.1939278  21.2354374
  38.9792490  41.7419195  20.2460122  40.0153351  41.9600344  21.6816187
  37.9444504  41.6470242  22.0481181  37.0695448  42.0945787  21.8150187
  37.8872061  40.5508804  22.8019285  38.9514732  39.9385285  23.1565309
  39.8453259  40.2554560  22.8091359  38.9766479  39.1098237  23.7333536
  36.7563391  40.2087545  23.3370352  35.9422302  40.8053732  23.2999849
  36.6838026  39.3931007  23.9282680  41.5049362  46.6472578  20.3695631
  42.6209927  46.1523867  20.6885552  41.4652920  47.8943396  19.9255800
  40.5663490  48.2849503  19.6818030  42.7237892  48.7296820  19.9190032
  43.5602283  48.2675648  19.3946719  42.4853945  49.9929333  19.1045952
  43.4081554  50.5706692  19.0514660  42.1106720  49.7440577  18.1117487
  41.4751339  51.0440636  19.7427535  41.5423632  51.0261154  20.8305311
  41.8784094  52.0486927  19.6155238  40.0381279  50.8931541  19.3030763
  39.5494461  51.8026114  18.5737896  39.3710089  50.0010204  19.8782253
  43.2258320  49.0281820  21.3172841  42.4639559  49.2006350  22.2956324
  44.5603466  49.1979074  21.4291525  45.0217342  49.3039131  20.5369711
  45.3486919  49.2912102  22.6660585  44.9859667  50.0690651  23.3379841
  45.3213596  47.9438925  23.4386802  45.8944464  48.0366898  24.3612075
  44.2865324  47.6419353  23.6000991  45.7473803  47.2057295  22.7591801
  46.8320131  49.5808697  22.3864555  47.2203350  49.5583582  21.2421703
  47.5627804  50.0135612  23.4311628  47.1215487  50.0169849  24.3396783
  48.9190626  50.6329060  23.4266067  49.5167923  50.3226280  22.5695491
  48.7898588  52.1755791  23.3150768  49.7739220  52.5560141  23.0412436
  48.0477428  52.4340343  22.5597167  48.4296608  52.8898001  24.5958185
  47.3824453  52.6750803  24.8087454  49.1947889  52.5995541  25.3158474
  48.5781384  54.3662596  24.4024754  49.4268894  54.8406219  23.6291623
  47.9693985  55.2288771  25.0906205  49.8663425  50.1620865  24.5420456
  51.0768843  50.4830885  24.5733047  49.2996502  49.4457245  25.5061507
  48.3107901  49.2473078  25.5598664  49.9275017  49.0611410  26.7528892
  50.9718132  48.8459873  26.5265584  50.0372267  50.2151775  27.7749181
  50.0815582  51.1394262  27.1988130  49.1213846  50.3114080  28.3580756
  51.3286161  50.0880575  28.5897732  52.5557661  50.5189848  28.1083703
  52.5492287  51.0328484  27.1584749  53.7052059  50.4755259  28.8539648
  54.7039270  50.8083200  28.6127162  53.7322092  49.7768068  30.0565457
  54.6182346  49.6306992  30.6565571  52.4334192  49.2717314  30.5718017
  52.3722029  48.7352467  31.5071297  51.2637997  49.4344473  29.7962403
  50.3175449  49.0852118  30.1822925  49.2619181  47.8051472  27.3265195
  48.2598019  47.3252869  26.8543243  49.9592257  47.1663904  28.2662940
  50.8316708  47.6010799  28.5308528  49.5866728  45.8739853  28.7815619
  48.6054564  46.0621691  29.2173338  49.4837618  45.1870537  27.9415369
  50.5774355  45.2764177  29.7911048  51.5881968  45.9680748  30.1043224
  50.1653051  44.1024733  30.2965808  49.2326498  43.7653446  30.1052856
  50.9538555  43.2858944  31.3039541  51.9686890  43.6824417  31.3349938
  50.4464817  43.5670090  32.7517509  49.4524145  43.1408310  32.8870630
  51.4214563  43.0285835  33.8573146  51.4263964  41.9402266  33.9170742
  52.4465466  43.3832836  33.7502003  51.1876154  43.4975719  34.8130703
  50.4229498  44.9564171  32.8837895  49.4859505  45.1632261  32.8543448
  50.8231640  41.7689943  31.0539389  49.7333860  41.2832785  30.7627225
  51.9491959  41.0247660  31.1349511  52.7771187  41.4321518  31.5456605
  51.9492340  39.6150279  30.8160210  51.3718843  39.4136643  29.9136782
  53.3848143  39.1139054  30.4439068  53.3138800  38.0454540  30.2402377
  54.0246153  39.6468520  29.1937423  53.4808159  39.2617488  28.3311367
  54.0702820  40.7198668  29.3799019  55.0577497  39.3085074  29.1146803
  54.2673588  39.2455745  31.4641023  55.0867796  38.8988590  31.1036301
  51.4271879  38.7526774  31.9813228  51.9728088  38.7561202  33.0860329
  50.3133726  38.0109334  31.8277621  49.8280859  38.0868363  30.9452438
  49.7822237  37.1089840  32.8026915  49.9712086  37.5556469  33.7788463
  48.2854319  36.9717741  32.6673079  48.0159473  36.4073277  31.7746258
  47.8964090  36.3608313  33.4818697  47.8337049  37.9635811  32.6484323
  50.5652523  35.8017898  32.8133917  50.9798861  35.3364182  31.8090057
  50.7785177  35.1524353  33.9777589  50.2606678  35.3024769  34.8318243
  51.4108944  33.8447261  34.1621804  51.4603472  33.3372545  33.1987858
  52.8678465  34.0052271  34.5712972  53.4512568  34.4171572  33.7478590
  52.7843761  34.6219921  35.4661345  53.4858656  32.6757526  35.0159955
  52.8771019  32.2279954  35.8015037  53.4118223  31.9435334  34.2119598
  54.8675060  32.8769898  35.5770469  55.1985741  33.9598274  36.1860204
  55.6521559  31.8998694  35.4713774  50.5286503  33.0124259  35.1294494
  49.9568510  33.4907103  36.1059570  50.2695274  31.7518497  34.7164440
  50.9700060  31.3270998  34.1256666  49.3118715  30.8525681  35.3085971
  48.4614325  31.4632177  35.6118488  48.5866928  29.8519182  34.2849064
  49.3432379  29.2582488  33.7717843  47.6269579  28.9212084  35.0436544
  47.3316765  28.0929375  34.3995428  48.1489801  28.4062290  35.8501220
  46.7657185  29.4923592  35.3902769  47.9290581  30.6024742  33.0858064
  46.9945860  31.0404229  33.4366107  48.5674381  31.4610744  32.8775263
  47.6163864  29.6881723  31.8691826  48.5207558  29.1673779  31.5545607
  46.8972778  28.9151549  32.1401715  47.1256208  30.2367830  31.0652685
  49.9221849  30.1390696  36.4284754  50.8493996  29.3844056  36.1633158
  49.4556713  30.3488159  37.6770234  48.6752939  30.9779167  37.8008938
  49.9556923  29.6310425  38.8742709  50.9641695  29.2801118  38.6553431
  50.1693392  30.5293465  40.0995398  50.7399368  30.0255466  40.8797312
  50.7371044  31.3827634  39.7288299  48.7931442  30.8505940  40.7997179
  48.1706381  29.9452281  41.6759777  48.6373806  29.0070987  41.9376421
  47.0328283  30.3164458  42.3478556  46.7168331  29.7120166  43.1852388
  46.3948441  31.5867853  42.1608686  45.2710629  31.8028426  42.8412867
  45.4604435  32.5164437  43.4548903  46.9820547  32.5147295  41.3170195
  46.3440418  33.3507848  41.0713434  48.1758118  32.1653891  40.6360865
  48.6043930  32.9437256  40.0221539  49.2115831  28.3464241  39.2598915
  49.8405790  27.4580216  39.8874211  48.0484533  28.0222249  38.6445284
  47.5112152  28.7507343  38.1964684  47.3000145  26.8329477  38.8495517
  48.0205154  26.0272384  38.7087750  46.7536879  26.8732429  40.2497959
  47.5388193  26.8362117  41.0049820  46.0880756  27.7346182  40.3053427
  46.2690783  25.9109545  40.4148769  46.2120724  26.6089463  37.7468204
  45.6403971  27.6029158  37.2352839  45.9703684  25.3827238  37.3850417
  46.4016724  24.6243620  37.8939271  44.9108553  24.9617720  36.4198303
  44.1745377  25.7496262  36.2609673  45.5718422  24.6439958  35.0206280
  45.9204721  25.5667734  34.5569086  46.3969564  23.9395356  35.1256108
  44.5988894  24.0098691  34.0455699  43.9241266  24.7872734  33.0553365
  43.9166307  25.8592987  33.1861639  43.3849144  24.1117096  31.9303465
  43.1076765  24.6530747  31.0378981  43.4793472  22.7002358  31.8110871
  42.9960489  22.1144247  30.7348275  42.7415037  21.2035942  30.8997321
  43.9512730  21.9829321  32.8757596  44.0754890  20.9134817  32.7905655
  44.6446514  22.6120782  33.9123821  45.2686119  22.0025945  34.5492506
  44.1105556  23.7041402  37.0250273  44.7242117  22.9616857  37.8037548
  42.9481268  23.4562278  36.4939547  42.6712751  24.1187215  35.7836366
  42.2207403  22.2073889  36.5619206  42.9054785  21.4550209  36.1705327
  41.7952776  21.7977238  37.9690504  41.1482525  20.9359765  37.8051853
  42.5941324  21.5139294  38.6541748  41.1330271  22.9809785  38.6826587
  41.8715811  23.7806201  38.7393713  40.2683163  23.3253932  38.1154299
  40.6314611  22.6540971  40.0929880  41.5099096  22.3782611  40.6763697
  40.2167177  23.5574794  40.5401897  39.6235180  21.5680742  40.0144911
  39.0930843  21.5123010  39.1568017  39.0982294  20.7963824  40.9717703
  37.9872918  20.1388788  40.7919693  37.4675012  20.3345013  39.9483728
  37.3771024  19.8544919  41.5448904  39.6316338  20.6917858  42.0846796
  40.6106520  20.9068561  42.2086525  39.1837525  20.2013350  42.8455734
  41.0684633  22.1317697  35.5965734  40.5217886  23.1850553  35.2824807
  40.5484629  20.9147048  35.3181481  40.8109665  20.1212311  35.8852410
  39.5019341  20.6982541  34.3574476  39.0082955  21.6555810  34.1902804
  40.1071310  20.4556108  32.9712915  39.2773414  20.5440021  32.2700524
  40.7862473  21.2831283  32.7660465  40.7684517  18.9774501  32.7624106
  41.4441824  18.6658764  33.5589099  39.9791360  18.2311118  32.8522182
  41.5465164  18.9155436  31.4680338  41.0613728  18.2940590  30.4631329
  42.5817633  19.5876181  31.2935400  38.4005904  19.6890628  34.6677065
  38.4902120  18.8754129  35.6144547  37.3661327  19.7342968  33.8631129
  37.3817444  20.5008578  33.2056642  36.1453629  19.0697038  34.1472745
  36.3674808  18.0482745  34.4562244  35.4730892  19.9411941  35.2730417
  36.0449028  19.7696340  36.1850166  35.5751967  21.0012436  35.0407290
  33.9835644  19.6086133  35.6203890  33.7088513  20.3737378  36.3464904
  33.4355497  19.7054756  34.6831632  33.7119675  18.2477820  36.2476850
  34.5112109  17.3009515  36.1789751  32.6071954  17.9323852  36.7333889
  35.1983786  18.8098168  32.9414225  35.2256203  19.5171237  31.9095683
  34.4364429  17.6588929  32.9608846  34.2937517  17.1386886  33.8147736
  33.5865712  17.2605097  31.7883992  33.4228587  18.0385339  31.0427570
  34.2039227  16.1242533  30.9536982  34.1613650  15.1383197  31.4165425
  33.5565233  15.9679902  30.0908232  35.6631470  16.3443935  30.3934669
  35.7503176  17.1375322  29.6508837  36.2652755  16.5433681  31.2800121
  36.1997795  15.0783050  29.6680951  35.4623652  14.1966581  29.2918110
  37.5248432  14.8930478  29.5252156  37.9762793  14.1318989  29.0384316
  38.1816077  15.5679250  29.8903179  32.1966481  16.8136311  32.2361469
  32.0876622  16.3452876  33.3620214  31.1562324  16.9880986  31.3976645
  31.3820362  17.2991550  30.4636598  29.7624922  16.6356361  31.6801310
  29.7793460  15.7398820  32.3009706  29.0036821  17.7066052  32.5599527
  29.7161317  18.0985713  33.2858157  28.7122989  18.5808063  31.9777393
  27.6843309  17.2216547  33.1936073  27.2449064  16.0641193  33.0455399
  27.0460868  18.1078291  33.8392472  29.1172528  16.4323294  30.2830720
  29.7296596  16.6872478  29.2364526  27.8613782  15.9770548  30.2428079
  27.3281789  15.8328724  31.0883904  27.1993327  15.5431664  29.0138173
  27.9517913  14.9967813  28.4451628  26.0118079  14.6202552  29.3382120
  26.3927150  13.6986792  29.7783303  25.4487681  15.0207901  30.1812196
  25.0971174  14.3290591  28.1529999  23.8603616  14.9899948  28.1188345
  23.5761428  15.7319844  28.8503242  22.9310226  14.5160234  27.1343827
  21.9354534  14.9344468  27.1213937  23.1938815  13.4167016  26.3408136
  22.4161100  13.0906534  25.6661534  24.4775820  12.8331804  26.3002777
  24.7691774  12.0200527  25.6520510  25.3412104  13.1864059  27.3585510
  26.2441802  12.5981629  27.4293900  26.9417667  16.8211424  28.1910896
  26.1152744  17.6864326  28.4922433  27.7093959  16.9871712  27.0697904
  28.2420301  16.2036896  26.7197061  27.7416730  18.2486820  26.2836790
  28.0922222  17.9202986  25.3052211  26.7289567  18.6158800  26.1173344
  28.5566401  19.4074440  26.7877340  28.2700992  20.5088377  26.2959456
  29.5037317  19.2089367  27.7181888  29.5440936  18.2763219  28.1038117
  30.2196693  20.2594399  28.4420729  30.2516294  21.1752677  27.8518748
  29.4815922  20.5488133  29.8272443  29.1855431  19.5592415  30.1753926
  30.3383946  21.1533427  30.9284949  30.0519705  20.9494877  31.9602418
  31.3518858  20.7529283  30.9530759  30.4777026  22.2162604  30.7312989
  28.1557393  21.3366604  29.7038984  28.3590579  22.3549032  29.3723249
  27.5302792  20.7859206  29.0013409  27.3771977  21.4307308  31.0317588
  27.9321766  22.0207310  31.7611408  26.4095855  21.9186330  30.9143615
  27.1805072  20.4223132  31.3957763  31.6291118  19.8720968  28.6761212
  31.8654585  18.7735462  29.1330624  32.5409389  20.8153319  28.4900022
  32.1723294  21.7556334  28.4822440  33.8502598  20.6870651  29.0595078
  33.8872099  20.0235415  29.9234962  34.7656155  20.3026080  27.9214835
  34.3348145  19.3749332  27.5447440  34.7147226  21.0614061  27.1406293
  36.1923218  20.0793314  28.3542180  36.6735339  21.0572767  28.3416247
  36.3184166  19.6308041  29.3396282  36.9698977  19.1878688  27.3887396
  36.6946507  19.2238164  26.1816525  37.9593086  18.5929608  27.7917457
  34.1842127  22.0470548  29.6747732  33.6055613  23.0216432  29.2314649
  34.9895382  21.9876313  30.7579899  35.3405237  21.0782194  31.0223317
  35.1456285  23.1515288  31.6132784  34.8448110  24.0779614  31.1240554
  34.3338490  23.1558704  32.9290152  34.6056747  22.3097157  33.5600710
  34.5501995  24.4159079  33.8013196  33.9945197  24.4190025  34.7390389
  35.5407333  24.5581555  34.2334175  34.2587805  25.3259897  33.2769847
  32.8590155  23.0100226  32.6169538  32.5043154  23.8527632  32.0235920
  32.6142859  22.0924854  32.0818448  31.9811821  22.9776287  33.8393569
  31.0451937  22.5343680  33.4994364  32.4147511  22.2766900  34.5526671
  31.7869139  23.9437580  34.3051410  36.6703868  23.1336403  31.9421101
  37.1755767  22.1984434  32.5774789  37.3929191  24.2286205  31.7349148
  36.9909906  24.9924254  31.2103629  38.7464881  24.4949555  32.1981859
  39.0298581  23.6379266  32.8091717  39.7521186  24.5745921  31.0249305
  40.7721567  24.5880580  31.4089131  39.6295667  23.2803249  30.1810455
  40.5739594  23.1051302  29.6657515  39.4436431  22.4941993  30.9128499
  38.8171220  23.2533360  29.4548845  39.5489073  25.8449268  30.1518726
  38.4991741  25.9132433  29.8663950  39.7562623  26.7688227  30.6918001
  40.2188396  25.8249807  29.2922831  38.7356806  25.7172322  33.0799007
  37.8688741  26.5731096  32.9004788  39.7397470  25.8329463  33.9679313
  40.4243374  25.0984120  34.0769935  39.7898579  26.9309425  34.9216294
  39.1935635  27.7680230  34.5585370  39.2150855  26.3761187  36.2840676
  39.8297811  25.5982614  36.7370439  39.3718576  27.1859694  36.9965792
  37.6926994  26.0169220  36.2473083  37.1336770  26.9313121  36.0485983
  37.4245524  25.3275609  35.4466987  37.1886992  25.3239894  37.5867772
  37.8290439  24.4827604  37.8520846  37.2894406  26.0742474  38.3710432
  35.7551479  24.9103808  37.4181962  35.2308416  25.8257318  37.1437192
  35.7664180  24.1554976  36.6319895  35.1692629  24.3271303  38.6316204
  35.6866980  23.5940742  39.0952897  34.8457479  24.9617290  39.3476701
  34.2646909  23.9816761  38.3443713  41.2178898  27.3019743  35.1811004
  42.1118736  26.4428401  35.1772451  41.4437151  28.5976887  35.2638006
  40.6331015  29.1984391  35.2178335  42.7491426  29.2682004  35.3233981
  43.5589933  28.5390711  35.3482080  42.9014444  30.0772071  34.0346432
  41.9948101  30.6208301  33.7689590  44.0468740  31.0753536  34.1466999
  44.3702364  31.3044405  33.1312919  43.6564922  31.9874501  34.5981240
  44.8629808  30.6477761  34.7291517  43.2498455  29.1710782  32.8331518
  42.6629257  28.2531261  32.8646064  43.1804323  29.6400905  31.8516684
  44.2627668  28.7701702  32.7962589  42.8906250  30.0939059  36.5459967
  41.9322634  30.7034755  36.9992352  44.0706158  30.0164485  37.2072601
  44.7849989  29.3955517  36.8547750  44.3503046  30.9610772  38.2913542
  43.5897017  31.7393041  38.3541393  44.4065285  30.2104926  39.6277094
  45.2797699  29.5591974  39.6646476  44.6698618  30.9402585  40.3933477
  43.1485033  29.4317389  40.1799297  42.3419762  30.1624751  40.2402401
  42.8293753  28.7524319  39.3894839  43.3743429  28.8260984  41.5273142
  44.2965508  28.2487082  41.4620781  43.4517717  29.6075368  42.2832632
  42.1723986  27.9640102  41.9878149  41.3329744  28.5981107  42.2731066
  41.9025135  27.3375583  41.1376286  42.4867153  27.2226477  43.2835674
  42.5092745  27.7110219  44.1673517  41.8228436  26.4738560  43.4202337
  43.3758497  26.7473292  43.2233477  45.7003069  31.6998482  38.0656838
  46.7474937  31.0191011  37.9670262  45.7347250  33.0099297  37.7217984
  44.8563766  33.4676075  37.5239754  46.8831873  33.6805534  37.1818495
  47.7528667  33.0256915  37.2359419  46.6882801  33.9304852  35.6823182
  45.8661938  34.6224308  35.4993105  47.5645828  34.4124532  35.2488399
  46.5347147  33.0738735  35.0260139  47.2215939  34.9248481  38.0097294
  46.3955069  35.4185033  38.7974358  48.4064102  35.5516553  37.7528358
  49.0653467  35.0434995  37.1803999  48.9664268  36.8107629  38.3875918
  48.1928968  37.3919678  38.8895440  49.9937057  36.4496922  39.4985843
  50.6586313  35.6381798  39.2029047  50.8531713  37.6915741  39.8051357
  50.2496767  38.4912133  40.2346373  51.5559149  37.4307013  40.5964613
  51.4611053  37.9970765  38.9535570  49.3033314  35.9506702  40.7645082
  48.8781977  36.8350911  41.2390184  48.4158850  35.3973651  40.4572821
  50.2851009  35.2244854  41.6749907  50.6523943  34.3087268  41.2117577
  51.1689520  35.8085632  41.9314337  49.8445368  34.9164319  42.6232052
  49.5326519  37.6505208  37.2328568  50.1669788  37.0911574  36.3588500
  49.4523001  38.9430046  37.3174787  48.9411306  39.2953730  38.1141257
  50.1432514  39.8825955  36.4989781  50.1140594  39.6516156  35.4341340
  49.7139835  40.8660412  36.6904569  51.6627693  39.9505377  36.6344666
  52.0511246  40.2533484  37.7720165  52.4640656  39.8817873  35.5616188
  52.0704222  39.4961429  34.7151971  53.9320183  40.0286436  35.5461383
  54.2534351  40.0314379  36.5876675  54.5271873  38.7243152  34.9711704
  54.4333744  38.6122561  33.8910127  55.5795908  38.7774253  35.2499771
  54.0421867  37.4226022  35.5783343  53.0055714  37.3064184  35.2620459
  54.5990992  36.6498899  35.0483656  54.1770315  37.3906994  37.0848250
  55.0860929  37.9572964  37.2865391  53.3622169  37.9143167  37.5848293
  54.1700840  36.0223937  37.6075459  54.2268944  35.3396940  36.8653893
  54.0559053  35.6120300  38.8209033  53.8037443  36.3360739  39.8785162
  53.8385534  37.3271322  39.6869636  53.8755703  36.0343790  40.8397245
  54.0918875  34.3248558  39.0118289  54.5188713  33.7098622  38.3339095
  53.7512016  33.9354539  39.8792410  54.5048904  41.3721228  34.9606442
  54.5111179  42.4064159  35.6821012  55.0294256  41.2532377  33.7515402
  54.8255825  40.4285192  33.2052851  55.8311129  42.2714281  33.0258512
  56.3583660  42.8652668  33.7724924  56.8303061  41.6359520  32.0237470
  56.3125896  41.2971401  31.1263728  57.4689913  42.3906660  31.5648508
  57.6871204  40.4838181  32.6230955  57.1266937  39.7528553  33.2059526
  58.1965065  40.0708103  31.7524362  58.7356520  40.9927464  33.6010194
  58.5141134  40.7024527  34.7886586  59.7264576  41.7122078  33.1946921
  60.4422903  41.7468071  33.9063764  59.7939157  41.9882393  32.2254872
  54.9354839  43.2584572  32.2656751  54.0889168  42.9112768  31.4446902
  55.1040268  44.5541382  32.5249100  55.6685591  44.7139645  33.3470154
  54.5774269  45.6786728  31.6875839  53.4951544  45.6211615  31.5714502
  54.8572779  47.0383978  32.4127889  55.8891582  47.1032906  32.7579141
  54.5886183  47.8580475  31.7463803  54.0095043  47.1434736  33.6795163
  52.9472876  47.1107817  33.4371758  54.1687059  46.2628841  34.3018675
  54.3408108  48.4368038  34.5519423  53.6257982  48.5766506  35.3626823
  55.3409672  48.3267403  34.9710774  54.1352081  49.6445751  33.7972474
  53.1835842  49.9743509  33.7213492  55.0605154  50.4247475  33.2825828
  56.3572598  50.1299620  33.3007836  56.7410994  49.2921066  33.7140131
  56.9478369  50.7812929  32.8037095  54.7109890  51.5269423  32.7330136
  53.7246227  51.7207766  32.6350093  55.4754114  52.1086550  32.4209666
  55.2218103  45.6734514  30.3326178  56.3817739  45.5380535  30.1159835
  54.4244766  46.1276245  29.3085241  53.4219885  46.2336016  29.3708682
  54.9313498  46.2375307  27.9857707  55.9668112  46.5646172  28.0802512
  54.8826456  44.8886204  27.3003745  55.2812672  44.8259497  26.2878156
  55.5034447  44.1715622  27.8375268  53.5225201  44.2913580  27.3051286
  52.5343370  44.7083187  26.3729024  52.9103851  45.4425573  25.6758475
  51.2846375  44.1078901  26.2554407  50.6080008  44.3928432  25.4633760
  50.9218550  43.0173206  27.1274853  50.0236416  42.4478865  26.9394493
  51.9039297  42.5397253  28.0373096  51.7750692  41.7009640  28.7053537
  53.2342768  43.1326771  28.0614448  53.9709330  42.6462984  28.6836791
  54.1992712  47.2926331  27.0962930  53.0113554  47.6249552  27.3174739
  54.9412727  47.7646780  26.1181927  55.9170580  47.5040960  26.1114597
  54.5467806  48.4488440  24.8820424  53.8539553  49.2447281  25.1552892
  55.7511520  49.2444658  24.2133808  56.5189648  48.5763121  23.8233280
  55.3531599  49.6201611  23.2707500  56.2956429  50.2268839  25.2297902
  55.4555273  50.8157682  25.5979204  56.7216825  49.6777678  26.0694718
  57.3512650  51.1786270  24.5518565  57.8624439  51.7778444  25.3053403
  58.0914974  50.6533194  23.9483595  56.7396832  52.1828604  23.5173273
  57.5300455  52.8733492  23.2229567  56.5771866  51.5977812  22.6121330
  55.6581879  53.0044842  24.0466595  54.7886419  52.4916792  24.0786743
  55.9070969  53.4776926  24.9035239  55.4013062  53.7390280  23.4027982
  53.9935923  47.4527454  23.9038277  54.5407200  46.3774920  23.7719750
  53.0083895  47.9305506  23.1655598  52.5925541  48.8091278  23.4399390
  52.2347355  47.1473026  22.1539235  52.5227833  46.1010599  22.2564125
  50.7361841  47.1700907  22.5205326  50.4321957  48.2145119  22.5903940
  49.7975683  46.4430809  21.5450454  50.0229311  45.3867579  21.6916251
  48.7672853  46.6512299  21.8336487  49.9577093  46.7911673  20.5246067
  50.4530907  46.5176249  23.9519215  50.9329557  45.5417681  23.8774967
  51.0360956  47.0691109  24.6895289  49.3819714  46.4135218  24.1250396
  52.4543381  47.6067734  20.7097554  52.2873116  48.8032007  20.3906894
  53.0076313  46.7204571  19.8707128  53.0571651  45.7451153  20.1283193
  53.4404230  47.0668411  18.5398078  53.4609842  48.1563950  18.5165060
  54.8524809  46.5748119  18.2949042  54.7662735  45.4883623  18.3121860
  55.1377678  47.0722246  17.3679316  55.9020519  46.9559145  19.3840885
  55.4863596  46.8058205  20.3804660  57.0762348  45.9784317  19.2430985
  57.4079847  45.9088802  18.2071435  57.9152298  46.4117908  19.7875094
  56.7931604  44.9839735  19.5881045  56.3553524  48.4177446  19.3138313
  56.9702387  48.5849094  18.4294856  55.4670668  49.0493727  19.3237627
  57.0081377  48.6297083  20.1606154  52.4593878  46.6469097  17.4524772
  51.9879818  47.4418926  16.6753078  52.0343399  45.3573370  17.4703360
  52.3629427  44.7681761  18.2220066  51.0499620  44.7945499  16.5519273
  50.3658104  45.5889320  16.2535930  51.7020798  44.3092775  15.2524602
  52.3020744  45.1140928  14.8277509  52.2710848  43.4304857  15.5558693
  50.6820393  43.8286257  14.0990853  50.0749540  42.9873323  14.4334066
  49.9573326  44.6192932  13.9048159  51.3092136  43.4204435  12.7577984
  52.5523710  43.1826639  12.6222622  50.5560398  43.5970449  11.7845345
  50.2559757  43.5911322  17.1090400  50.8107042  42.7604914  17.7707601
  49.0066862  43.5995626  16.9449019  48.6202908  44.4251299  16.5098870
  48.0428886  42.5968218  17.3758960  48.5062790  41.8428087  18.0121589
  46.8282413  43.2200861  18.0908144  46.3155890  43.7279892  17.2739136
  46.2225103  42.4263144  18.5279763  47.1076679  44.2461634  19.2634869
  47.8223228  44.9728251  18.8770485  45.8859015  45.0494480  19.6371210
  45.5445814  45.6644106  18.8043940  45.1416636  44.4729424  20.1865339
  46.2004185  45.8990526  20.2432156  47.7410412  43.5502625  20.4498696
  46.9400024  42.8986692  20.7989597  48.6511946  43.0085897  20.1923513
  47.9987144  44.3306112  21.1659431  47.4715185  41.7560053  16.1778688
  46.5683794  42.1867800  15.4897547  48.0232573  40.5891609  16.0309064
  48.7673855  40.3790522  16.6806996  47.9382038  39.8159814  14.7969615
  47.7644205  40.4889870  13.9573383  49.2851877  39.1919613  14.3886089
  49.5837736  38.5860324  15.2440608  49.1782379  38.4101963  13.6366081
  50.3574038  40.2042198  14.0944874  49.9670506  40.7788038  13.2544982
  50.4405451  40.9049606  14.9252415  51.6644859  39.4914126  13.6214566
  52.0392561  38.6986232  14.2688632  51.5209627  38.9314580  12.6973605
  52.8311682  40.3444099  13.5022950  52.7092648  41.3303757  13.3203232
  54.0616751  39.9719381  13.4068441  54.9095726  40.8869362  13.1837749
  54.6163559  41.8466759  13.0696499  55.9038496  40.7352400  13.0915773
  54.4832706  38.7641025  13.5387731  53.8161564  38.0272508  13.7179708
  55.3821039  38.4514260  13.2004941  46.7944336  38.7936425  14.9143744
  46.9850683  37.7632952  15.5385399  45.6361818  39.1361761  14.3642867
  45.5195093  40.1059818  14.1074467  44.4494534  38.2495594  14.3290269
  44.3352938  37.8106093  15.3201830  43.1946325  39.1107249  14.0165055
  43.0946350  39.2911553  12.9462016  41.9609833  38.5090995  14.5516038
  41.5592098  37.8524089  13.7799573  42.1850014  37.9211736  15.4416919
  41.1909628  39.2739081  14.6528018  43.2980871  40.3658724  14.6814632
  43.3423996  41.0749197  14.0357983  44.6514702  37.2317863  13.1456614
  45.3099203  37.5416780  12.1098447  44.0209293  36.0836482  13.3380604
  43.5882139  35.9361339  14.2386711  44.3036938  34.8880243  12.5260198
  44.0585756  35.2120996  11.5145886  45.7667780  34.4788551  12.7701056
  46.0389948  33.6750484  12.0860744  46.4027214  35.3411746  12.5698984
  46.1611891  34.0141678  14.1775262  46.3870478  34.8655152  14.8196280
  45.2655029  33.6269808  14.6632516  47.3302794  32.9688668  14.2387366
  47.7898550  32.4981403  13.2049835  47.8572559  32.6794553  15.4093719
  48.6292601  32.0501089  15.5768251  47.5018978  33.1888437  16.2058282
  43.2711697  33.7859917  12.8557289  43.6386824  32.6218295  12.8638768
  42.0134306  34.1885018  13.0509758  41.8979645  35.1916385  13.0729902
  40.7983398  33.3389282  13.2053471  40.8446932  33.0330491  14.2505252
  39.5200944  34.1880059  12.9770935  38.6608768  33.7722039  13.5033607
  39.5932984  35.2151704  13.3344090  39.2291832  34.2420793  11.6068566
  38.2787251  34.3252230  11.5004444  40.8777666  32.0863867  12.2690153
  41.2626505  32.2578287  11.1396742  40.4658508  30.9003162  12.6134956
  40.8493280  30.1515412  12.0545828  40.0162125  30.4046273  13.9587963
  39.3845606  31.1736274  14.4034934  39.1881800  29.1587377  13.8501501
  38.8559151  28.9680862  14.8706174  38.2815623  29.4109273  13.3001089
  39.8446679  27.8902984  13.2364380  40.9472847  28.0344129  12.6203680
  39.3394804  26.7839885  13.3565772  41.2303543  30.1801467  15.0100815
  41.0143900  29.9427247  16.1922801  42.4381304  30.4492521  14.5546842
  42.5732088  30.5945563  13.5643601  43.7110853  30.6321716  15.3438509
  44.0266848  29.7326779  15.8724380  44.4720364  30.9776068  14.6440530
  43.6041641  31.6528463  16.4680612  42.7648926  32.5127411  16.4173341
  44.5276785  31.6080046  17.4688828  45.2579308  30.9155202  17.3834515
  44.6013546  32.5854731  18.5831237  43.5702848  32.8736520  18.7879455
  45.1205301  32.0370531  19.9017763  46.0776615  31.5392447  19.7462392
  45.3104162  33.0384350  21.0588765  44.3776083  33.5239363  21.3456702
  45.7672024  32.5008845  21.8898344  46.0593557  33.7477255  20.7065940
  44.2181015  30.9282613  20.4481983  44.2044640  30.1315665  19.7044301
  44.5988321  30.5608845  21.4011812  42.6749468  31.1869764  20.6032324
  42.4527788  31.9395304  21.3598132  42.3809242  31.5681839  19.6253097
  42.1225643  30.2969074  20.9044886  45.3242970  33.9109063  18.1724679
  46.3949919  33.9035630  17.6304531  44.7465515  35.1087379  18.4797418
  43.8120556  35.1075077  18.8629162  45.3817749  36.4272738  18.1755447
  45.5341434  36.3855505  17.0970500  44.4831085  37.5827289  18.5961592
  43.5202312  37.6174974  18.0864871  44.2864418  37.4342132  19.6579361
  45.1229382  38.9698219  18.4730685  45.9471607  39.0380478  19.1830742
  45.4823065  39.0006900  17.4444759  44.1520882  40.1178408  18.7358618
  43.4025240  39.9668908  19.7283316  43.9484406  41.0294151  17.8465807
  43.5228682  41.8909311  18.1576788  44.4461823  41.1309052  16.9736242
  46.7375135  36.5954161  18.9160919  46.7793036  36.3724828  20.1523662
  47.7694893  36.9347572  18.1940091  47.5860405  37.3350930  17.2850645
  49.2026758  37.1420789  18.7139988  49.2346621  36.7105865  19.7144449
  50.1982260  36.4154577  17.8362012  50.2252197  36.9074893  16.8639481
  51.1444855  36.6437364  18.3266973  49.8671246  34.8908830  17.6418102
  48.9238071  34.7111487  17.1261013  50.6665421  34.4900846  17.0185995
  50.0042343  34.0164709  18.8587689  50.9692478  34.0934229  19.5839870
  49.1209412  32.9739714  19.0674329  49.3374205  32.3405004  19.8237062
  48.3325481  32.6805329  18.5084820  49.6429920  38.6213660  18.9474177
  49.7786856  39.3651438  17.9545188  49.8114347  39.1211748  20.1842046
  49.6729565  38.4876919  20.9585571  50.2789640  40.4769707  20.4263520
  49.8023415  41.1088562  19.6769190  49.7075462  40.9821224  21.7880225
  50.2420282  40.4958725  22.6041079  49.8556376  42.0540428  21.9189978
  48.6183500  40.9695721  21.8279767  51.8395662  40.5331612  20.3641725
  52.5529194  39.9297738  21.1485839  52.3295927  41.2984514  19.4049656
  51.6167212  41.7013931  18.8137352  53.7576723  41.7806482  19.2996156
  54.4152689  40.9821224  19.6431530  54.1369629  42.2429419  17.8626943
  53.8775921  41.5237808  17.0857549  53.5819054  43.1589460  17.6603353
  55.6102800  42.6872921  17.6982725  55.8513594  43.6042309  18.2360482
  56.2315178  41.8838787  18.0941188  55.8821774  42.8757954  16.2325120
  55.2133560  42.1958971  15.7047582  55.5608463  43.8499928  15.8640242
  57.3596668  42.8972530  15.8259344  57.9509068  43.6833143  16.2956679
  57.7863073  41.9494820  16.1542892  57.4808407  43.0530500  14.3914473
  57.4093533  42.1286488  13.9908588  56.7481518  43.6454773  14.0277147
  58.4329939  43.3148527  14.1793942  53.8530588  42.9105616  20.3688121
  52.9924440  43.7971306  20.4035401  54.8798418  42.7697515  21.2625241
  55.4539919  41.9419527  21.1904097  55.1664734  43.6056137  22.4233961
  54.5726442  44.5161772  22.3437762  54.4872141  42.8524160  23.6201453
  54.4591904  43.6106730  24.4026780  53.0487633  42.3197412  23.5487962
  52.7413321  42.0202923  24.5507526  52.4091625  43.0660009  23.0775046
  53.1042528  41.4500999  22.8940105  55.2039051  41.7218208  24.2591143
  56.1544657  42.0023870  24.7127914  54.6657848  41.2358093  25.0729418
  55.3477049  40.9456301  23.5074759  56.6641569  43.9006996  22.6816297
  57.4437332  43.0650187  22.3788571  56.9476891  44.9414206  23.5115290
  56.0973740  45.3268480  23.8968968  58.2590103  45.2322578  24.0741777
  58.8993406  44.3732929  23.8735342  58.8439655  46.3888788  23.2384324
  58.8551903  46.1895180  22.1668744  58.3971596  47.3624802  23.4398341
  60.3661156  46.6415501  23.4960294  60.4711390  47.2462559  24.3968105
  60.9289312  45.7196808  23.6426282  61.0045338  47.4944544  22.3703408
  60.3595448  48.3124065  21.6942048  62.3648977  47.4777031  22.3565936
  62.9662895  48.0533171  21.7846727  62.8159237  46.8421364  22.9990315
  58.3398056  45.4603481  25.5856895  57.5195026  46.2995386  26.0398960
  59.2196369  44.7537518  26.3102889  59.7026205  44.0754938  25.7386303
  59.2637300  44.6531105  27.8032565  58.2156897  44.6895456  28.1005573
  59.9404192  43.3680201  28.3299422  60.9029484  43.2690811  27.8280973
  60.1486778  43.4584951  29.7965431  60.8080864  42.6041985  29.9496841
  60.6602335  44.3805742  30.0725508  59.2260313  43.4124851  30.3750849
  59.2442513  42.0915270  27.8137541  59.1226196  42.0595312  26.7310333
  59.8643064  41.2101364  27.9773855  57.8981161  41.7960453  28.3927298
  57.5260115  40.9756088  27.7791142  58.0054379  41.3739634  29.3919468
  57.2280359  42.6430511  28.2455301  59.9429798  46.0051632  28.3280230
  60.9627104  46.5649271  27.9036665  59.2317295  46.5746593  29.3196487
  58.5276985  45.9821892  29.7360778  59.4957209  47.8452969  29.9794340
  60.5576229  48.0483580  30.1181054  58.7980700  48.8998604  29.1017985
  59.4334412  49.0090370  28.2228851  57.8462982  48.5162067  28.7343287
  58.6849117  50.3319073  29.7870469  58.0322838  50.3316450  30.6600761
  59.9693108  51.0165930  30.1759791  60.3470325  50.5294800  31.0749555
  60.7583332  50.8389664  29.4452333  59.7671223  52.0462084  30.4711246
  58.0931664  51.3056326  28.8242507  58.0465555  52.2654438  29.3387294
  58.7036943  51.3780403  27.9241896  57.1008492  50.9352303  28.5669327
  59.0113449  47.8272724  31.4091015  57.7921677  48.0855227  31.7226052
  59.8321724  47.3388720  32.4069571  61.2330055  46.9301319  32.2086549
  61.8733692  47.7696562  32.4792719  61.4020061  46.4362860  31.2517571
  61.4233351  45.9143019  33.3194470  62.4771404  45.7924652  33.5699344
  60.9400129  44.9675894  33.0781388  60.6703806  46.4403915  34.4664979
  61.3116217  47.1034670  35.0472260  60.3691053  45.6293869  35.1295257
  59.4329214  47.1775341  33.8177896  58.6518717  46.4235735  33.7197924
  58.9412928  48.4579468  34.5814848  57.8660488  48.4502935  35.1653171
  59.6900129  49.4841623  34.5170808  60.8272409  50.8952045  50.8380985
  61.6303253  50.4373503  50.4312420  60.0254488  50.2871752  50.7513475
  61.0135555  50.9224606  51.8303919  60.4951572  52.2635984  50.3762579
  61.3499498  52.9187584  50.5441761  60.0297642  52.3422861  48.8967371
  60.8842278  52.1360493  48.2521772  59.2947245  51.5586329  48.7131310
  59.6368933  53.7613010  48.4990025  59.3003845  53.8304186  47.4645519
  58.8177586  54.1180897  49.1233587  60.8107805  54.7996759  48.7375116
  60.5048800  55.7013893  49.5690060  61.9221449  54.7415876  48.2188463
  59.4950914  52.9059935  51.3611031  58.3456039  52.4880505  51.3602209
  59.8310757  53.9328241  52.1613312  60.7946253  54.1684341  52.3514938
  58.8663292  54.6220064  53.1029177  58.7628460  54.0592670  54.0306616
  59.4106436  55.9784985  53.4122753  59.3560648  56.6382885  52.5463676
  58.6222124  56.6130257  54.5605612  59.2428112  57.4122620  54.9657440
  57.6910448  57.0096540  54.1559458  58.4282589  55.8579779  55.3223896
  60.7074785  55.9364605  53.8919163  60.9406519  56.8249083  54.1710043
  57.4147701  54.8296976  52.5543594  56.4599323  54.5483875  53.2612705
  57.2525978  55.1788568  51.2909365  58.1479883  55.1317453  50.8260107
  56.0442638  55.3965569  50.5362988  55.3740263  56.0412359  51.1048651
  56.4220524  56.0059214  49.1200590  56.8958282  56.9646263  49.3310642
  57.1688223  55.3590822  48.6595821  55.2397203  56.2743187  48.1587172
  54.7797251  55.3401423  47.8364992  54.1787434  57.2436905  48.6928129
  53.7617302  56.9439077  49.6542358  54.5760345  58.2465696  48.8493156
  53.4192419  57.3803234  47.9230165  55.8680773  56.9067335  46.9240427
  56.4737844  56.0847378  46.5425491  55.0913477  57.2564793  46.2439823
  56.5321732  57.7406454  47.1513510  55.1528549  54.1558266  50.3949404
  53.9241028  54.2249250  50.5045080  55.7448196  52.9573011  50.2050400
  56.7464066  52.8399372  50.1488113  55.1062632  51.6324806  50.2760458
  54.2580414  51.6486692  49.5916796  56.1975098  50.5715084  49.8990583
  57.0706415  50.6908751  50.5405378  55.7655334  49.5817280  50.0468159
  56.6243076  50.7081318  48.4461021  55.7333755  50.8320522  47.8304863
  57.2106028  51.6260290  48.4033346  57.5909185  49.4884729  47.5908661
  58.1422281  50.4259491  46.1713791  58.7376928  49.8033571  45.5036211
  57.2066832  50.7221794  45.6969309  58.6048937  51.3456631  46.5293884
  54.5458984  51.4258337  51.7029190  53.3880854  51.2434912  51.9194126
  55.4275990  51.6795492  52.7633953  56.4072847  51.7918873  52.5450134
  54.9628687  51.6625166  54.1842842  54.5799255  50.6698084  54.4208956
  56.2449217  51.9391584  55.0990629  56.6635084  52.9334641  54.9433708
  55.9001017  52.0556927  56.1264992  57.4398565  50.9945393  55.0210285
  57.3468113  49.9124289  54.3553972  58.4617472  51.4503813  55.4911327
  53.7846947  52.5924015  54.4781065  52.8125048  52.2336578  55.1130676
  53.8511705  53.8832664  53.9959335  54.7098064  54.1771460  53.5526752
  52.8630114  54.9236393  54.2737675  52.6476669  55.0013828  55.3394508
  53.2215214  56.2749577  53.7789249  53.6577749  56.1602545  52.7866411
  52.3069286  56.8664122  53.8214445  54.4650745  56.8649769  54.5540619
  54.2086506  57.0299149  55.6005526  55.2314758  56.0899687  54.5632744
  55.1394796  58.1198978  53.9080000  55.9693146  58.3957386  54.5586824
  55.5499840  57.8694582  52.9298019  54.1494083  59.1789675  53.8585234
  53.3965492  59.2133522  54.5309258  54.1739416  60.2918196  53.1210661
  55.1009893  60.5572081  52.2056389  55.9059954  59.9580669  52.0911741
  54.9181652  61.3119841  51.5598965  53.2139349  61.1651611  53.1524611
  52.4557400  61.0463953  53.8090754  53.2415247  62.0231152  52.6202440
  51.5015459  54.5867300  53.6597395  50.4561567  54.6997166  54.3279028
  51.5078878  54.0690851  52.4528217  52.3468304  53.8881731  51.9203281
  50.2553606  53.5625315  51.8049622  49.4471407  54.2923260  51.8526936
  50.5843401  53.2609844  50.3872156  51.5293741  52.7222967  50.3177500
  49.5671320  52.2916842  49.6888781  48.5599422  52.6329470  49.9280596
  49.7155905  52.0987225  48.6264133  49.6643829  51.3446617  50.2197218
  50.7685661  54.5189571  49.5189714  49.8218060  55.0353527  49.3605709
  51.3370180  55.1717806  50.1813841  51.5670633  54.2550945  48.1923437
  52.5630808  53.8187408  48.2674742  50.9178066  53.6773586  47.5344753
  51.7311382  55.2351904  47.7444601  49.7519541  52.3350716  52.5560093
  48.5347795  52.2837830  52.8958035  50.6154537  51.3084364  52.8806591
  51.5315342  51.2780476  52.4564219  50.2286196  50.1771450  53.7448502
  49.3884087  49.6371269  53.3083439  51.5178728  49.2913532  53.8447618
  52.3726797  49.8803902  54.1770887  51.3487291  48.5074902  54.5830393
  51.9272423  48.5134172  52.5451183  51.1339235  47.8152514  52.2780752
  51.9538593  49.2082167  51.7056847  53.2754326  47.7510548  52.7065897
  54.0545464  48.5131741  52.7225113  53.2500124  47.2337866  53.6656952
  53.4974384  46.6978455  51.5598202  52.6072550  46.0706997  51.5111828
  53.7220383  47.1794319  50.6081200  54.6070194  45.8861971  51.9148540
  54.3806553  45.3263187  52.7244234  54.8968267  45.4276276  51.0629034
  55.4417753  46.3587761  52.2310019  49.7848320  50.4537678  55.1983881
  48.8497066  49.7853947  55.6626701  50.1035786  51.6706324  55.6745958
  50.8374882  52.1162844  55.1427317  49.6060562  52.2777987  56.8836498
  49.4450283  51.4952278  57.6251078  50.7508707  53.1332302  57.4743605
  51.5734386  52.4818230  57.7695704  51.1859608  53.8297987  56.7577028
  50.3053570  53.9764547  58.6538649  49.6353340  54.7559261  58.2911015
  49.7172213  53.2871103  59.2596674  51.5117788  54.4919300  59.5074511
  52.1917629  53.6588860  59.6856928  51.9858980  55.2306414  58.8612175
  51.1729193  55.2151632  60.8530998  52.0452929  55.6891775  61.3029623
  50.4988575  56.0178185  60.5539703  50.5574846  54.3455887  61.9082689
  49.5487452  54.3847179  61.8763590  50.7321024  53.3583927  61.7855930
  50.9404898  54.6182775  62.8021669  48.1690931  52.8982592  56.7397881
  47.2882748  52.6092434  57.5697660  47.9802561  53.6636400  55.6188440
  48.7002325  53.8625288  54.9390078  46.6135073  54.0181446  55.2750349
  46.1580181  54.6891975  56.0032654  46.6042328  54.9425650  53.9818621
  47.1536636  55.8226490  54.3160486  47.1861219  54.5212603  53.1620979
  45.2713823  55.4786205  53.4711695  45.4103088  56.2173367  52.6818037
  44.7576523  54.6803093  52.9355574  44.4813156  56.1083412  54.5406055
  44.3043613  57.3555851  54.3676138  44.0240526  55.4261446  55.5961895
  43.3310890  55.8800793  56.1739826  44.3412399  54.4780493  55.7397366
  45.7238817  52.7423477  54.9845886  44.6387386  52.7264214  55.5851173
  46.1059284  51.5740824  54.3727875  47.0168352  51.5791559  53.9365244
  45.3448105  50.3658676  54.1153288  44.3287897  50.6317616  53.8236046
  46.0580540  49.4203186  53.0484295  47.1329594  49.6001434  53.0299044
  45.7791758  48.4240055  53.3914900  45.4842138  49.5871019  51.6345310
  44.4255495  49.3285942  51.6119957  45.6530523  50.9586859  51.0133839
  46.7333317  51.0977459  50.9714317  45.3093910  50.9774590  49.9791431
  45.1568222  51.7243862  51.6096735  46.1400747  48.4885025  50.7304001
  45.5546808  48.3714771  49.8184156  47.0956039  48.8011932  50.3093386
  46.2724972  47.4711037  51.0984516  44.9928141  49.6375465  55.4034519
  43.8354015  49.1626787  55.5889225  45.9130955  49.5443678  56.3890982
  46.8603516  49.8104382  56.1610365  45.5560255  48.9712572  57.7569628
  44.8626423  48.1456900  57.5964737  46.7787933  48.3568382  58.4305573
  46.4687824  47.7008629  59.2440033  47.3285770  47.6867247  57.7696514
  47.8142071  49.3801546  58.9849329  47.7090454  50.3336668  58.4673834
  47.5625134  49.6740103  60.0039577  49.2618799  48.8296461  59.0083504
  49.7033072  48.4877968  58.0721998  49.9945116  49.5891953  59.2811823
  49.3536329  47.7418184  59.9974442  48.5413265  47.1482658  60.0866699
  50.2945662  47.3119783  60.8426332  50.0572777  46.2945032  61.6160917
  49.0843678  46.0704756  61.7689466  50.7891607  45.8919859  62.1839190
  51.5092421  47.6844835  60.6765890  51.5951967  48.4698153  60.0473261
  52.2624683  47.4978971  61.3230658  44.8199320  49.9344587  58.7203789
  44.3227005  49.4557762  59.7402811  44.7323084  51.2183714  58.3572865
  45.2122211  51.4059353  57.4886084  43.7624693  52.1056700  58.9730549
  43.7756586  51.9276953  60.0483513  44.1831255  53.5613394  58.8495445
  45.2180290  53.5907173  59.1904354  44.3605709  53.8654852  57.8179884
  43.3040237  54.5155716  59.6740389  42.3506451  54.4894123  59.1463184
  43.0764008  54.1453314  60.6736422  44.0552187  55.8830118  59.8009443
  44.1661406  56.4504051  60.9199619  44.4369936  56.4631462  58.7647486
  42.3612070  51.7818928  58.4928656  41.4063549  52.0197439  59.2251015
  42.1332026  51.3542938  57.2313023  42.8512955  51.3545465  56.5210629
  40.7958174  50.9130526  56.7582417  40.0488615  51.6716099  56.9922161
  40.7611942  50.5997181  55.2590513  41.3230944  49.7059631  54.9878120
  39.7113490  50.3440905  55.1155758  41.1035490  51.6685200  54.2498064
  41.3069916  52.9768324  54.5250893  41.3248158  53.4245825  55.5077410
  41.7003250  53.6269569  53.3665752  41.8401241  54.6240807  53.2871914
  41.8118334  52.7368736  52.3237753  42.2680330  52.9085207  51.0083818
  42.5691175  53.8969707  50.6941748  42.2109652  51.8331814  50.1524639
  42.4854326  51.8875694  49.1093349  41.8064022  50.5905724  50.6579876
  41.7930222  49.7377110  49.9955320  41.4602423  50.3904676  52.0049620
  41.1622572  49.4144678  52.3585653  41.4314699  51.5102577  52.8592491
  40.4013443  49.6363592  57.5238419  39.3376613  49.6017313  58.2479620
  41.1658478  48.5642338  57.4065161  41.9894838  48.5178518  56.8237782
  41.1061239  47.2998714  58.1963348  40.8195448  47.5428867  59.2195225
  40.1170635  46.2477589  57.6123095  39.1132164  46.6201019  57.4079990
  40.5755806  45.8707047  56.6981459  39.9358320  45.0711727  58.6167812
  39.6421909  45.3231525  59.8203516  40.1108742  43.9184141  58.2273436
  42.4800587  46.7037058  58.2974005  43.1623983  46.5877724  57.2639704
  42.8520060  46.2522173  59.4717455  42.1357441  46.2904310  60.1828098
  44.1805029  45.8248997  59.8788786  44.8516417  46.6834688  59.8558950
  44.1425133  45.2527189  61.3914871  43.8865423  46.0361958  62.1047497
  43.3063412  44.5571327  61.4627695  45.4689074  44.5605516  61.9102955
  45.2886772  44.1330481  62.8966331  45.7393456  43.7764072  61.2031317
  46.6728449  45.4664755  62.0495510  47.2135115  45.9375191  60.9713840
  47.1760941  45.6995916  63.1869078  44.7567463  44.7792959  58.8516712
  44.0767813  43.7853765  58.6189270  46.0214281  44.8954678  58.4756422
  46.5048838  45.6949759  58.8592529  46.8411827  44.1074705  57.5407505
  46.4825392  43.0850554  57.6596785  46.6698313  44.7556686  56.1522150
  46.7783642  45.8332586  56.2751627  47.4850035  44.3390560  55.5605841
  45.4799366  44.3452168  55.4151869  45.4198551  43.2929468  54.7783422
  44.4410706  45.1754141  55.2881145  43.7595892  44.9846745  54.5674801
  44.3752241  45.9396029  55.9452105  48.2996845  44.2534161  58.0222273
  48.8143539  45.3826189  58.0481386  48.8732243  43.1522989  58.5090971
  48.3945656  42.2649336  58.5688162  50.2963638  43.2238722  58.8890314
  50.4254961  43.9073181  59.7282791  50.8430243  41.7596579  59.2972517
  50.4979420  41.0326815  58.5620499  51.9213295  41.7278004  59.1412163
  50.6070232  41.2372160  60.7741022  49.5513201  41.0290813  60.9480906
  51.3472557  40.0025034  60.9945917  51.0162449  39.4126368  61.8493366
  51.1020231  39.3159842  60.1842451  52.4123859  40.2063084  60.8847666
  51.0700703  42.1571255  61.9187641  50.4167318  43.0291796  61.8909788
  50.9801292  41.6399288  62.8740263  52.0968771  42.4634647  61.7189693
  51.0923529  43.6025238  57.6237297  50.9396315  43.0465221  56.5616894
  52.0354939  44.5724678  57.7761793  52.1629333  44.9143267  58.7179804
  52.7896214  45.3267717  56.7218399  52.1094894  46.0508108  56.2731981
  53.9705753  46.0811806  57.3102427  53.6785936  46.5437412  58.2530499
  54.8142052  45.3961039  57.3942757  54.4419670  47.1536827  56.3499260
  54.6234226  46.7478609  55.3547001  53.6429691  47.8941917  56.3132048
  55.6472206  47.9051065  56.9345665  55.7193470  48.9115763  56.5223503
  55.4316330  48.0481720  57.9934072  56.9157696  47.1162748  56.6486263
  57.6991749  47.5346136  57.2805882  56.8266249  46.0819912  56.9809055
  57.4008369  47.1771336  55.2225399  57.3452568  48.1166649  54.8560810
  58.3474207  46.8273449  55.1809692  56.7617130  46.5897083  54.7062540
  53.2837677  44.5185900  55.5181074  53.0704355  44.8852968  54.3429804
  53.9720678  43.3827448  55.7194328  53.9632797  43.0333138  56.6670227
  54.5518255  42.4583912  54.6848297  54.3554211  42.9247665  53.7194109
  56.1080790  42.5069952  54.7213554  56.5629482  41.9706249  55.5541229
  56.5071630  42.0060921  53.8393545  56.6732836  43.9892626  54.7668695
  57.8005934  44.2158508  55.2457142  56.1765623  44.8742723  54.0891266
  54.0136909  40.9864044  54.7608376  54.3313408  40.1868629  53.8629341
  53.4366035  40.5859852  55.8799934  53.6013031  41.1389923  56.7089415
  52.7219391  39.2835522  55.9643650  53.3385706  38.5143995  55.4993153
  52.4849701  38.9063025  57.4219799  53.4547186  38.6592293  57.8539991
  52.1437740  39.7697878  57.9930162  51.4811134  37.6954174  57.6081562
  50.2847481  38.0392122  57.7365828  51.9339228  36.5142894  57.6153326
  51.4113235  39.3557501  55.1674986  51.0812521  38.4029198  54.3731213
  50.6073093  40.3784466  55.3855658  51.0442734  41.1733389  55.8297682
  49.2200470  40.4591227  54.9717808  48.8728046  39.4649959  54.6902943
  48.4126949  40.8874178  56.1570835  48.9124107  41.6645718  56.7353725
  47.4895763  41.3367033  55.7909012  48.1611824  39.8595595  57.1203756
  48.9121580  39.2888713  57.2991323  48.9989614  41.4627123  53.8020658
  47.8701162  41.6265345  53.3576727  50.1164198  42.0744514  53.3929205
  50.9197617  41.9844866  53.9984369  50.2105904  42.8803825  52.1400166
  49.4144106  42.6529980  51.4311504  50.0947475  44.3843269  52.5114775
  50.6015778  44.5621920  53.4599495  50.5745125  44.9977016  51.7487860
  48.6648560  44.9815321  52.7817869  48.0725622  44.2443752  53.3239079
  48.8351250  46.2201309  53.5979509  49.2500401  46.9822693  52.9383373
  47.9415560  46.6464472  54.0539026  49.5627403  46.1275291  54.4042444
  48.0005932  45.2982426  51.4586782  46.9665575  45.4841614  51.7490387
  48.2869387  46.2366056  50.9837294  48.0293989  44.4662905  50.7550240
  51.5751934  42.6535797  51.4005852  52.5219297  42.1547031  52.0940638
  51.5508986  42.5992012  50.0666046  50.4621601  43.0407238  49.1573048
  50.4124165  44.1290474  49.1915655  49.5526886  42.4881840  49.3932390
  50.9076023  42.6772785  47.6993418  50.8203506  43.3841372  46.8742085
  50.6155872  41.6705799  47.4003744  52.4590206  42.5979567  47.8753042
  52.8797340  43.6009455  47.8037834  52.8919458  42.0279503  47.0532513
  52.7231598  42.0937252  49.2893505  52.6680565  41.0051203  49.2899561
  54.0958643  42.5915098  49.7536373  54.2386723  43.7741280  50.0551367
  55.0641823  41.7266750  49.8679829  54.8786402  40.8059597  49.4965506
  56.3724375  42.0708036  50.3856707  56.3152409  43.0346107  50.8915472
  56.8970871  40.9557152  51.2981462  57.9016972  41.0297775  51.7145348
  56.2226963  40.8002377  52.1402454  56.8998384  39.7515416  50.4471350
  56.7657137  39.0029216  51.0329533  57.3426485  42.2783613  49.2199755
  58.3324099  43.0459213  49.3921137  57.0406246  41.8276644  47.9849958
  56.1573982  41.3629436  47.8299236  57.7879524  42.1298742  46.7701244
  58.8615847  42.0009708  46.9072390  57.3910236  41.0916662  45.7308960
  57.7180433  40.1194334  46.0995770  56.3040829  41.0800219  45.6501579
  58.1430292  41.2845135  44.4448996  57.8573322  42.1643639  43.6255407
  59.0910912  40.4250336  44.2539978  59.6271420  40.6261921  43.4219646
  59.2867517  39.6994162  44.9287558  57.4927902  43.5444260  46.3541889
  56.2965250  43.9039612  46.0573530  58.5658932  44.3981504  46.1954403
  60.0363302  44.1869164  46.3297033  60.4694033  43.4868145  45.6152725
  60.1512623  43.7959051  47.3406410  60.7141399  45.5717182  46.1066628
  60.9991550  45.7793283  45.0752735  61.5807629  45.6556273  46.7624283
  59.6353388  46.5328598  46.5235806  59.8460102  47.5007010  46.0686111
  59.5243835  46.6034079  47.6056194  58.2958889  45.8516598  46.0849857
  57.4216318  46.1142349  46.6806602  58.0732298  46.2828588  44.5930910
  57.6782513  47.4007463  44.3994808  58.3643103  45.3746033  43.6730480
  58.5647583  44.4382715  43.9942932  58.2058764  45.5122709  42.2646236
  58.4864616  46.5046215  41.9116211  59.0932178  44.5562029  41.5002728
  58.7932634  43.5243607  41.6831207  58.9874458  44.8165369  40.0021839
  57.9538012  44.7341108  39.6662045  59.1071939  45.8900595  39.8562241
  59.6725941  44.0866232  39.5710182  60.5499554  44.7158003  42.0763063
  60.7252693  45.7551050  42.3541641  60.4950905  44.1300344  42.9938936
  61.7291689  44.2710018  41.1345863  61.4115763  43.4015369  40.5590296
  62.0100307  45.1411772  40.5412722  62.5568247  43.9203930  41.7511511
  56.7103672  45.2716494  41.8812370  56.0750008  46.0264587  41.1928606
  56.1997986  44.1980505  42.3513842  56.7555523  43.7018156  43.0332851
  54.7363710  44.0423775  42.4569654  54.3234873  44.0481853  41.4482069
  54.2656517  42.7280092  43.1658697  54.7801542  42.6714134  44.1251326
  53.1921816  42.7508926  43.3535862  54.5628214  41.4322472  42.3383474
  54.6507311  41.5490627  41.1071491  54.7977734  40.3682041  42.9232550
  54.1224051  45.2495289  43.1478643  53.2403326  45.9098244  42.6126242
  54.5572329  45.6532764  44.3514442  55.1144075  44.9895000  44.8701525
  53.9385223  46.7415285  45.1223373  52.8636456  46.5724611  45.1868629
  54.3490648  46.7329884  46.6065502  54.4714451  45.6835556  46.8745279
  55.3295183  47.1803141  46.7700243  53.3357620  47.3479652  47.5577307
  52.2951841  46.5451097  48.0100203  52.2419500  45.5235291  47.6636839
  51.2794542  47.1575403  48.7853479  50.3682041  46.5954781  48.9271688
  51.3299942  48.4765196  49.2395067  50.5040503  48.9061499  49.7868872
  52.4336958  49.2898273  48.9063072  52.6103449  50.3033113  49.2350388
  53.4445524  48.7017250  48.0893469  54.2156124  49.3458557  47.6931620
  54.0440130  48.1695461  44.4776297  53.1610537  48.9866066  44.7768116
  54.8200607  48.3492565  43.4604597  55.4838848  47.5967264  43.3458376
  54.9400806  49.5256519  42.6520443  54.9665070  50.4127073  43.2849264
  56.2959337  49.4115591  41.9975567  56.5342712  48.4909534  41.4648533
  56.4350796  50.2692318  41.3394260  57.2897911  49.5415401  42.9829073
  57.3210764  48.7394762  43.5095119  53.8674831  49.7599554  41.6191149
  53.6598825  50.8562565  41.1348391  53.0154562  48.7460089  41.3705444
  53.2777548  47.9149437  41.8810654  51.7975521  48.7441301  40.5097246
  51.5613508  49.7911549  40.3198147  52.2986889  48.2042456  39.1935921
  52.9087925  47.3150969  39.3526220  51.4901018  47.8870535  38.5350513
  53.1301451  49.1827631  38.3800578  52.5500441  49.8727512  37.2996926
  51.5158701  49.7191763  37.0289350  53.3223534  50.8679056  36.6894388
  52.9172230  51.5584660  35.9645987  54.6221113  51.0813761  37.0127797
  55.3436470  52.1067095  36.4184403  54.7624826  52.6531076  35.8843112
  55.2718592  50.2455902  37.9381466  56.3180351  50.3597832  38.1807876
  54.5309401  49.2987967  38.6050534  55.0583458  48.6395741  39.2786026
  50.5475903  48.0703163  41.1459684  49.4389343  48.3898592  40.7979250
  50.6694317  47.2875690  42.1989298  51.5757895  46.9163561  42.4455357
  49.5332193  46.6586113  42.9240990  48.9692497  46.1675692  42.1310568
  50.0780296  45.5414295  43.8390732  50.5794287  44.8240709  43.1893921
  50.8875895  45.8778763  44.4867754  49.0654278  44.7851419  44.6897221
  48.6268282  43.4997559  44.5915461  48.9411879  42.8876638  43.7591314
  47.8482246  43.1855011  45.6932116  47.5240088  42.2514439  45.8994198
  47.7036428  44.2816591  46.5515995  46.9581938  44.4541693  47.7028513
  46.4056396  43.6251020  48.1196642  46.9934177  45.7121611  48.3624220
  46.4081955  45.9817457  49.2291594  47.7406788  46.7173624  47.7445173
  47.7427292  47.7148199  48.1586075  48.5010624  46.4934540  46.6045380
  49.0302753  47.3263073  46.1655664  48.4213591  45.2833080  45.9082985
  48.4917784  47.6708603  43.5766411  47.3164082  47.3510265  43.7045670
  48.9193344  48.8759279  43.8341618  49.9084473  49.0662670  43.7598133
  48.1929255  49.9492788  44.4517326  47.4520111  49.6763897  45.2031898
  49.2308950  51.0003853  44.9360466  49.9092293  51.3683558  44.1662645
  48.4564352  52.1435499  45.6279755  49.2277813  52.8050232  46.0224009
  47.7789211  52.6031780  44.9083805  47.8353357  51.6968775  46.4043856
  50.1897240  50.3733635  45.9957552  49.5855570  49.9784946  46.8125534
  50.7056952  49.5673418  45.4740143  50.8641386  51.1473989  46.3619947
  47.2187853  50.5129337  43.3335972  46.0185957  50.6571198  43.5594225
  47.7072430  50.8839607  42.1834898  48.6997604  50.8110762  42.0111609
  46.8528986  51.3796902  41.1348581  46.4639473  52.3412418  41.4698792
  47.7823019  51.6781282  39.9555111  47.0660543  51.8196440  39.1461539
  48.2728243  52.6497221  40.0146627  48.5112572  50.9221268  39.6636462
  45.8142281  50.4128838  40.7242632  44.7197723  50.8542871  40.3500748
  46.0633612  49.1115379  40.7455730  46.9618416  48.8454819  41.1224604
  45.1234579  47.9818201  40.6019306  44.4904804  48.1976843  39.7412133
  46.1113882  46.8652058  40.4275751  46.8341398  47.1811819  39.6753168
  46.6088152  46.6011953  41.3608313  45.6012154  46.0145044  39.9757671
  44.1408348  47.7086401  41.7281675  43.3336353  46.8029881  41.5920591
  44.1202354  48.4922838  42.8348017  44.8125839  49.2276430  42.8370094
  43.1987000  48.2237768  43.9569807  42.5484753  47.3538828  43.8643169
  44.1073656  48.1842756  45.1964331  45.0350285  48.7527704  45.1304054
  43.5353851  48.6661243  45.9893799  44.3021536  46.7121077  45.6038427
  43.4968328  46.2242556  46.3673735  45.3676271  46.0826254  45.2139044
  45.4987955  45.2639532  45.7906818  46.0068703  46.4558363  44.5267487
  42.0804644  49.2769337  44.1810656  41.0847712  49.0051460  44.8545265
  42.2834301  50.4614258  43.6492777  43.1582069  50.4835844  43.1449223
  41.4771175  51.6785908  43.9512873  41.2047815  51.6922045  45.0066280
  42.2760296  52.9324198  43.7008810  42.7278757  52.8699303  42.7109146
  41.6390276  53.8168335  43.7130785  43.4379387  53.0507326  44.7703552
  43.9396620  52.0871258  44.8588991  44.4535208  54.0881300  44.2423630
  43.9774323  55.0179672  43.9311790  45.2556467  54.2596006  44.9601984
  44.9898863  53.6269617  43.4130573  42.9911375  53.5660839  46.1707544
  42.4738550  54.5186472  46.0560989  42.3067379  52.8882694  46.6809130
  43.6600161  53.6944294  47.0217705  40.1391125  51.7444468  43.1338644
  40.1285028  51.2759829  42.0131540  39.0342307  52.3199940  43.6494350
  38.8915253  52.9732418  44.9554586  39.5412922  53.8479805  44.9284410
  39.0857124  52.3192644  45.8055782  37.3886776  53.4945154  44.9779701
  37.3903584  54.5789480  45.0879860  36.8576717  53.0349970  45.8116293
  36.8137002  53.0176353  43.6735296  36.1080813  53.7523603  43.2857418
  36.2517691  52.1127748  43.9049578  37.9524279  52.6925993  42.7406740
  37.7003026  51.8499899  42.0968246  38.2555342  53.9655161  41.8759918
  37.9986501  55.1075554  42.2451973  38.9278769  53.7542820  40.7632446
  39.1925430  52.7953529  40.5885839  39.2461991  54.7123861  39.7429919
  38.7121439  55.6214333  40.0196123  40.8068085  54.9239969  39.6825051
  41.0487413  55.5569267  38.8287044  41.2989330  55.6329679  40.9676313
  42.3052311  56.0443306  40.8885717  40.6871319  56.5258360  41.0964394
  41.2642241  55.0367928  41.8794775  41.5395069  53.5812950  39.4497395
  41.1462164  52.8909922  40.1959944  41.2960005  53.1702137  38.4700322
  43.0208302  53.5856295  39.6045780  43.3525085  54.5527840  39.2268133
  43.2700491  53.6554480  40.6634092  43.3782244  52.8337002  38.9010334
  38.7133312  54.2104816  38.3881640  38.4485602  53.0128527  38.2078552
  38.5456705  55.0673676  37.3724604  38.8551211  56.0151815  37.5336695
  37.9789019  54.6539259  36.0745168  37.1286130  54.0084648  36.2947226
  37.3293495  55.8836699  35.3747058  38.0665541  56.6846848  35.3198743
  36.9673228  55.5274487  34.4102669  36.1748481  56.4512968  36.2044072
  35.9627151  57.6865387  36.0469460  35.4426122  55.6808615  36.8667078
  38.9520907  53.9289331  35.1783800  40.1610947  54.0719032  35.3160834
  38.4507990  53.2434225  34.1458011  37.4466848  53.2610846  34.0383530
  39.2092967  52.3671150  33.1919622  39.6263838  51.5590143  33.7928939
  38.2206964  51.7744541  32.1741939  37.6349974  52.6353598  31.8518519
  38.8262749  51.3170528  31.3917875  37.2925520  50.7348728  32.7452660
  36.2905049  50.3590679  32.0904064  37.6563954  50.0703382  33.7803125
  40.3444195  53.1597328  32.6024914  41.5035868  52.7534199  32.7760220
  40.0971746  54.3252277  32.0206714  39.1602707  54.6913433  31.9296908
  41.1750221  55.2021599  31.5811467  41.7900991  54.8392057  30.7577085
  40.4835463  56.4713240  31.0236931  41.2526703  57.1990633  30.7649469
  40.0761366  56.3086271  30.0258732  39.5621204  57.1163797  31.9161558
  38.7090826  56.6790247  31.8646669  42.2427034  55.5733728  32.6425838
  43.4303999  55.8816099  32.3720431  41.8296576  55.8136559  33.9301944
  40.8560705  55.6769943  34.1616201  42.7971125  56.1282110  35.0051308
  43.5156012  56.8965483  34.7195935  42.0045328  56.5899420  36.2739038
  41.2766600  55.8290911  36.5557027  42.6316071  56.7227697  37.1555138
  41.1699820  57.8670931  36.1662912  40.2818394  57.7499294  35.5453467
  40.6413555  58.4171963  37.4888015  39.9954152  59.2685604  37.2742009
  40.1097155  57.5968599  37.9709935  41.4151955  58.7863159  38.1618714
  42.1185780  58.9442587  35.6324816  42.5697422  58.8386297  34.6458745
  41.5302515  59.8543406  35.5152822  42.8434229  59.1026878  36.4309859
  43.6918068  54.9634171  35.1746941  44.8599815  55.1911926  35.2620888
  43.1346369  53.7912321  35.0996399  42.1247196  53.7892246  35.0865364
  43.7816906  52.4215317  35.2322769  44.4348288  52.6203251  36.0819769
  42.7518797  51.3146877  35.5391407  42.2398949  51.5721416  36.4663339
  41.9503927  51.3645649  34.8021007  43.2644892  49.8854113  35.5894685
  43.4542513  49.5054913  34.5855999  44.2252207  49.9189091  36.1032534
  42.2633743  48.9982557  36.3863134  42.1338272  49.3822002  37.3981953
  41.2931013  49.0064812  35.8897281  42.6434994  47.5542021  36.4411426
  43.1293297  47.1786118  35.6392717  42.8490973  46.7524004  37.4791765
  42.1333122  46.7632294  38.5313678  41.1532688  46.9633102  38.3914304
  42.3572540  46.0490036  39.2094779  43.8774967  45.9094858  37.3792648
  44.3268490  45.8683729  36.4756632  43.9256048  45.2335358  38.1281853
  44.7778845  52.0182133  34.0916419  45.8597326  51.5296507  34.3100166
  44.3442011  52.3986053  32.8814864  43.3930063  52.7130365  32.7531791
  45.3155470  52.4362183  31.7821503  45.8641863  51.5002012  31.6774344
  44.5618582  52.6410961  30.4027367  44.2282057  53.6787510  30.4097748
  45.6359673  52.4826336  29.2509198  46.3802958  51.7107916  29.4467139
  45.1299953  52.2572231  28.3121514  46.2816000  53.3536339  29.1386008
  43.3763075  51.7393589  30.1185918  43.7741184  50.8521175  29.6260023
  42.9065275  51.2854290  30.9911466  42.3403072  52.4252176  29.2476225
  42.8841400  52.7962160  28.3788800  41.5536547  51.6858673  29.0971541
  41.8161535  53.2397461  29.7475266  46.4498854  53.4978437  32.0088410
  47.5814867  53.1188250  31.8085861  46.1472893  54.7340775  32.3649240
  45.1809359  54.9587870  32.5540447  47.0976591  55.7793808  32.4950957
  47.7556133  55.6927776  31.6304016  46.4360476  57.2198009  32.5290847
  45.9263802  57.4583817  31.5955877  45.6668854  57.3209333  33.2947683
  47.4257803  58.3887529  32.6728535  46.8481779  59.3114614  32.7284074
  47.9777431  58.2671118  33.6048627  48.4255028  58.4543180  31.4696622
  48.3676004  59.3077707  30.6265306  49.4668055  57.5926018  31.4951372
  50.2693605  57.7728701  30.9090352  49.5597458  56.9426680  32.2626305
  48.1101656  55.4126167  33.5569191  49.3646574  55.4501772  33.2720184
  47.6813316  55.1076269  34.7194481  46.6856527  55.2031040  34.8594737
  48.5143805  54.7103500  35.8850050  49.1773891  55.5447054  36.1138558
  47.5481796  54.6248770  37.1086001  46.6433477  54.1196203  36.7708182
  48.0312109  54.0101624  37.8681445  47.1235514  55.9621382  37.8185153
  47.9406834  56.1461687  38.5160303  47.0318985  57.2608137  37.0231819
  46.3259077  57.0510244  36.2196445  46.6979980  58.1706667  37.5219631
  48.0105925  57.4731302  36.5928555  45.8034658  55.7386732  38.5024953
  45.0448608  55.3692484  37.8124690  46.0104799  54.9711657  39.2482686
  45.5101490  56.6553545  39.0141320  49.3138933  53.3713531  35.7537699
  50.3683186  53.3726072  36.3593411  48.9325428  52.4041176  34.9559069
  48.0075598  52.3627281  34.5524287  49.8077345  51.3315392  34.4359899
  50.3573704  50.8993530  35.2721810  48.7973261  50.3138542  33.8048148
  48.1948900  49.8914576  34.6090245  48.0639601  50.9430361  33.3004284
  49.2495298  49.2538834  32.7938581  49.7184038  49.7201061  31.9273162
  50.1158714  48.1973982  33.5365677  50.9243107  48.7878895  33.9676619
  49.5577526  47.5690985  34.2307186  50.4946995  47.5217485  32.7696967
  48.0168581  48.5320616  32.2477365  47.5606060  48.1340122  33.1540990
  47.2488737  49.2049074  31.8661809  48.2574320  47.7163696  31.5659213
  50.8378839  51.7826033  33.3669019  51.8312407  51.0373306  33.2276750
  50.5135536  52.8120327  32.5705385  49.6312284  53.2335424  32.8233910
  51.3428974  53.3381033  31.4837551  51.9491720  52.5929403  30.9687161
  50.4165983  54.0261698  30.4060197  49.5001507  53.4412622  30.3278399
  50.2265835  55.0437450  30.7473969  51.0290861  54.1602755  28.9727712
  52.0787001  54.4530106  28.9996886  50.8532715  53.2633829  28.3788276
  50.3257370  55.2593994  28.1627512  49.2698622  55.1329803  27.9234719
  50.2889156  56.1411619  28.8024735  50.9653044  55.6172848  26.8236160
  51.8791151  56.1382151  27.1094131  51.3538265  54.7327232  26.3189340
  50.1448774  56.6037750  26.0696793  50.6844711  56.9657707  25.2964377
  49.3514299  56.1437368  25.6467128  49.8073530  57.3783302  26.6230845
  52.4642849  54.2827320  31.9725394  53.5817862  54.3398380  31.4371943
  52.2388506  55.0254822  33.0679560  51.2762165  55.0173903  33.3735323
  53.2776403  55.7747698  33.7032294  53.7546110  56.4681387  33.0105257
  52.6251316  56.4956665  34.9713278  51.8608189  55.8610821  35.4199123
  53.7382984  56.9211006  35.9821510  54.4254923  57.6155996  35.4988861
  53.2371092  57.5348949  36.7305923  54.1954470  56.1043358  36.5407324
  51.9841337  57.7772188  34.4609571  52.7207851  58.5212803  34.1579413
  51.3262987  57.6113510  33.6078215  51.0578823  58.4212303  35.5029702
  50.3645706  59.1359472  35.0595784  50.3888178  57.6452875  35.8749485
  51.6833878  58.8419819  36.2902498  54.4599724  54.9721718  34.2368746
  54.2114687  53.9679050  34.9342203  55.6813765  55.3439569  33.8479996
  55.7094812  56.1875391  33.2933068  56.9540882  54.7059631  34.2430115
  56.7445946  53.6705065  34.5114303  58.0073547  54.6693850  33.0827022
  58.2947302  55.6290865  32.6531863  58.9655542  54.2282629  33.3572364
  57.4776983  53.7452888  31.9420099  57.2916603  52.5236797  32.1395683
  57.3597622  54.2305899  30.7736754  57.5818110  55.2698612  35.4993510
  58.3711529  54.5884562  36.1471057  57.2304487  56.4451456  35.8580256
  56.8080997  57.0799541  35.1956511  57.8037357  57.1455097  37.0121431
  58.8878679  57.0476437  37.0685148  57.4442768  58.6120081  36.7514324
  56.3778257  58.7469244  36.5709066  57.7200890  59.1803741  37.6396847
  58.1398106  59.0991974  35.6039810  57.8355360  59.9369431  35.2473283
  57.2087431  56.6089535  38.3718276  56.3975620  57.3264265  38.9461064
  57.4925995  55.3746510  38.7773585  58.1118011  54.8324203  38.1919694
  56.7240238  54.5942163  39.7718596  55.6931639  54.5998001  39.4177556
  57.3452091  53.1823444  39.7711968  57.2517729  52.7292299  38.7842536
  58.4127283  53.2304907  39.9861026  56.8653250  52.4695730  40.4418421
  56.6780376  55.2933264  41.1297894  55.5778313  55.5903101  41.6246176
  57.8065491  55.7644081  41.6552782  58.6201143  55.3772783  41.1988354
  57.9591465  56.5119457  42.8380013  57.5184822  55.9044933  43.6285210
  59.4616461  56.8274736  43.0607510  59.9757528  57.2168446  42.1820116
  59.7506809  57.8904867  44.0873289  59.3925619  58.8308239  43.6682606
  59.4251299  57.6901627  45.1081085  60.8388567  57.9321814  44.1346121
  60.2864885  55.5178642  43.3889484  59.9816179  54.7969580  42.6303530
  61.3432837  55.7372189  43.2367563  60.1594687  55.0336933  44.8289871
  59.0941525  54.8452139  44.9619484  60.8347797  54.2412758  45.1516771
  60.4468632  55.7786560  45.5709696  57.0409155  57.7989960  42.7680588
  56.2514114  58.0156231  43.7629032  57.1857977  58.7192297  41.7797089
  57.7144861  58.4037828  40.9790325  56.2098885  59.7439003  41.5029335
  56.3379145  60.5917645  42.1758652  56.5847445  60.4521465  40.1462412
  57.6606226  60.5700445  40.0170803  56.3060045  59.8625326  39.2728806
  55.8963728  61.8183899  39.8354077  54.8076344  61.8141222  39.7832155
  56.1317730  62.4363279  40.7019186  56.5084076  62.6206303  38.6739469
  57.6637125  62.4315882  38.2925677  55.6341696  63.4086800  37.9816175
  55.9439516  64.0840816  37.2975349  54.7683811  63.6386967  38.4480882
  54.7740364  59.2890835  41.4648438  53.9792109  59.8896170  42.2261238
  54.3595314  58.2858181  40.6275129  55.0232649  57.9901600  39.9259806
  52.9666901  57.7298212  40.4875088  52.3378611  58.5547733  40.1526546
  52.9196548  56.5520573  39.5505834  53.7200546  56.7130661  38.8284039
  53.2085609  55.6396675  40.0722885  51.5114212  56.4653349  38.9798403
  50.7327080  56.5036058  39.7415757  51.2339592  57.1731663  38.1987619
  51.2031078  55.1136589  38.3948421  50.2420807  55.2110195  37.8898168
  52.0068312  54.8124456  37.7229786  50.9834909  54.0513325  39.4148970
  50.2700138  54.2951107  40.0869226  51.6649485  53.0716228  39.7653389
  52.6211548  52.6010942  39.0225291  52.6608419  52.8469706  38.0437183
  53.2354975  51.9061470  39.4221973  51.4841843  52.6042557  40.9566307
  50.7107925  52.9332542  41.5167427  52.1676874  52.0010662  41.3914633
  52.3259878  57.3659086  41.8663120  51.2051582  57.7924538  42.1412611
  53.0753660  56.5783119  42.7119541  54.0168715  56.3233900  42.4498844
  52.6129484  56.0077858  43.9828062  51.6922808  55.4429436  43.8364410
  53.7559080  55.1554489  44.6761131  54.7350883  55.6238937  44.5767927
  53.6017418  55.2209282  45.7531691  53.8292122  53.6692619  44.2327642
  54.0853405  53.5399532  43.1812048  54.9503708  53.0199099  45.0212383
  54.6852398  53.0434418  46.0782385  54.9875212  52.0080757  44.6176100
  55.9234095  53.5046768  44.9419451  52.5070524  53.0341196  44.6976519
  52.6257420  51.9680834  44.5037937  52.4184418  53.2427835  45.7638216
  51.7225266  53.2845259  43.9835691  52.2243547  57.1128273  44.9355650
  51.3195801  57.0486307  45.7336569  53.0041027  58.1978035  44.9385357
  53.7929869  58.2008219  44.3078613  52.9511452  59.3778324  45.8480167
  52.8744030  59.0273714  46.8772840  54.1258192  60.2636433  45.5900764
  55.1037073  59.7823763  45.6047297  53.9830160  60.6832504  44.5942688
  54.2036581  61.1972475  46.7731810  53.2524014  61.6828871  46.9908142
  54.6282196  60.7499313  47.6719332  55.2958632  62.2621679  46.3854074
  54.9034452  62.9032278  45.5960035  55.4728460  62.9515219  47.2109747
  56.5998840  61.6285610  46.0956097  56.8136215  60.7793665  46.5988874
  57.3629618  61.9848490  45.1256275  57.2652531  62.9907894  44.3985796
  56.4077997  63.5145998  44.5010233  57.7666712  63.0920267  43.5276937
  58.4104776  61.3533974  44.8417473  58.6613321  60.5438566  45.3911352
  59.0595055  61.7531633  44.1791391  51.6054726  60.0910473  45.5841970
  50.8680058  60.2398682  46.5413237  51.4226246  60.4644251  44.2889452
  52.1164942  60.1855278  43.6100817  50.1290798  60.8163023  43.6853313
  49.9157286  61.8111801  44.0762329  50.2389431  60.9944105  42.1055508
  50.6749582  60.0862646  41.6892958  49.3015528  61.3242006  41.6576290
  51.4081192  62.3487806  41.7067528  52.5036955  61.6899157  42.0947170
  49.0051842  59.8520756  44.0961885  47.9575920  60.3452444  44.4463968
  49.2396021  58.5500526  44.0660810  50.0992441  58.2262230  43.6462593
  48.3453989  57.5067472  44.6384764  47.3961782  57.6143646  44.1135931
  48.6562061  55.9894991  44.3539572  49.6773386  56.0762596  43.9826536
  48.6100006  55.4171991  45.2804804  47.8952646  55.2041006  43.2587385
  47.2437191  54.4584274  43.7143278  47.2692251  55.8989906  42.6990032
  48.8175297  54.6363354  42.2142935  48.9061451  55.0983953  41.1022234
  49.5383263  53.6795187  42.6041603  48.0725098  57.7400923  46.1454964
  46.8957424  57.7844000  46.5184975  49.0338182  57.9154205  47.0610714
  49.9751520  58.0560255  46.7231035  48.8041782  58.1936598  48.4395218
  48.1675148  57.4008083  48.8321447  50.1596260  58.2636309  49.2349291
  50.6895161  57.3210764  49.0974331  50.7498312  59.0638351  48.7883568
  50.1362085  58.5374403  50.7230234  49.8001719  59.5488644  50.9514999
  49.2907572  57.6185226  51.5708542  48.3155251  57.7036047  51.0915041
  49.6491003  56.5891218  51.5652180  49.2975760  58.1225872  52.5372744
  51.5466881  58.6826038  51.3141155  52.1388006  59.2950106  50.6340694
  51.5075397  59.1790199  52.2837210  51.9826221  57.7118349  51.5500450
  47.9370117  59.4445944  48.6220884  47.0213079  59.3895626  49.4768524
  48.2469511  60.5885220  48.0058956  49.1296673  60.6141758  47.5157356
  47.3386908  61.7354965  47.9535675  47.2421932  62.1088266  48.9730835
  47.9465532  62.9158401  47.1356916  48.2070494  62.5274086  46.1511278
  47.2495747  63.7349081  46.9583511  49.1961575  63.5500288  47.5988340
  49.5596361  63.3150911  48.7876463  49.7076797  64.4256258  46.9017839
  45.8881903  61.2971973  47.5373554  44.9551582  61.6864157  48.2290411
  45.6768370  60.5166149  46.4742279  46.4336443  60.1305342  45.9280729
  44.3244457  60.1212168  46.0382414  43.7255430  61.0315990  46.0134411
  44.4199467  59.5098019  44.6223545  45.3134346  58.8862324  44.6531296
  43.1747103  58.6621761  44.2609978  43.1657219  57.6658249  44.7029305
  42.2405577  59.1113949  44.5981264  43.1586599  58.5417509  43.1777906
  44.6242857  60.6772518  43.6263180  45.5263186  61.2638664  43.8004351
  44.7653580  60.1937532  42.6596546  43.4963465  61.7650127  43.4287691
  42.5795174  61.1954594  43.2767010  43.4471273  62.3892212  44.3209839
  43.5459280  62.3741817  42.5262403  43.5628366  59.2690659  47.0837975
  42.3460865  59.4639921  47.1914244  44.1941977  58.2733536  47.7291965
  45.1660538  58.0893803  47.5248575  43.4217119  57.4449825  48.7466383
  42.4167490  57.2779036  48.3590269  44.1528749  56.1217213  48.9181423
  43.5451984  55.4885101  49.5645761  44.2137957  55.6919861  47.9182816
  45.4773521  56.2367821  49.5377731  46.0442448  57.0835257  49.1507721
  45.2516317  56.5592146  50.5542278  46.5352058  54.8381519  49.5319748
  47.1293879  54.5658493  47.8164530  46.3164473  54.2567587  47.1594191
  47.6978588  55.4010057  47.4072361  47.8737164  53.7709522  47.7692270
  43.2759380  58.3066797  49.9842644  42.2033691  58.3173847  50.6346846
  44.3486023  59.0207481  50.3785658  45.2012587  59.2121792  49.8721695
  44.1948748  59.7589445  51.6825056  43.8358688  59.0144539  52.3931074
  45.5211496  60.3787231  52.0994091  46.3190365  59.6362686  52.1148682
  45.7854176  61.0260344  51.2631989  45.5124664  61.1643505  53.4251070
  44.8744726  60.7161045  54.3713570  46.1287928  62.3117924  53.5235453
  46.1190796  62.8457546  54.3808031  46.6721630  62.6706934  52.7515125
  43.0655575  60.9016418  51.5971470  42.4442148  61.1416578  52.6214409
  42.9603910  61.5288925  50.4051399  43.6740732  61.2327194  49.7547197
  41.9378138  62.5686264  50.1716423  42.0051003  63.3427429  50.9360552
  42.2747993  63.2200956  48.8035250  43.3364868  63.4668016  48.8109112
  42.1289492  62.5267410  47.9752207  41.3539124  64.4333935  48.4876823
  40.4681110  64.0883350  47.9543972  41.0863161  64.9226999  49.4242001
  42.1459961  65.4466486  47.7656078  42.3091221  65.0891113  46.7489147
  41.4818001  66.2892723  47.5734425  43.3513260  66.0100698  48.5058022
  43.1306410  66.2385464  49.5484877  44.0903044  65.2131557  48.4224272
  43.8114119  67.2463751  47.8786898  43.1362915  67.9909372  47.9784155
  44.6446323  67.5708294  48.3483458  43.9182043  67.0494080  46.8938541
  40.4568005  62.0245457  50.2976179  39.5262909  62.8431129  50.3778315
  40.2291918  60.6820107  50.0896358  41.0699606  60.1303291  49.9954987
  38.9253640  60.0386477  50.0742388  38.1827402  60.4350185  49.3817806
  39.1003633  58.5155058  49.8027134  39.8259807  58.1199789  50.5134439
  38.1140566  58.0867100  49.9800110  39.6029782  58.0998850  48.0675554
  40.5322075  59.0586567  48.0208302  38.1853104  60.1902723  51.4575529
  38.8217187  60.5517960  52.4613476  36.8614864  59.9397278  51.4462423
  36.4375162  59.8193741  50.5374670  35.9420609  59.8617840  52.5316429
  36.3751125  59.3304920  53.3791733  35.5963564  61.2566185  53.1785679
  36.4298534  61.5623569  53.8109493  35.2421212  62.3229218  52.1513414
  35.3001738  63.3827496  52.3993206  35.7907677  62.1700573  51.2219715
  34.2354941  62.0326710  51.8504095  34.5726943  61.1574364  54.1510963
  34.6547771  61.8468380  54.8141146  34.7850847  58.9912939  52.0562410
  35.0961661  57.8139973  51.7369986  33.5426402  59.4910479  52.1061659
  33.4838390  60.3520393  52.6308918  32.3415422  58.9684868  51.5381479
  31.8699312  58.2014656  52.1524477  31.3667226  60.0377274  51.3011456
  31.8013048  60.8283949  50.6895256  30.3857064  59.6724081  50.9974146
  31.0427594  60.6320667  52.5350237  30.3011179  60.0999308  52.8323460
  32.5134015  58.2573318  50.0941944  33.2013988  58.7825775  49.1909790
  31.7477250  57.2019243  49.9501610  31.2481999  56.7779255  50.7187939
  31.6275716  56.3928461  48.7937355  32.2295642  56.8440533  48.0049801
  32.1846581  54.9886131  49.0881300  31.6168261  54.6780014  49.9651670
  32.0223808  54.2954636  48.2627153  33.6728787  54.9622250  49.4172382
  33.8995576  55.6964159  50.1903391  34.0008831  53.5659409  49.9971914
  35.0785375  53.4127903  50.0546789  33.5825348  53.5665464  51.0037136
  33.6051536  52.7545786  49.3863010  34.5507669  55.2502346  48.1536388
  34.2425799  56.2317944  47.7935600  35.6329608  55.2796078  48.2805061
  34.2992926  54.5629740  47.3458433  30.1743007  56.4372206  48.2588148
  29.2838001  55.8799362  48.8856077  30.0521493  56.9243145  47.0352268
  30.8836365  57.2704172  46.5781260  28.7433147  57.0687962  46.4266539
  27.9056215  56.7319298  47.0373058  28.5431004  58.5530233  46.2112570
  29.2146587  58.8729763  45.4145575  27.4864125  58.6861992  45.9793663
  28.8810682  59.6080208  47.6159668  28.1834054  60.6197786  47.0920277
  28.6486363  56.2958622  45.1167345  29.7183490  55.9139872  44.6310329
  27.4278450  56.1274433  44.5644140  26.5399075  56.3381624  44.9971533
  27.2569227  55.4433870  43.3023691  27.6082158  54.4131660  43.2445574
  25.8149791  55.3357601  43.1299686  25.4194689  56.3481617  43.2118845
  25.3712964  54.8094940  43.9751291  25.2228069  54.6437454  41.4901972
  27.9844594  56.1438274  42.1197319  27.7841401  57.3680496  41.8912458
  28.6312199  55.3875399  41.2215567  28.7160850  54.4035387  41.4328575
  29.1972280  55.9245968  39.9297047  29.6735620  56.8693876  40.1915884
  30.2751875  54.8754311  39.5073175  31.0320735  54.8139572  40.2892637
  29.8054528  53.9030027  39.3595624  30.7878947  55.2752399  38.0879688
  31.5919447  54.5802069  37.8460407  30.0182843  55.1827669  37.3216438
  31.5418959  56.6231346  37.8549623  30.8439922  57.4421072  38.0290580
  32.2861409  56.7349815  38.6434364  32.1094394  56.5022421  36.3864756
  32.6722288  55.5764961  36.2666392  31.2372088  56.4892912  35.7329082
  33.1243014  57.5228453  36.0625768  33.9861226  57.2928619  36.5363598
  33.2757759  57.6429224  35.0712442  32.8812551  58.3891201  36.5214896
  28.1535721  56.1617804  38.7943888  28.4009099  57.0955801  37.9891324
  27.0516348  55.4085732  38.7099338  26.9171143  54.7374249  39.4526076
  25.9906530  55.5816650  37.7022266  26.4502120  55.8780289  36.7593217
  25.1178598  54.3203497  37.5096560  24.3685651  54.1556454  38.2839513
  24.5666480  54.4202900  36.5746236  26.0010791  53.0468798  37.4377799
  26.5568924  52.9111624  38.3655477  25.4075360  52.1523046  37.2492599
  26.8996859  53.0788326  36.2009478  27.2240448  54.1093683  35.5605197
  27.4574304  51.9695187  35.8429885  28.2698464  52.0289707  35.2458715
  27.2320127  51.0902739  36.2859464  25.0850940  56.7799425  38.0083132
  24.7576761  57.3623610  37.0148993  24.9088764  57.2267532  39.3000889
  25.4696441  56.7899132  40.0175905  24.1882539  58.4277058  39.6233940
  24.0076041  58.9660883  38.6930108  22.7762580  58.0605030  40.2488756
  22.2147751  57.3836946  39.6048546  22.2832894  59.0180922  40.4165268
  22.8634453  57.3828077  41.9258308  24.9109411  59.5004272  40.4634237
  25.0198364  60.6259871  39.9858022  25.4250646  59.1983986  41.6504097
  25.3825188  58.2163382  41.8824625  26.0219455  60.1275110  42.6190138
  26.5429950  59.5021057  43.3439064  27.1425414  61.0134554  42.0458603
  27.4883699  60.5858755  41.1047554  26.7332864  61.9867659  41.7751646
  28.3906245  61.1804438  42.8945923  28.2090950  62.0704365  43.4971380
  28.6831236  60.2934456  43.4565353  29.6245956  61.5741014  42.0921326
  29.5628142  61.8559074  40.8966208  30.7671928  61.3118124  42.6085758
  31.6289186  61.3505220  42.0831919  30.8327794  61.0464907  43.5808945
  24.9378681  60.9317970  43.3899498  25.2907610  61.8525839  44.1414118
  23.6710048  60.4242182  43.4289646  23.3484983  59.6646214  42.8466415
  22.6863289  60.9886932  44.2921448  22.4965692  62.0254898  44.0143967
  21.3289547  60.4446602  43.8450241  21.2745142  60.5861235  42.7656126
  21.2497950  59.4037819  44.1587257  20.0656390  61.0810375  44.5681238
  19.1863906  60.5676937  44.1788912  20.1218843  60.7931900  45.6179237
  19.9539518  62.6471233  44.4308853  20.7541656  63.4279442  44.9523926
  18.9452505  63.0413342  43.7620687  22.9169679  60.8264112  45.8596849
  22.4982810  61.6966438  46.6930056  23.5425043  59.6728754  46.2172461
  23.7738609  59.0550852  45.4524517  23.5014009  59.1883707  47.6730537
  23.3398223  60.0778723  48.2819700  22.3049879  58.2746172  47.7942944
  21.3590169  58.8047886  47.6839828  22.2746468  57.1760941  46.7755222
  23.1273413  56.5162516  46.9356394  21.5094447  56.4419460  47.0276976
  22.1262431  57.4937201  45.7434416  22.0808482  57.7321482  49.0712214
  21.9894481  58.5208225  49.6108818  24.8377681  58.4855509  48.0994463
  25.5548239  57.9619646  47.3032761  25.2501535  58.5916996  49.3782377
  24.5605993  58.9434862  50.0269794  26.4618111  57.9440069  49.9423599
  27.2468209  57.8663445  49.1901398  26.8114090  58.6872578  51.2213707
  27.0386505  59.7469473  51.1050892  25.8742142  58.6400414  51.7759371
  27.9503894  58.1369829  52.0372677  27.9689145  57.0518684  52.1386671
  28.8598847  58.1575871  51.4368534  27.9755497  58.6874771  53.4210014
  28.9488649  59.3427420  53.8228464  27.1021795  58.3205414  54.1791964
  26.0067415  56.3878250  50.1608229  25.2872252  56.0810184  51.0984850
  26.4902616  55.4935932  49.3712616  27.0577550  55.8242607  48.6039829
  26.5337992  54.0419960  49.6601582  25.5240893  53.6568069  49.8023462
  27.1986532  53.2633543  48.5137224  28.2764459  53.4154081  48.4558439
  27.1429467  51.7482042  48.7419033  27.3473096  51.2459850  47.7963257
  27.9556632  51.5081406  49.4274426  26.1558294  51.4655399  49.1076946
  26.5194154  53.7051487  47.2061539  26.6508412  54.7662878  46.9944620
  26.8893456  52.9805994  46.4807129  24.9565697  53.5306549  47.1909094
  24.3841600  54.0706253  47.9451513  24.4881845  53.9071465  46.2815285
  24.6661353  52.4824762  47.2621393  27.3191261  53.7167168  51.0213184
  26.7617226  53.0690622  51.9300747  28.5333228  54.1636229  51.1345911
  28.8726258  54.6215487  50.3007555  29.5320725  53.8493633  52.2326469
  28.8892937  53.8497400  53.1129503  29.9442983  52.3711491  52.1054602
  29.0307713  51.7770433  52.1301794  30.7176328  51.9652414  50.8114815
  30.6510735  50.8772993  50.8183193  30.2240634  52.2991753  49.8988056
  31.7607141  52.2809553  50.8316898  30.6153011  51.9004965  53.1848097
  30.1989746  51.1674738  53.6441088  30.6164742  54.8598623  52.4334764
  30.4107785  55.9917021  52.0926094  31.8509030  54.5389462  52.9150724
  31.9762063  53.6302757  53.3378267  32.9512453  55.4989672  53.1554937
  33.1243277  56.1545467  52.3020506  32.6409793  56.3050032  54.4906044
  31.5732241  56.4299059  54.6706057  33.1029320  55.5486774  55.7297468
  32.9665375  56.1574650  56.6235447  32.5932717  54.5948935  55.8662558
  34.1378760  55.2074671  55.7536411  33.2714987  57.5874853  54.4037390
  32.5941086  58.2603455  54.5037556  34.2270112  54.6832800  53.3265162
  34.1497922  53.5168314  53.7234163  35.3669786  55.2487946  52.9594994
  35.3666353  56.1802292  52.5689554  36.5180111  54.4526529  52.7163839
  36.1742902  53.7329388  51.9734335  37.5994992  55.1614523  51.8557453
  38.4231877  54.5029402  51.5800667  37.1276140  55.4228067  50.9085846
  38.1764126  56.4411306  52.5827694  38.7301898  56.9398975  51.7873716
  37.2814775  57.0165491  52.8195953  39.0236235  56.4275360  53.8773823
  38.4306765  55.9193754  54.6378374  39.9400449  55.8859062  53.6430550
  39.2165112  57.9053116  54.3808746  39.8674655  58.4896994  53.7306023
  38.2318425  58.3721209  54.3560696  39.8579431  58.1422091  55.8051300
  39.5966482  59.0494585  56.1639166  39.6590137  57.4334049  56.4965963
  40.8623552  58.2364225  55.7563210  37.0668840  53.5884142  53.8670492
  37.6498866  52.5324154  53.6286640  36.8455362  54.0021420  55.1204777
  36.4411950  54.9174261  55.2578068  37.2754645  53.1533527  56.2719393
  38.3424973  53.0331516  56.0846090  37.1566772  54.0478373  57.5758219
  36.1025095  54.2942524  57.7027416  37.5279427  53.3498716  58.3262253
  37.9527402  55.3486204  57.6648474  39.1140079  55.4358435  57.2533989
  37.4922538  56.3377953  58.3329296  37.9496670  57.2260046  58.1847572
  36.5778971  56.2207270  58.7456656  36.5664005  51.8272591  56.3891649
  36.9914436  51.0095882  57.1381283  35.4493999  51.6100645  55.6423998
  35.0753999  52.2749805  54.9805021  34.7256494  50.3891754  55.7571650
  34.9215460  50.0184393  56.7632818  33.1704068  50.6714439  55.5740166
  32.8514576  51.0396385  54.5989275  32.6229954  49.7289991  55.5896425
  32.4668193  51.5238810  56.7415524  32.5927114  52.5707912  56.4654541
  31.3975096  51.3282681  56.6614819  33.0050778  51.2712383  58.1379318
  33.5058403  52.2116518  58.8081503  32.8776622  50.0925875  58.5695696
  35.2163053  49.3266726  54.7390509  34.7156239  48.2392550  54.8917294
  36.0864592  49.6406794  53.7273502  36.3047218  50.6259966  53.7675095
  36.8656969  48.7235355  52.9149055  36.2191224  48.0467558  52.3563242
  37.8402019  49.4492626  51.9050360  38.5145426  50.1184320  52.4394321
  38.7232161  48.4460783  51.1130047  39.5299959  48.1869316  51.7986012
  38.1361055  47.5524044  50.9014702  39.1441631  48.8610840  50.1972103
  37.0856404  50.4017353  50.8855009  36.3786435  49.9103785  50.2170515
  36.3862467  51.0494804  51.4140606  38.0128717  51.4618969  50.1872540
  38.7640452  51.0293722  49.5263720  37.4167156  52.2044611  49.6568823
  38.5725904  52.0429134  50.9202147  37.6594329  47.7562714  53.8485193
  38.1028938  48.1718874  54.8984051  37.6782370  46.3890171  53.4892225
  37.2021914  45.9733820  52.7013588  38.4425330  45.4058981  54.3071699
  39.2713642  46.0224152  54.6550894  37.7443004  44.7573471  55.4530144
  38.4480476  44.4499922  56.2265635  37.0973301  45.5034828  55.9143257
  36.8914890  43.6062241  55.1250935  35.6924772  43.7683058  54.4089556
  35.4474187  44.7273016  53.9769030  34.8355532  42.6709414  54.2538643
  33.8950133  42.8617048  53.7584829  35.1320863  41.4191294  54.6080446
  34.3397689  40.6961441  54.4818163  36.4243221  41.1764050  55.1904631
  36.6965580  40.1629972  55.4459810  37.2779894  42.2727966  55.4689646
  38.2089162  42.1089697  55.9914064  39.0598273  44.3145132  53.4778547
  38.4467077  43.9804459  52.4967289  40.2430534  43.7612486  53.8071585
  40.7090330  44.0081453  54.6685553  41.0387039  42.8896427  52.9483509
  40.7392740  42.9978418  51.9058847  42.5423098  43.1656361  53.1478548
  42.7639675  43.0384874  54.2074776  43.0752850  42.4043274  52.5782537
  42.9805040  44.4576788  52.7409840  43.7925816  44.2610264  52.2682714
  40.7453775  41.4357185  53.2599831  41.5153694  40.7804871  53.9790916
  39.5736885  40.9481621  52.8629684  38.9903688  41.6701221  52.4647045
  39.0759516  39.5836186  53.1144905  38.8966227  39.4385672  54.1798067
  37.7997160  39.4322062  52.3765612  37.0092273  40.0438404  52.8114557
  38.0055737  39.7972345  51.3703394  37.2771716  38.0466533  52.2354841
  38.0414414  37.3363447  51.9201088  36.5581632  37.6078868  53.5158110
  35.8114600  38.3247948  53.8572550  36.1725426  36.6178441  53.2724810
  37.2343540  37.5225973  54.3664551  36.1987758  38.0863976  51.1457300
  35.4638886  38.8623619  51.3600254  36.5158391  38.4248042  50.1592922
  35.6195259  37.1656656  51.0762978  40.0220633  38.4846592  52.6387358
  40.1855087  37.4854112  53.3092785  40.6493044  38.7824035  51.4946270
  40.5781555  39.7200894  51.1261463  41.7198563  37.9129386  50.8928299
  41.6310406  36.8722582  51.2045908  41.4885569  38.0721498  49.3704224
  40.5028296  37.6479411  49.1793728  41.6031408  39.1113710  49.0622234
  42.3937750  37.2037745  48.7751198  42.3267365  37.2303677  47.8178263
  43.1075573  38.4248400  51.3249350  43.3815098  39.6231723  51.1842346
  44.1379309  37.5484133  51.4255047  43.8733435  36.5842175  51.2826061
  45.5129623  37.9685450  51.5256214  45.5807114  38.8857937  52.1105719
  46.5511513  36.9751358  52.1176243  46.5709686  36.2449002  51.3086367
  47.5021887  37.5076866  52.1131468  46.3000107  36.4790559  53.5881233
  46.4985228  37.2552085  54.3272305  45.2342081  36.2524724  53.6168337
  47.0928764  35.1430488  53.9454269  46.7397451  34.7397280  54.8944950
  46.8451977  34.2953873  53.3065033  48.5636759  35.1944494  53.9244461
  49.1083765  34.7582507  53.1942844  49.1984510  35.5363631  55.0405502
  50.4581499  35.3354812  55.2558327  51.1036873  35.0453615  54.5352650
  50.9093523  35.5820608  56.1251497  48.6179781  36.0898042  56.0800219
  47.6083946  36.0813117  56.0521221  49.1893864  36.3937449  56.8554020
  46.1631060  38.5005212  50.2625179  47.2854233  39.0075088  50.3134727
  45.5094051  38.3328080  49.0890551  44.5641232  37.9853845  49.1654682
  45.7834339  39.0155506  47.8381252  46.8696976  39.0928912  47.7916908
  45.1861525  38.2809401  46.5964699  44.1199589  38.4729314  46.7167711
  45.3945827  38.7690377  45.6444120  45.4329872  36.7910576  46.4528370
  45.1383877  36.3885951  47.4220324  44.8291826  36.4705968  45.6038237
  46.8923092  36.3961935  46.1737108  47.1485043  35.1746631  46.2273741
  47.7620888  37.2616744  45.9129381  45.3237486  40.5231142  47.8873682
  46.0346556  41.1778831  47.0975971  44.4633770  41.0542107  48.7720823
  43.9384365  40.4457140  49.3838596  43.9189625  42.4026823  48.7478399
  44.5755434  43.0382109  49.3420649  44.0588808  42.7766895  47.7336216
  42.3957777  42.6109743  49.0918827  41.5794039  41.6990376  49.0184498
  42.0371675  43.8750410  49.3527889  42.8690529  45.0755787  49.4285440
  43.4073973  45.2295685  48.4933567  43.5726404  45.0331450  50.2599669
  41.9286919  46.2537575  49.6118307  41.8360186  46.7104292  48.6264515
  42.3684788  46.9683838  50.3075314  40.6177473  45.6695032  50.1412725
  39.7028303  46.1675024  49.8202944  40.5838585  45.6233549  51.2297678
  40.6277895  44.2949820  49.5009422  40.0794411  43.5415077  50.0663567
  39.9754953  44.4197798  48.1540871  38.7745285  44.2670584  48.1406355
  40.7779455  44.5607185  47.0853043  41.7710733  44.6730328  47.2308254
  40.2219343  44.5481443  45.7360792  39.1518235  44.3412590  45.7487488
  40.5021381  45.9400702  44.9318266  40.4309034  46.7440367  45.6643963
  41.4746046  45.9331036  44.4395256  39.5541954  46.2388611  43.7483168
  38.5366678  46.1906481  44.1361475  39.7965860  47.2179747  43.3351851
  39.4609141  45.0470829  42.3890114  40.7683420  45.4027796  41.2817907
  41.6713238  45.2457857  41.8717766  40.7798576  44.6484900  40.4950142
  40.7223511  46.4379835  40.9436417  40.8518267  43.4251547  44.9432993
  42.0837593  43.2609081  44.8948812  40.0427628  42.5699806  44.3275452
  39.0667892  42.7848768  44.1812706  40.6143618  41.5050507  43.5223389
  41.5057611  41.8042850  42.9710007  41.0758686  40.3148890  44.3989325
  40.8962774  39.3312740  43.9649248  42.1120262  40.5528116  44.6395016
  40.4708576  40.3371716  45.3053427  39.6196270  41.0468960  42.4447012
  38.4056115  41.4212322  42.4260807  40.0644684  40.3235435  41.4012051
  40.9595537  39.8965073  41.5924168  39.2445397  39.7622824  40.3532505
  38.3797956  40.4049206  40.1879120  40.1833248  39.7913790  39.1050673
  39.6008182  39.5107174  38.2275581  40.6662369  40.7392645  38.8675714
  40.9870720  39.0555573  39.1307378  38.6351967  38.3514166  40.6683874
  39.2838669  37.5751281  41.3735247  37.4190688  38.0688214  40.1695108
  36.9007087  38.8316464  39.7578049  36.6437364  36.9127846  40.5106068
  37.2663116  36.0645247  40.7951307  35.8104849  37.2841024  41.7589951
  35.2869678  38.2298923  41.6193151  35.0749159  36.4846516  41.8480492
  36.5928936  37.4991822  43.0184317  37.0301390  36.4305282  43.7888336
  36.7689776  35.4127359  43.5392523  37.7025008  36.7384624  44.9540567
  38.0592895  35.9867334  45.6425381  38.0725408  38.0450773  45.2932262
  38.7360764  38.1661010  46.4076281  38.7237787  39.1017318  46.6222095
  37.5678062  39.0926385  44.5552683  37.9260325  40.0437307  44.9206352
  36.8541050  38.7943435  43.3689690  36.5745473  39.6354628  42.7519083
  35.8182073  36.5110588  39.2465448  35.1100826  37.3735118  38.7299585
  35.8827066  35.2516866  38.7670016  36.3663602  34.5331836  39.2865586
  35.2267575  34.9046350  37.4424577  35.1091027  35.7846594  36.8101478
  36.1696768  33.9447999  36.6340685  37.0746326  34.5177460  36.4318538
  36.5345931  32.5742102  37.2327828  37.2366405  32.0953798  36.5501761
  37.0628285  32.7500057  38.1698895  35.6785178  31.9013000  37.2820520
  35.5092859  33.7980580  35.2748346  36.2828708  33.4048128  34.6152639
  34.7077537  33.0803847  35.4497433  35.1187968  34.7777796  34.9995804
  33.8531780  34.3166709  37.6241350  33.7249470  33.3805084  38.4720731
  32.8115225  34.7470713  36.9425297  32.9633045  35.4872918  36.2723541
  31.4378309  34.1851139  37.1589994  31.2990355  33.9079094  38.2039857
  30.4252076  35.3061485  36.8472075  29.4958448  35.2459478  37.4135661
  30.8275723  36.2221384  37.2798324  29.9563885  35.4968715  35.4137707
  30.3344083  34.8583055  34.4031119  28.8497782  36.2017703  35.3297687
  28.3190465  36.1310244  34.4733691  28.4278941  36.6401267  36.1359715
  31.2325931  32.9135132  36.3600111  32.1482491  32.3244262  35.8146858
  30.0609779  32.3231339  36.3512158  28.8360643  32.7774334  36.9826007
  28.3799505  33.5409546  36.3524461  29.0831470  33.2290411  37.9433823
  27.8734732  31.6216493  37.1669984  27.1084547  31.6991949  36.3944483
  27.3761559  31.4893556  38.1278682  28.7898684  30.4415441  36.8650126
  28.4130692  29.4814610  36.5123630  29.2862344  30.2920246  37.8238487
  29.8303294  30.9459639  35.8631325  30.7444286  30.3836918  36.0538554
  29.3681121  30.9620547  34.3710804  29.2229486  29.9012017  33.7407613
  29.3109298  32.1700859  33.7417102  29.3760633  33.0429029  34.2457414
  29.0658402  32.2940946  32.2769403  28.8377666  31.3488960  31.7843103
  27.8795648  33.2328510  32.1072125  28.1503272  34.1226554  32.6755738
  27.7642202  33.5037827  31.0577393  26.6004300  32.7472758  32.5598407
  25.5261159  33.6296177  32.6927876  24.4455767  32.8632092  32.9751658
  23.5199809  33.3821940  33.1759977  24.7845554  31.6183424  33.0453491
  24.1484213  30.8471608  33.1892848  26.1297584  31.4527059  32.8226781
  26.6350293  30.5150867  32.6438785  30.3225589  32.8199029  31.5011549
  30.3241396  32.7559733  30.2909613  31.4012527  33.1614733  32.2305202
  31.2215161  33.2613492  33.2193685  32.7976489  33.2360029  31.8003750
  33.3437991  32.4192762  32.2723699  32.8428531  33.0573964  30.7260585
  33.4418821  34.6504164  32.1067047  34.5350385  34.9309802  31.6192150
  32.7464914  35.6149268  32.7823162  31.8149710  35.3793216  33.0935431
  33.0530858  37.0654702  32.8283763  33.7447262  37.2282243  32.0017886
  31.8491149  37.9170489  32.4876785  31.1299515  37.7449298  33.2884789
  32.1103311  38.9743924  32.5311255  31.3133955  37.5550508  31.1349821
  30.1296496  36.7105770  31.0725856  29.6409225  36.4026570  31.9851255
  29.6786141  36.2038803  29.8802471  28.9134550  35.4421496  29.8537850
  30.3460002  36.5783167  28.6970258  29.9583960  36.0510302  27.5443697
  29.1020322  35.6349564  27.6673722  31.4626670  37.4394417  28.7540865
  31.9445252  37.7427077  27.8363466  31.9417667  37.9806972  29.9558091
  32.7185178  38.7286949  29.8961234  33.6110544  37.4207544  34.1861629
  33.0119300  37.0464778  35.2333164  34.7654152  38.1220150  34.1334605
  35.1612043  38.4536409  33.2654309  35.4336643  38.5709071  35.2798867
  35.3267384  37.7549100  35.9946012  36.9663405  38.7156439  35.0269794
  37.0960426  38.8919497  33.9591789  37.8394723  39.6305203  35.8847642
  38.8580036  39.6897650  35.5011249  37.4788857  40.6588411  35.8594704
  37.8283596  39.2427135  36.9033837  37.5812817  37.3231816  35.2557492
  37.3612595  36.7691922  36.1683249  37.1970797  36.7264152  34.4284892
  38.6640835  37.2889042  35.1354790  34.8047924  39.8145890  35.8587003
  34.3640065  40.7350731  35.1687217  34.7692227  39.9096823  37.2400784
  35.2380061  39.1606975  37.7293301  34.3812108  41.0890055  37.9975390
  34.3104649  41.8852949  37.2565794  33.0678415  40.9706974  38.7272882
  33.3057451  40.2160454  39.4769573  32.9500318  41.9397116  39.2122912
  31.8039370  40.8317709  37.9356432  31.0679674  41.9690943  37.5562716
  29.9786806  41.4785194  36.9130921  29.1822505  42.0967817  36.5259886
  30.0513721  40.1273298  36.8309212  29.3419504  39.4992971  36.4810705
  31.2565303  39.7129011  37.4120831  31.6477966  38.7189341  37.5712681
  35.4464674  41.6021109  38.9306021  35.8898163  40.8776093  39.7873354
  35.8951020  42.8534937  38.7825012  35.7323790  43.3088684  37.8957915
  36.7144632  43.4904146  39.8389626  37.5368595  42.8842878  40.2189350
  37.4575686  44.6925735  39.2912960  36.7312002  45.4309559  38.9517617
  38.0489612  45.2119255  40.0453806  38.4174180  44.4275427  38.1254196
  39.3356943  43.9590740  38.4795499  37.9080844  43.8745308  37.3362041
  38.8214350  45.7816076  37.5417137  39.4020033  46.6371155  38.1821299
  38.5625792  45.9594679  36.3440084  35.8493972  43.8162708  41.0957193
  34.8566961  44.5452309  41.0585976  36.1744428  43.3548021  42.2908497
  36.9493914  42.7072859  42.3077822  35.3237057  43.5376120  43.4864092
  34.4970655  44.2234516  43.3009720  34.7480583  42.1955776  43.9677954
  35.6201839  41.5421724  43.9441872  34.2599344  42.1774721  45.4448748
  33.4799337  42.9366302  45.5029202  33.8792586  41.1746311  45.6385231
  35.0613761  42.3677206  46.1587334  33.6123919  41.5593576  43.0869579
  34.0330625  41.3896322  42.0958328  33.3245039  40.6856394  43.6716223
  32.2603488  42.3665619  42.9449368  32.4277639  43.4224558  42.7324009
  31.6712356  41.8861389  42.1637583  31.5870285  42.3376560  43.8016176
  36.1983728  44.1094685  44.5957422  37.2754717  43.5914278  44.9074030
  35.6484151  45.1192045  45.2468014  34.7329473  45.4124069  44.9368811
  36.0891676  45.7097578  46.5048552  37.1138167  45.4396725  46.7602873
  35.8927679  47.2889280  46.2751198  36.3110280  47.5378466  45.2998209
  34.8322511  47.5407028  46.2718964  36.5411448  48.2325792  47.2850609
  36.2501550  48.0560589  48.3205652  38.0144954  48.0895042  47.3445177
  38.4220338  47.2434330  47.8978395  38.4307742  48.0832529  46.3371611
  38.3929515  48.9879704  47.8320074  36.2333918  49.6973419  46.9235086
  36.7726660  49.9296236  46.0051823  35.1587772  49.8676491  46.8579340
  36.5314794  50.3506136  47.7435541  35.1696515  45.2627611  47.5921917
  33.9772177  45.4453754  47.6385593  35.7725596  44.4317198  48.4943628
  36.7601538  44.2274284  48.4393120  35.0701356  43.9968014  49.7119045
  34.0257907  43.9221430  49.4088030  35.5270553  42.5929594  50.1240921
  34.8396564  42.3726559  50.9408188  35.3736782  41.5443707  49.0152264
  35.4666185  40.5582762  49.4702816  34.4646740  41.7068338  48.4360647
  36.2312126  41.7113256  48.3634090  36.8642759  42.5388479  50.4452896
  37.1014309  43.3392763  50.9192801  35.0860548  45.0393724  50.8231354
  36.0761809  45.8484173  50.8662653  34.0900707  45.0800037  51.6822624
  33.3636189  44.3841553  51.5919209  33.6187625  46.1386395  52.5237942
  34.4622278  46.6861248  52.9444218  32.6130772  47.2182608  51.7773294
  31.7027473  46.6872978  51.4989805  32.2705793  48.3859825  52.7526474
  31.7334080  49.1650534  52.2117281  31.7092371  48.0912685  53.6392975
  33.1907511  48.9100885  53.0108976  33.1180072  47.9470396  50.5635071
  34.0869284  48.4377384  50.6557274  33.0194020  47.3148203  49.6810770
  32.4427223  48.7242222  50.2056313  32.7347445  45.5501938  53.6430645
  31.7712879  44.7703695  53.3927155  32.9586935  45.9156132  54.9290705
  33.7271929  46.5473557  55.1034689  32.2032762  45.4437113  56.0715055
  32.0714688  44.3703079  55.9353781  32.9352784  45.8427429  57.3998165
  33.3272004  46.8465853  57.2361231  32.2230077  45.6411695  58.1999016
  34.1712284  44.9931812  57.7580833  34.0989208  43.6342335  57.5821590
  33.1385851  43.2492733  57.2723818  35.1704025  42.7771044  57.8743076
  35.0794768  41.7066097  57.7639294  36.3170171  43.3664560  58.3224201
  37.4084592  42.6221609  58.6561108  38.0672002  43.1030893  59.1624403
  36.3924170  44.7469282  58.4902382  37.3619080  45.1666021  58.7146568
  35.3319740  45.6033707  58.2099342  35.4488659  46.6768694  58.2281590
  30.7484722  45.9713173  56.1103678  29.8880339  45.1796722  56.5327835
  30.5002069  47.2626925  55.8037949  31.3427567  47.7697897  55.5734444
  29.1636896  47.9265308  55.9651756  28.4605956  47.1773815  55.6011200
  28.7335038  48.2905054  57.3927736  27.8335071  48.9028406  57.3365879
  28.4059978  47.3808861  57.8961992  29.8016739  48.8578844  58.3053493
  30.5897975  48.1161833  58.4351254  30.1794410  49.7963905  57.8996468
  29.0713310  49.1492033  59.6997929  28.2883954  49.8665285  59.4536924
  28.7471724  48.2113409  60.1508236  29.9609780  49.8576117  60.7456064
  29.9406266  50.9194469  60.5002546  29.5871282  49.8113871  61.7684460
  31.3185072  49.2654943  60.8737469  31.8499255  49.9112558  61.4400387
  31.2792587  48.3323240  61.2581396  31.7250037  49.3238449  59.9510002
  28.8698578  49.0565777  54.9026108  29.7677279  49.6462250  54.3347454
  27.5857449  49.3706322  54.7185564  26.8361688  49.1103268  55.3434420
  27.0174456  50.1506042  53.6414003  27.5502467  51.1001158  53.5899067
  27.1497917  49.3933105  52.3123455  28.2250857  49.3624020  52.1365881
  26.6976523  48.4051371  52.3971415  26.7114806  49.9799490  51.5049791
  25.4979229  50.4113007  53.9368153  24.8405576  49.7776604  54.8209810
  24.8346925  51.1830616  53.0301905  25.3547144  51.6487455  52.3002529
  23.4690523  51.7339373  53.0768013  22.8017616  50.9511566  53.4374714
  23.4548807  52.8862715  54.1433334  23.8496304  52.4484730  55.0601768
  24.1030908  53.6968088  53.8102341  21.8649960  53.6419535  54.5209074
  22.2675562  54.4037724  55.5419207  22.8891492  52.1665239  51.7115593
  23.6469555  52.1799850  50.7350016  21.5836120  52.4265575  51.4907169
  20.9467816  52.3604536  52.2718573  21.1415458  52.9407263  50.1820135
  20.0549603  52.8923893  50.1106167  21.5996671  54.4346380  50.0272465
  22.6687908  54.5112848  49.8292589  21.1096501  54.7582483  49.1089487
  21.2010479  55.3714514  51.1322355  19.9924314  55.7138872  51.2359428
  22.0639133  55.9055948  51.9060040  21.7561984  56.4875889  52.6719618
  23.0474448  55.8417416  51.6853619  21.3819575  51.9250536  48.9929581
  21.6354370  52.3465347  47.9018831  21.1105752  50.6117678  49.2037582
  20.8747625  50.3360319  50.1463461  21.3604975  49.4767189  48.3361149
  21.3899374  49.9200201  47.3407698  22.6588726  48.7549400  48.6583757
  22.7603841  48.6454296  49.7380972  22.4525809  47.7820969  48.2121611
  24.0305638  49.3827105  48.3053064  24.1434026  50.2373743  48.9723253
  25.3052902  48.5921097  48.4665251  25.1880288  47.6014757  48.0272102
  26.1148477  49.1148806  47.9571819  25.5863476  48.4528637  49.5104218
  24.0183640  49.8647165  46.7557764  24.9868941  50.2512884  46.4385891
  23.8093448  49.0526819  46.0593462  23.2978344  50.6774235  46.6638708
  20.1813197  48.5735559  48.5653877  19.9687791  47.9462242  49.6360064
  19.1959512  48.5692835  47.6203918  19.3608677  49.1693306  46.8248701
  18.2399189  47.4357510  47.6127386  17.7042174  47.4190044  48.5618687
  17.2897458  47.5848198  46.3979912  17.8582597  47.7580738  45.4842758
  16.7374516  46.6552210  46.2604618  16.2914884  48.7885809  46.5064096
  16.1646926  49.3931150  47.6169968  15.6460547  49.2890310  45.4231644
  15.0056446  50.0692272  45.4587746  15.7911217  48.8931036  44.5053959
  18.9349806  46.0863066  47.5959873  20.0610542  46.0058022  47.0502472
  18.3381271  45.0778198  48.2114172  17.4973977  45.3414059  48.7051773
  18.7718177  43.7202930  48.4345722  19.7343504  43.5296631  47.9599237
  18.8589048  43.4627628  49.9209547  17.9595387  43.8589334  50.3924417
  18.9048767  42.3862314  50.0854826  20.0646734  44.2428970  50.5223942
  20.0000906  45.3085566  50.3025961  19.9081409  44.1960621  52.0667171
  19.7014308  43.1567860  52.3222113  20.8174276  44.5542765  52.5494003
  19.0522254  44.7817850  52.4020338  21.4584327  43.5939789  50.0828743
  22.2939444  44.1217947  50.5426979  21.5733004  42.5382853  50.3286743
  21.5251899  43.7775230  49.0105152  17.6769710  42.8230429  47.6962662
  16.7463589  42.3762465  48.3577967  17.8775752  42.6343250  46.3887072
  18.6484993  43.0480289  45.8840990  16.8071806  42.0121002  45.4983807
  15.8552575  42.4663162  45.7733917  17.0640302  42.3758125  43.9988470
  17.9290342  41.7568636  43.7605524  15.8254027  41.8412304  43.1819487
  16.1668241  41.6938496  42.1573448  15.4895341  40.8511591  43.4902573
  15.0260103  42.5821924  43.1752634  17.4514067  43.8361883  43.8223028
  18.2817554  44.1109228  44.4727993  17.8063881  43.8644695  42.7921152
  16.3127577  44.8628139  44.1102839  15.4961956  44.6282005  43.4274340
  15.9916973  44.5797682  45.1127338  16.6685998  45.8676910  43.8828945
  16.7806566  40.4845953  45.7762909  17.7771842  39.7881341  45.4743624
  15.6575894  39.9714565  46.1237907  14.9505806  40.6828117  46.2430000
  15.2836156  38.5864091  46.2245035  14.1972709  38.4980059  46.2364244
  15.6140077  38.0514455  45.3341341  15.9048152  37.8592205  47.4456739
  16.4077783  38.5169268  48.3893538  15.7727325  36.5189457  47.4826431
  15.2548516  36.0841370  46.7324162  16.2198198  35.6167054  48.5786295
  16.0224032  36.1281991  49.5206976  15.3569531  34.3920326  48.6077499
  15.3272116  33.8849258  47.6433516  15.7277000  33.6491823  49.3140221
  13.9142025  34.7184014  49.1687822  14.0701628  35.0886583  50.1820374
  13.4653533  35.5549145  48.6331701  12.9814494  33.4998798  49.1945696
  12.0073533  33.8536954  49.5322847  12.8313935  33.2364893  48.1475687
  13.4698439  32.3430324  49.9199677  13.8351727  31.5408611  49.4268560
  13.4493065  32.1491957  51.1936378  13.7147760  30.9351373  51.5800095
  13.9320445  30.2742720  50.8477879  13.8147712  30.6967378  52.5563669
  13.0418479  33.0275464  52.0914316  12.7656746  33.9643860  51.8342066
  12.9600275  32.9212642  53.0924845  17.7125096  35.2523589  48.5250330
  18.1392956  34.9757385  47.4224377  18.3835375  35.1240969  49.6697474
  17.8101337  35.2156353  51.0738897  16.9769204  34.5133090  51.0982418
  17.7075469  36.2755036  51.3068151  18.8853788  34.5653439  51.8429136
  18.7669146  33.4876299  51.9551706  18.9950371  34.8501754  52.8893089
  20.2453208  34.6227551  51.1194515  20.8625388  33.7864470  51.4476776
  20.6972623  35.5924702  51.3280296  19.7779286  34.6797228  49.6249437
  20.3300118  35.4261231  49.0538073  19.9206364  33.3783102  48.7649775
  19.1661990  32.4663234  48.9227390  20.9534311  33.2738185  47.8828382
  21.4047265  34.1580272  47.6967859  21.2532258  32.0968390  46.9973755
  20.5356956  31.3020182  47.2011328  21.0810637  32.4784732  45.5089951
  20.0820374  32.6268482  45.0990772  21.6533971  33.3674455  45.2439213
  21.4968014  31.3743186  44.6907473  20.7556224  30.7796383  44.5543146
  22.6281881  31.6034675  47.3080730  23.5090923  32.3658490  47.5418806
  22.8561664  30.3028822  47.2761202  22.0634794  29.6970987  47.1187353
  24.2443466  29.6940255  47.2406912  24.9234796  30.3559327  47.7780581
  24.2394638  28.3383369  48.0151463  25.2292919  27.8839350  48.0583048
  24.1729259  28.6678720  49.5219421  23.1858897  28.9729047  49.8695230
  24.4173217  27.7930307  50.1244593  24.7738075  29.5441604  49.7651672
  23.2183886  27.3655462  47.6030540  22.4894285  27.5540590  48.1985998
  24.8994994  29.5885324  45.9005356  26.1043882  29.3607283  45.8773232
  24.1669679  29.8315072  44.8053789  23.1799769  30.0146317  44.9168015
  24.6323252  29.1773343  43.5159063  24.9246120  28.1681061  43.8059521
  23.4538507  28.9489937  42.5886297  22.9791260  29.9160886  42.4229097
  23.8733172  28.6119890  41.6406965  22.3702955  27.9326272  43.0697441
  21.8716168  28.5019588  43.8541460  21.5866590  27.8164554  42.3210669
  22.9019499  26.5231705  43.4194183  24.0494466  26.1887026  43.1541729
  22.0990896  25.7504725  43.9372969  25.8444881  29.8554349  42.8578281
  25.7495117  31.0606360  42.5431347  26.9687700  29.1520286  42.7702570
  26.9154787  28.1717849  43.0077076  28.2291746  29.5688987  42.1427011
  28.9125538  28.7269640  42.2533464  28.0036306  29.8560071  40.6480122
  27.3211265  30.7013226  40.5600739  28.9564991  30.0226498  40.1456499
  27.4270773  28.6761975  39.8790026  27.9259372  27.3794794  39.8288774
  27.1299720  26.7750812  38.9684105  27.3441172  25.7411289  38.7415028
  26.2201285  27.5954866  38.4293818  25.5418658  27.3359108  37.7274656
  26.3963413  28.7901640  39.0182471  25.9602785  29.7192597  38.6820531
  28.8883615  30.7089710  42.8334951  29.6521401  31.4553738  42.2928238
  28.6689281  30.9009886  44.1258526  28.1093764  30.2995539  44.7134590
  29.4282317  31.9216084  45.0059748  29.1501212  32.9248095  44.6829414
  29.0832877  31.7300320  46.4281130  28.0216193  31.5379262  46.5832090
  29.5549250  30.8029509  46.7539740  29.4543886  32.8658319  47.1961451
  29.3881750  32.6188946  48.1214762  31.0028648  31.8155289  44.8592997
  31.5910769  30.7463646  44.8649693  31.6227055  33.0367613  44.7530985
  30.9419298  33.7653875  44.5926285  33.0605984  33.2794547  44.9624729
  33.5385609  32.5108647  44.3550825  33.3841491  34.7020340  44.4631004
  32.6590776  35.2884531  45.0274420  34.4272566  34.9440312  44.6667337
  33.1244683  35.0286627  42.9799175  33.0403805  34.1842699  41.9576311
  33.1543398  33.1177163  42.0836449  32.6585698  34.8533511  40.7751274
  32.6468539  34.4161963  39.8647070  32.4340463  36.1649895  40.9967566
  32.0934439  37.1750903  40.1680040  31.9851732  36.9427752  39.1188598
  31.7655277  38.4432173  40.7345819  31.3246512  39.3030334  40.2521420
  31.8788004  38.6172104  42.1189117  31.5754151  39.5611858  42.5470114
  32.2472858  37.5221324  42.9714584  32.2295165  37.6111245  44.0476370
  32.5891471  36.2571669  42.4291325  33.4840775  33.2667160  46.3812876
  34.6565866  32.9369211  46.6257668  32.5788355  33.4287548  47.2979832
  31.6369605  33.7120438  47.0683765  32.9597521  33.3947968  48.6891270
  34.0355277  33.2446647  48.7800789  32.7072072  34.8156023  49.3352699
  31.6390324  35.0107694  49.2403316  33.0317569  34.8610640  50.3748369
  33.4173298  35.8872557  48.5068893  34.8116255  35.8232856  48.3703089
  35.3666353  35.0291800  48.8475561  35.4302192  36.9090986  47.6959753
  36.4973807  36.9855714  47.5485992  34.6810389  37.9114676  47.1209574
  35.2294040  38.6542964  46.5606928  33.2714343  37.9476666  47.2774744
  32.7263141  38.7926674  46.8834972  32.5899196  36.9403148  47.9663754
  31.5393233  37.0257926  48.2016277  32.2095084  32.0978308  49.2489672
  31.0036826  32.1948814  49.5542479  32.8501034  30.9133530  49.3028831
  34.1454530  30.5607200  48.8094234  34.7598147  30.5634952  49.7097874
  34.4753408  31.2466025  48.0291414  34.0358925  29.1721249  48.2631969
  34.9981761  28.6645818  48.3303976  33.5291576  29.1824174  47.2982025
  33.0857563  28.5329747  49.2429256  33.5455489  28.1569099  50.1568556
  32.5585604  27.6933932  48.7898636  32.1095085  29.6725225  49.5662642
  31.1936688  29.6851254  48.9753485  31.7965055  29.6061683  51.0379410
  32.5307488  30.0260544  51.9113350  30.5688643  29.1380310  51.2930822
  30.1139665  28.9268398  50.4164028  29.8511314  29.0014005  52.5691986
  29.2345881  28.1038666  52.5201082  30.5058670  28.8526845  53.4278631
  28.9199734  30.2173233  52.7602625  27.9699397  30.1960993  53.5192966
  29.1379571  31.3240123  52.0068359  30.0020456  31.2308979  51.4922667
  28.3745623  32.5459266  51.9995451  27.9724169  32.8026557  52.9795790
  29.1881037  33.7770915  51.7068911  29.6838236  33.7060356  50.7387447
  28.5619426  34.6349740  51.4618206  30.2364087  34.0691710  52.7440453
  31.5512347  33.6570954  52.5934887  31.8675947  33.1320596  51.7043018
  32.4913979  33.8306451  53.6483240  33.5443735  33.7114406  53.4399128
  32.1375036  34.4525290  54.8866081  32.9235506  34.6307039  56.0020971
  32.5489950  35.1551604  56.7136097  30.7812595  34.9331045  55.0429106
  30.4708242  35.5420280  55.8791161  29.8874807  34.6954203  53.9925814
  28.8535237  34.9873590  54.1026068  27.3227763  32.4164462  50.8803129
  27.5875735  32.1850419  49.6896410  26.0471463  32.6957870  51.2048531
  25.8233070  32.9323816  52.1608973  24.9906874  32.9360080  50.2303362
  25.1620770  32.4251485  49.2828417  23.6887193  32.4554586  50.8933592
  23.8170934  31.3851929  51.0550785  23.5505438  32.9575205  51.8509340
  22.8641915  32.7094030  50.2271986  24.8778987  34.4568515  49.9618435
  25.0508666  35.2673221  50.9083271  24.7569203  34.7952890  48.6650181
  24.5507288  34.0953565  47.9666758  24.6738267  36.1313820  48.0777073
  25.0947595  36.8272686  48.8034248  25.5887723  35.9577537  46.8648100
  25.8124876  36.8675065  46.3076687  26.5633082  35.6919241  47.2743416
  25.1200604  35.0710464  45.7359886  25.5479312  33.7535071  45.5761385
  26.3243270  33.2606006  46.1423969  24.9220395  33.1559253  44.5148802
  25.2531290  32.2915530  44.1107130  23.9846826  34.0360928  44.0070963
  22.9859376  33.8674045  43.0074072  22.9911637  33.0178428  42.3406076
  22.0271063  34.8941159  42.7752829  21.3940930  34.7668958  41.9095421
  22.1317720  36.0851026  43.5340261  21.4177084  36.8657446  43.3169651
  23.1805348  36.2278295  44.4797373  23.2447886  37.1542645  45.0310898
  24.0909529  35.1884341  44.7576904  23.2352638  36.6172481  47.7885103
  22.3818588  35.7553816  47.5080061  23.0085468  37.9517722  47.8467131
  23.8052726  38.5194635  48.0978251  21.8516779  38.6835861  47.3496485
  21.2060785  38.0262876  46.7671919  21.1097980  39.3016958  48.5254049
  21.7135620  40.1416922  48.8688898  19.8012590  39.9292994  47.9912901
  19.1298437  39.1079497  47.7408981  19.5041871  40.4749298  48.8869143
  19.9113464  40.5830669  47.1260881  20.7421303  38.4476304  49.5713902
  21.5016961  37.9944706  49.9446297  22.3061776  39.8495173  46.4262724
  23.1296206  40.6178951  46.8902588  21.8315792  40.0651646  45.1842070
  21.0560751  39.4652724  44.9416780  22.1325374  41.2906027  44.3118477
  23.1401014  41.2427998  43.8987780  21.2239504  41.2980175  42.9967928
  20.1881456  41.0224056  43.1948900  21.2319016  42.6328230  42.2933674
  20.7134771  43.4331894  42.8213358  22.2527885  42.9887581  42.1547985
  20.8126664  42.4645758  41.3013840  21.7845559  40.2404881  42.0370865
  22.3029137  39.3743205  42.4483824  21.0185289  39.9772477  41.3076973
  22.5687504  40.7774830  41.5034437  21.9310594  42.5846863  45.1441765
  20.7951880  42.7664518  45.5702019  22.9734421  43.4025192  45.2702379
  23.8731790  43.0351782  44.9952173  22.9747677  44.7899628  45.6493664
  22.0721650  44.9672174  46.2341642  24.1625500  45.0486231  46.6121435
  23.9294863  44.5418596  47.5486135  25.1164651  44.6540785  46.2621593
  24.3235731  46.1093187  46.8047476  22.9572153  45.7197142  44.4364071
  23.6478281  45.5066156  43.3965063  22.0273995  46.6633034  44.5453358
  21.5948224  46.8638706  45.4357004  21.4578915  47.4423838  43.5042334
  22.2115850  47.5554180  42.7249527  20.2525830  46.6854620  42.8222561
  20.5450463  45.6701946  42.5543022  19.3968236  46.6598034  43.4968805
  19.7632408  47.4951887  41.5409040  19.3464720  48.4429216  41.8817997
  20.6199741  47.6617527  40.8879328  18.6633551  46.6725683  40.9089041
  17.5142694  47.0769691  40.7389402  19.0058982  45.5031109  40.4775572
  18.3290994  44.9378204  39.9851203  19.9771857  45.2326345  40.4180288
  21.1130190  48.8441801  44.0459776  20.6240106  48.9195633  45.1798534
  21.3865972  49.8661804  43.2532644  21.9228435  49.7139406  42.4110270
  21.1744237  51.2834215  43.7068558  21.5750003  51.3889265  44.7150755
  21.8890762  52.2381926  42.7621174  21.2179685  52.4445915  41.9283772
  22.8767133  51.8580484  42.5010347  22.1073985  53.9107561  43.5001421
  19.7018003  51.5922165  43.9616108  18.8034773  51.4231586  43.1469202
  19.4550455  52.1808338  45.1011276  20.1787615  52.3135519  45.7930279
  18.1102455  52.5654411  45.5641031  17.3954988  51.7484617  45.4651356
  18.2461858  52.8297091  47.0228958  18.9150357  52.0914316  47.4652672
  18.7564301  53.7708044  47.2280598  16.9468617  52.7841187  47.7628326
  16.3026989  53.6232662  47.5001860  16.4597106  51.8372917  47.5297976
  17.0650351  52.9513550  49.2419434  17.7383709  52.1964645  49.6479702
  17.4485052  53.9455938  49.4711447  15.8232594  52.5887108  50.0247240
  15.0387037  53.3262062  49.8553848  15.4543126  51.6192865  49.6897793
  16.1723650  52.5969458  51.4936686  15.4284561  52.0845175  51.9454622
  16.9555235  52.0565224  51.8323517  16.0730946  53.4773779  51.9785261
  17.6351368  53.7707758  44.8440790  16.4522302  54.0917253  44.8274040
  18.5269558  54.6210670  44.2139196  19.4946182  54.3324995  44.1924715
  18.1095290  55.7456875  43.4425926  17.1501350  56.1130047  43.8069296
  19.1032064  56.9240141  43.5666132  20.0999284  56.6466999  43.2234573
  18.6446404  58.0857944  42.5973415  17.7722883  58.6259031  42.9653072
  19.4738877  58.7422085  42.3335695  18.4258831  57.7511072  41.5833235
  19.1919243  57.3174667  45.0961637  19.4859624  56.4510775  45.6886292
  19.9478006  58.0783844  45.2904606  17.8987503  57.9961634  45.6746531
  18.0218625  58.3503532  46.6981268  17.6136875  58.8831663  45.1089096
  17.0764768  57.2912407  45.7973671  17.9050124  55.2091694  41.9519234
  16.7750537  55.0028610  41.5251446  19.0444171  54.9988461  41.3024902
  19.8989344  55.1200247  41.8271017  19.0260804  54.8479652  39.8285770
  18.2749653  55.5398178  39.4474363  20.3798628  55.3735971  39.2553639
  20.5454659  56.4102697  39.5485926  20.1707149  55.3345537  38.1863260
  21.7024946  54.1784620  39.6615124  18.6780548  53.4196138  39.3646121
  18.4689844  53.1249523  38.1678557  18.5257220  52.4676847  40.2285957
  18.3895004  52.7971125  41.1735964  18.4046042  51.0232544  39.9805713
  18.5674882  50.6161928  40.9785080  17.0269680  50.6375885  39.4192815
  16.8328583  49.5710373  39.5328283  16.3065517  51.2225533  39.9910474
  16.9213116  50.9474850  38.3796144  19.5271099  50.3565502  39.2143893
  19.2577112  49.3018341  38.5576296  20.7101846  50.9125042  39.2132711
  20.7631803  51.7986345  39.6950030  21.8368125  50.3764296  38.4568572
  21.4637089  49.8746157  37.5640607  22.7655387  51.4407969  38.0063391
  23.2193351  51.9413233  38.8617015  23.5294366  50.8571911  37.4925566
  22.1177125  52.2822857  37.0966697  21.6447139  52.9412222  37.6101613
  22.5261188  49.2775869  39.3718100  22.5095987  49.3377590  40.6004524
  23.2018399  48.3481693  38.7260151  23.3158898  48.3568096  37.7225113
  23.8857508  47.1824646  39.2717385  23.3348322  46.6681528  40.0591850
  24.1846061  46.1749649  38.1542683  25.0975728  45.6934929  38.5046601
  23.3679914  45.4598904  38.0547333  24.3127012  46.7463207  36.7196083
  24.8564911  47.9404211  36.3115120  24.5993018  48.0427217  34.9905801
  24.9018455  48.8177395  34.3019390  24.0701485  46.9019985  34.5430398
  23.7659025  46.6231441  33.6212063  23.7973666  46.1016750  35.6301117
  23.3006454  45.1439095  35.6786108  25.1017714  47.5825739  40.0550222
  26.0503721  48.1281137  39.4445539  25.2222109  47.1923161  41.3315630
  24.5190644  46.5811586  41.7216587  26.3534188  47.6551199  42.1723509
  26.9157219  48.3252096  41.5220451  25.9388065  48.4907532  43.3763123
  25.3315973  47.8381443  44.0036154  27.1245646  49.0300083  44.1948605
  27.7339077  49.6058083  43.4982681  26.7421436  49.6416521  45.0120163
  27.7655911  48.2130671  44.5262051  25.0619245  49.6701717  42.9850721
  24.1413593  49.3443489  42.5008202  24.8012567  50.2536058  43.8681030
  25.6786108  50.7534981  42.1154594  26.2812471  51.5057087  42.6244926
  26.2190843  50.3541231  41.2572718  24.8240852  51.1769056  41.5876198
  27.2399735  46.4713526  42.6736259  28.4893370  46.6370392  42.6996851
  26.6991282  45.3680372  43.1189489  25.7092929  45.2930641  42.9326630
  27.4323130  44.2041063  43.6091852  27.7924776  43.6575270  42.7376127
  28.2320404  44.4002151  44.3233824  26.4787626  43.2464075  44.2957592
  25.3500605  42.9779673  43.8265324  26.9327402  42.5886106  45.3991556
  27.9005575  42.6812172  45.6727457  26.1337161  41.5919590  46.1293936
  25.0678825  41.7621040  45.9772444  26.5196967  40.1809597  45.6389284
  27.5960255  40.1569128  45.8093166  26.0209250  39.4202757  46.2394953
  26.1719632  39.9035931  44.2083216  25.1025414  39.2267418  43.7662172
  24.2754698  38.8666916  44.3601131  25.1711583  39.0667796  42.3564291
  24.5538235  38.5650563  41.7341089  26.2805438  39.6681380  41.8432188
  26.7278457  39.9841785  40.5438185  26.1370492  39.7405195  39.6731877
  28.1058788  40.3097010  40.3286648  28.4792137  40.3481865  39.3159771
  28.8553905  40.6043482  41.4224958  29.8932838  40.8483744  41.2503529
  28.3539057  40.5306625  42.7592611  29.0078259  40.8875084  43.5412121
  27.0478559  40.0343561  42.9891443  26.5117478  41.7357254  47.5944281
  27.6877356  41.6888714  47.9865122  25.4230595  41.7767525  48.4152412
  24.5580363  41.6423082  47.9114962  25.6148267  41.5489674  49.8239231
  26.4712954  42.1219730  50.1792240  24.4576478  42.1011782  50.6674194
  24.1973186  43.1502438  50.5267477  23.5416722  41.5432405  50.4729843
  24.8130774  42.0394659  52.1453094  24.9182606  41.0228348  52.5241280
  25.6830430  42.6487446  52.3903275  23.7870598  42.7804661  52.9572010
  23.6604548  43.8039160  52.6041842  22.8597116  42.2215986  52.8315067
  24.2289329  42.8964186  54.4700050  24.5844579  41.9270420  54.8193073
  25.1391339  43.4939146  54.4187021  23.1634426  43.5494566  55.2042341
  22.3069572  43.0163240  55.2522278  23.3342934  43.6674881  56.1926556
  22.8603077  44.4097376  54.7705030  25.8764458  40.0720787  50.0152683
  25.3954911  39.2452884  49.1741323  26.6702962  39.6834469  51.0119772
  27.1997976  40.3777647  51.5195751  27.0445991  38.3070564  51.3441324
  26.5838242  37.5475836  50.7124710  28.5582924  38.0917573  51.1410618
  29.0600657  38.9049125  51.6655684  28.8386750  37.1665692  51.6445589
  28.9785838  38.0209279  49.6789265  29.1942954  39.2359471  49.0370512
  29.2849922  40.1709843  49.5698500  29.3542886  39.2888570  47.6316309
  29.5494771  40.2325678  47.1440744  29.3154049  38.1613946  46.9032001
  29.4574928  38.1736636  45.8326530  29.0589452  36.9129252  47.5507307
  29.1596365  35.9925723  46.9946575  28.8661838  36.8252420  48.9026499
  28.6325336  35.8789659  49.3678093  26.7242265  37.9738617  52.7632046
  26.9222927  38.7842536  53.6517715  26.3181090  36.7278266  53.0497408
  26.0553241  36.1872435  52.2380686  25.8122325  36.2885308  54.4201660
  26.3779426  36.8023801  55.1973581  24.3084693  36.7034674  54.7278070
  24.0909433  36.3270259  55.7273436  24.0015030  38.1478953  54.4620705
  23.0002880  38.4767628  54.7404814  24.6792531  38.7039638  55.1097918
  24.1122508  38.4739661  53.4278965  23.3323741  36.0745120  53.9041090
  23.3110189  35.1163030  53.9586687  25.8940339  34.8238039  54.6246529
  25.6834316  34.0717697  53.6718845  26.2298822  34.3573189  55.8485985
  26.3693810  35.0411892  56.5786409  26.6913033  32.9754901  56.1049986
  27.1513629  32.7810621  55.1361561  27.8469133  32.9750562  57.0805979
  28.5768270  33.7249017  56.7755413  27.5824809  33.4097791  58.0445480
  28.2194662  31.9689226  57.2729445  25.6466603  31.8691254  56.3684368
  24.6935177  32.0875049  57.1466446  25.8256388  30.7883835  55.5976677
  26.6420364  30.6562924  55.0178814  24.8522449  29.6460247  55.8072281
  23.8256454  29.9977303  55.9096956  24.8557854  28.7047052  54.5589924
  24.1777158  27.8662038  54.7178602  24.3822002  29.3863511  53.2737255
  23.3381462  29.5946288  53.5075378  24.8436046  30.3692198  53.1778908
  24.4448829  28.6984587  52.4305296  26.1766505  28.2846713  54.3176126
  26.6065931  29.0132999  53.8639021  25.1788878  28.7616563  57.0061779
  24.4250035  27.8052163  57.2164536  26.2084436  29.0853739  57.8311491
  26.7212224  29.9510050  57.7425861  26.3702917  28.2643723  59.0964746
  25.3945851  27.9266906  59.4458580  27.3356342  27.0766592  58.7294865
  27.4183011  26.4410043  59.6110821  26.9234776  26.4460611  57.9417181
  28.7962198  27.5441957  58.3667564  28.6980343  28.1496644  57.4657154
  29.1971469  28.0818319  59.2260027  29.6776581  26.3460803  58.1024361
  29.9054217  26.0227394  59.1181517  29.0464687  25.5817914  57.6490498
  30.9845376  26.6201019  57.3719788  30.7150269  26.9007945  56.3538027
  31.5134239  27.4258184  57.8810930  31.8501115  25.4172039  57.2796535
  32.7233100  25.6094050  56.8098783  32.1832919  25.1128459  58.1832361
  31.3930225  24.6021271  56.8964863  26.9258571  29.1978192  60.1432419
  27.6591301  30.1259756  59.8316813  26.6587210  29.0085816  61.4232826
  26.1384869  28.1985164  61.7286587  27.2014952  29.8998904  62.4795628
  26.9393134  30.9434390  62.3053074  26.5878820  29.4418001  63.7784672
  25.5250835  29.6071291  63.6017609  26.8702483  28.4177780  64.0229034
  27.0657516  30.2781343  65.0437546  28.1360364  30.1217651  65.1784325
  26.9775510  31.3127422  64.7122240  26.1298585  29.8497009  66.1962557
  25.1340055  30.2544403  66.0157919  25.9611702  28.7732363  66.1666203
  26.6678667  30.2200198  67.5665951  27.6795387  29.8142934  67.5700951
  26.7446494  31.3071394  67.5860310  25.8621144  29.7285557  68.7027025
  25.7680678  28.7234688  68.6702061  26.2048197  30.0757694  69.5870638
  24.9380565  30.1164985  68.5773325  28.7800002  29.8571658  62.5856876
  29.3582273  30.8893180  62.9456186  29.4228172  28.7955022  62.1788883
  28.9236689  27.9737163  61.8696737  30.8103991  28.5246825  62.5729704
  31.0775995  29.1057229  63.4556341  30.8226466  27.0315981  63.0369091
  31.8595457  26.7701912  63.2481098  30.1293063  26.9299054  63.8717937
  30.4254007  26.0990024  61.8278599  31.2410188  25.2427649  61.4466715
  29.2150474  26.1152244  61.4791059  31.7945695  28.8998103  61.4830828
  32.6086807  28.0548096  61.1122370  31.8108082  30.1970792  61.1071825
  31.0628486  30.7269692  61.5312910  32.7936339  30.8733678  60.2227068
  33.7839699  30.5748606  60.5665493  32.5066924  30.4503942  58.7265491
  33.2409906  31.0100794  58.1471872  32.5714993  29.3643403  58.6603355
  31.1532259  30.8985090  58.2737732  30.3884339  30.7768607  59.0408421
  31.2147641  31.9778371  58.1346083  30.6115484  30.1948452  56.6791821
  31.3304234  31.4182758  55.4116249  32.3290920  31.6903162  55.7533169
  31.2354279  31.0238004  54.3999577  30.7300901  32.3218107  55.5180645
  32.6959753  32.3910499  60.4374695  31.6767645  32.8849292  60.8482122
  33.8133740  33.0999899  60.2087116  34.7006726  32.6525354  60.0281954
  33.8359427  34.5867252  60.4900646  32.8166509  34.9678659  60.5523252
  34.4591951  34.8422217  61.8326283  33.9620352  34.1795087  62.5409651
  35.5248547  34.6205115  61.7750978  34.3708134  36.1481261  62.1334982
  35.2084875  36.6088104  62.0459175  34.6831322  35.3397894  59.3944454
  35.7194233  34.8362947  59.0426064  34.2185020  36.5190744  58.9687014
  35.0053120  37.1686268  57.9367971  34.6620536  36.8104410  56.9662428
  36.0806274  36.9912457  57.9551458  34.6690536  38.6762810  58.1396866
  34.8233724  39.2675948  57.2371197  35.3356147  39.1446662  58.8638592
  33.1354594  38.5418177  58.4973812  32.6619554  38.4532785  57.5196028
  32.7812719  39.3835068  59.0925407  33.0269456  37.3072290  59.3689394
  32.9938197  37.5914764  60.4207039  31.7708254  36.6089344  58.9621210
  31.6815400  35.7228041  58.1223154  30.6072044  37.0017910  59.4864845
  30.5767059  37.8379679  60.0521469  29.2568612  36.4014101  59.1500521
  29.4861865  35.3679276  58.8903809  28.2756639  36.2885642  60.3154182
  28.2797408  37.2067356  60.9028292  27.2308993  36.1173177  60.0561142
  28.6892629  35.0964189  61.1620855  29.7666669  34.9461412  61.0933733
  28.2763696  35.2905750  62.1519947  28.1213403  33.7155819  60.6588268
  26.8881559  33.5088563  60.6025410  28.9341831  32.6674104  60.4239607
  28.5175085  31.8367100  60.0284529  29.9261689  32.7390766  60.5998230
  28.6676073  37.0309520  57.8895950  27.9536247  36.3308764  57.1919918
  28.8331246  38.3539391  57.6987505  29.5308256  38.9165306  58.1643772
  28.2064819  39.0935063  56.6357422  28.1340003  38.3503556  55.8416557
  26.8518877  39.5694494  56.9755888  26.5138078  39.9418044  56.0085535
  26.2122226  38.6974430  57.1117306  26.6775060  40.5835152  58.0948544
  26.9039869  40.0305891  59.0064907  27.2235584  41.5124702  57.9306316
  25.2474952  40.9362507  58.0968285  24.8289752  41.0804939  57.1007681
  24.6326470  40.1491976  58.5334158  24.9696326  42.2027254  59.0085649
  25.6019688  43.0105495  58.6402178  23.9108276  42.4600744  58.9803934
  25.3237200  41.9041300  60.3719711  24.9660182  42.6338625  60.9716702
  24.9077725  41.0562325  60.7299662  26.3083124  41.7877007  60.5646467
  29.0900564  40.2218628  56.1589146  29.8732162  40.8298349  56.9845295
  29.1087699  40.5647039  54.8254919  28.3068109  40.2137136  54.3217325
  29.9296021  41.6062593  54.3007517  29.8196912  42.4631548  54.9653912
  31.3740587  41.2052679  54.3299150  31.7695093  42.1366739  53.9246845
  31.7128706  41.0351849  55.3518629  31.6649008  40.1309633  53.3181620
  31.8557262  38.8715315  53.8982677  31.7865777  38.7296391  54.9666739
  32.2999668  37.7647519  53.0998421  32.4552298  36.7720532  53.4958744
  32.4333405  38.0255342  51.7213392  32.8272343  37.1875834  51.1653852
  32.3135591  39.3289232  51.2217617  32.5028253  39.4156885  50.1620245
  32.0188761  40.4460669  51.9340658  32.0184374  41.4689875  51.5876055
  29.3975306  41.9591856  52.9386663  28.4533310  41.3301945  52.4149895
  29.8453164  43.0411148  52.3018312  30.4735374  43.6565351  52.7985287
  29.5071864  43.5401869  50.9763765  28.7074924  42.9149723  50.5792713
  28.9591408  45.0015879  51.1156321  29.8084593  45.6147909  51.4168644
  28.7603068  45.3821278  50.1137590  27.7562428  45.3494167  51.9184065
  27.7936721  45.5412626  53.2619905  28.6361647  45.4921818  53.9359331
  26.5310407  45.7899094  53.7777901  26.2950897  45.9327602  54.7493982
  25.6343508  45.9677505  52.7824974  24.3567348  46.4037561  52.7709675
  23.8902807  46.7416430  53.6845636  23.6487889  46.3195801  51.5775585
  22.6109600  46.6074753  51.4973402  24.2876101  45.9476519  50.4058838
  23.7082934  45.8625221  49.4983912  25.6397653  45.4790068  50.4085636
  26.0905910  45.1039696  49.5016432  26.3247037  45.5621481  51.6243601
  30.6564546  43.5325050  49.9946260  31.8081117  43.8707590  50.3545332
  30.3639841  42.8875446  48.8229465  29.4698048  42.5071526  48.5475445
  31.3710022  42.9645252  47.7412891  32.2977972  43.3688307  48.1483412
  31.6544867  41.9716835  47.3920012  30.8975530  43.8075829  46.5758467
  29.8590159  43.4874916  46.0403681  31.4759564  44.9683380  46.3909578
  32.3436165  45.2102089  46.8478727  30.9251237  45.9745216  45.5479336
  29.9807668  45.6938267  45.0815678  30.6621075  47.2988653  46.3536596
  31.6404128  47.6776981  46.6494751  30.2538395  48.0845261  45.7179308
  29.7430420  47.0838594  47.6191807  30.1797485  46.3744307  48.3221006
  29.5670676  48.4149742  48.4356260  28.9484262  48.2553625  49.3187571
  30.5409551  48.8514328  48.6573267  28.9624119  49.1472244  47.9005527
  28.3810830  46.6461039  47.2052193  27.9263973  47.2884130  46.4510298
  28.3199096  45.6102896  46.8713760  27.7507591  46.7882299  48.0830526
  31.9472218  46.1549616  44.4280338  33.1394887  46.1690855  44.6579027
  31.4131737  46.2353992  43.2353735  30.4110003  46.3036060  43.1299925
  32.1476579  46.2938833  41.9689465  32.7051544  45.3578186  41.9360638
  31.2214971  46.1789417  40.7422447  30.7581091  47.1311760  40.4841375
  31.8787122  45.8103466  39.4064474  31.5229964  46.3864231  38.5522175
  32.9592824  45.8379459  39.5468163  31.5884209  44.7848749  39.1778755
  30.1622605  45.2788067  41.0337114  29.5127773  45.6430531  41.6395950
  33.0415320  47.5408697  41.8730307  32.5532079  48.6243010  42.1176147
  34.3282223  47.3482084  41.4496660  34.6231842  46.3887119  41.3379908
  35.2947855  48.5562563  41.3718224  35.4132652  49.1036558  42.3069286
  36.6651011  48.0384541  40.8243895  36.9092321  47.0717525  41.2648296
  36.4881945  47.7463913  39.7892547  37.9215384  48.9077282  40.7350111
  38.0379939  49.4601011  41.6674423  38.7644982  48.2236052  40.6375933
  38.0117536  49.9343109  39.5817256  37.0364332  50.4062271  39.4627666
  38.8358545  50.6291962  39.7432494  38.2697725  49.2401457  38.3113503
  38.4612632  48.2611847  38.4696889  38.2441664  49.6433258  37.0562959
  38.0489802  50.8245277  36.5661240  38.0974269  51.6541004  37.1401954
  37.9205608  50.9337473  35.5702925  38.2940459  48.7599087  36.1283207
  38.2871294  47.7961874  36.4304614  38.1843972  49.0193462  35.1583886
  34.8462582  49.7283506  40.4643965  34.8570347  50.9075689  40.8412313
  34.2097545  49.3467474  39.3392062  34.1760564  48.3634901  39.1107774
  33.6427879  50.3104210  38.3851171  34.4094801  51.0241222  38.0836034
  33.4682155  49.5969820  37.0368409  33.0567622  50.3338623  36.3470483
  34.3923569  49.2876387  36.5486073  32.6041079  48.4956503  37.0964503
  33.1906319  47.8067446  37.4173856  32.3015022  50.9764338  38.7209249
  31.8301344  51.7290163  37.9284191  31.6539240  50.4863739  39.7625470
  32.1716905  49.8205709  40.3181791  30.3268790  50.8306932  40.2778482
  29.7610402  51.3367081  39.4956255  29.5488548  49.6126080  40.7340956
  30.0641823  49.1614389  41.5820265  28.5644197  49.9154568  41.0908508
  29.4569516  48.8851070  39.9276209  30.4504108  51.8788433  41.4125061
  29.3942904  52.4571800  41.7289305  31.6207552  52.1713352  42.0226622
  32.4550581  51.6608477  41.7707777  31.7315006  53.0377007  43.2019472
  30.7753801  53.4064531  43.5733795  32.3030782  52.1371222  44.3796539
  32.7588892  51.2171412  44.0136385  33.0198956  52.7681065  44.9051380
  31.2238312  51.7469311  45.4662752  30.7834172  52.6100445  45.9654427
  30.1107287  50.9115839  44.8337030  30.5523133  50.1281977  44.2177439
  29.5255685  50.3906584  45.5915499  29.5009470  51.5093660  44.1562653
  31.8854237  50.8959198  46.5013504  31.1620784  50.4672194  47.1949577
  32.3593664  50.0088644  46.0810900  32.6592326  51.3582611  47.1141815
  32.6289797  54.1984701  42.9650116  33.6256528  53.9831734  42.2663879
  32.2734880  55.3995371  43.4738398  31.3792729  55.5264044  43.9259291
  33.0651236  56.6046906  43.3412600  34.0633798  56.2871504  43.0400038
  32.5566697  57.5317574  42.2297907  32.6875067  57.0223665  41.2750626
  31.0508585  57.8292561  42.3233986  30.9168768  58.4932899  43.1773376
  30.7132292  58.3151197  41.4079523  30.4336047  56.9454384  42.4845219
  33.2965994  58.8542032  42.1375513  32.9270744  59.5317984  42.9072428
  34.3735647  58.8677883  42.3050690  33.1301808  59.5205641  40.8016682
  33.6221814  58.9796638  39.9932933  32.0746040  59.7788763  40.7172108
  33.7184858  60.4381704  40.8003187  33.3330417  57.2802544  44.7347498
  32.3260021  57.7183676  45.3787565  34.6448088  57.6371288  45.0666428
  35.9143949  57.2673607  44.3860579  35.9754539  57.4136829  43.3076525
  36.0685873  56.2074900  44.5885515  37.0282555  58.1449842  45.0267506
  37.2497272  58.9004993  44.2729378  37.9067230  57.5298882  45.2218246
  36.4215064  58.6161947  46.2855482  36.9232798  59.5342636  46.5912819
  36.6487837  57.9298687  47.1012688  34.9118018  58.6820984  46.0622263
  34.3263459  58.3745289  46.9286823  34.5701551  60.0478554  45.4390192
  34.9875021  60.4644299  44.3636703  33.6805415  60.7330894  46.1553860
  33.4379339  60.4429722  47.0919037  32.8361058  61.9073582  45.7444859
  32.8858829  61.9965601  44.6592855  31.3726497  61.8396378  46.1358118
  31.3576078  61.7383385  47.2209930  30.5448461  63.0761671  45.7393169
  29.4862580  62.8830767  45.9131241  30.9531641  63.8663721  46.3693619
  30.7449889  63.3485794  44.7030592  30.9164429  60.6984282  45.4440975
  31.4959359  59.9744654  45.6924295  33.4791088  63.1890392  46.1218691
  33.5638881  63.5194492  47.2977638  33.9771438  63.8915396  45.2230453
  23.0202675  55.0554705  41.5484667  27.5958776  35.6682611  41.2552691
  27.0361543  35.8661437  42.6827860  28.0545735  36.3096642  43.7568235
  29.3943977  35.6516480  43.5661459  29.7304487  35.1437402  42.3946428
  28.9866114  34.9695373  41.2593079  25.6827140  34.2747784  38.3827209
  25.2095890  33.3838749  39.3050790  25.8881092  33.7929988  40.6140566
  26.7093635  35.0216603  40.3063726  26.6429448  35.2909780  38.9294076
  24.6005726  32.8801227  36.6266847  24.1362739  31.9703507  37.6001740
  24.4524956  32.2116828  38.9768577  25.3626323  34.0332913  36.9859838
  27.2908735  36.1948967  38.3317900  23.9633799  31.3313890  39.9585080
  29.4536543  34.3184376  40.3230810  30.1378775  35.5335259  44.5582962
  27.9030418  36.6853404  40.9821177  30.6624413  34.7487950  42.3549271
  24.5273280  32.6765037  35.5624604  23.4845853  31.1397028  37.3457575
  25.8084154  34.6413660  36.2043691  26.5119505  32.9311538  40.8813715
  25.0902653  33.9295816  41.3544607  24.2302203  31.4612174  40.9260225
  23.2260537  30.6736684  39.7396612  26.5522170  34.9800658  43.1118298
  26.2472510  36.6264820  42.6287174  27.5975704  36.0149837  44.7095680
  28.1661844  37.3872519  43.5843182  22.0890951  64.1121340  46.8882227
  53.9998055  21.5196633  40.5759525  68.5852718  43.2823324  31.9291806
  39.4891834  49.5481443  60.6243038  34.6117640  45.8689785  13.6221397
  68.3646822  44.6356630  28.6868238  67.7728510  62.5719166  34.6436548
  49.9362040  12.4315560  20.5325723  70.9436162  56.0961901  40.4478640
  71.7793591  55.9792422  39.9960989  70.6273396  55.2057813  40.6007380
  19.8822784   1.7081123  10.0934834  20.4605055   2.4318176  10.3345913
  19.6067857   1.3328057  10.9298319  69.2382669   3.2320082  54.2357922
  69.4415045   2.3171686  54.0408707  69.6695948   3.3999136  55.0736427
  75.3023990  67.4286197   1.1447996  75.9131034  66.8063186   1.5397829
  74.4762595  67.2778391   1.6041416  16.0190534  11.3729387   2.1623272
  15.6514024  10.8551603   2.8785461  16.8976402  11.6064077   2.4620050
  25.3315782   4.4502216  13.8734097  26.1340618   4.1565615  14.3047041
  25.6202841   5.1368004  13.2721609  60.2689345  46.3936643  14.9704641
  60.5437215  46.8842481  15.7450956  60.5776627  45.5017482  15.1298517
  13.2128653  24.6091628  62.2176552  12.7173742  25.1796007  62.8052950
  12.5546583  24.2458153  61.6252279  63.0383976  43.5160618  10.4784531
  63.8174088  43.0419128  10.1876778  62.6396377  43.8397853   9.6707243
  39.0246630   8.9946520  47.5352001  38.2161427   8.6981744  47.1173191
  39.3799543   8.2101470  47.9529953  60.3622484   6.6092569  50.8485508
  60.3057098   7.5632399  50.9028864  60.9420633   6.4456648  50.1047182
  71.8826230  61.8258451  18.7671083  72.6820262  61.6217755  19.2524332
  72.1566661  61.8419884  17.8501219  20.2865886  13.4004742  22.5951380
  19.6585273  12.6784235  22.6154417  20.0179815  13.9305263  21.8447107
  25.4433584  51.2794691   0.8859390  25.2340603  50.4648119   1.3428492
  24.5918798  51.6453081   0.6464142  39.5933120  24.5809196   2.9154820
  38.7765471  25.0206219   3.1516832  40.2591864  25.0060664   3.4559435
   4.8754811  26.7175346   6.3965458   5.7692289  27.0570284   6.3497299
   4.9393153  25.9531408   6.9691319  52.3652713  70.8083080  13.4441942
  51.5703647  70.2826689  13.3544344  52.1221225  71.6699837  13.1056303
  10.8261649  67.6591109  43.6773867  11.1206071  68.5021709  43.3327288
  11.5724437  67.0737599  43.5482973  73.6175473  67.2000836  17.1106047
  73.9091237  66.2885522  17.1286768  72.7759488  67.1733593  16.6553778
  47.6264381  28.9649010  51.0889435  47.6364708  28.0299878  50.8838463
  47.5736904  29.3966174  50.2362585  72.8620449   7.7607208  28.4443945
  73.6727801   7.2691971  28.3127111  73.0873361   8.4239632  29.0967649
  52.0440292  71.3009596  63.6594200  51.1937666  70.8818769  63.7923241
  52.0091915  71.6343498  62.7628326  21.4326016  56.7412613  36.7907328
  22.0691745  57.4358498  36.9597048  21.5394751  56.1349426  37.5236601
  42.3481051  69.9203824  21.2990564  42.0293967  69.4097947  20.5547709
  42.8344027  70.6434082  20.9028429   2.0752494  63.2316254  10.9692663
   1.8801371  62.8034328  11.8028206   1.2304036  63.2814573  10.5220741
  31.7287159   6.7281109  38.8397211  31.0862016   6.2632709  39.3757528
  31.2112856   7.1354872  38.1450647  52.4705155  61.8450020  28.5635752
  53.1345995  61.2155388  28.8446421  51.6449697  61.4810442  28.8833231
  59.2101105  12.6199252  53.0536890  58.2776602  12.8337390  53.0861425
  59.3330081  11.9775684  53.7526178  20.6317472   9.8351770  21.4601034
  21.4257049  10.3687674  21.4263147  20.8347320   9.1433531  22.0897192
  46.8299818  28.9897299  46.7082691  46.9717264  29.9057245  46.4693356
  46.2928343  28.6374521  45.9986162  75.2243185   8.3047652  34.9268222
  75.0957394   7.3873103  34.6860409  74.7568989   8.4024435  35.7564044
   9.2918640  53.7779617  47.4115896   9.8467225  54.1288376  46.7149925
   8.4014690  54.0114784  47.1491051  65.9292157  61.5414404  22.9142851
  66.1045392  61.8725728  23.7951082  66.2537797  62.2278045  22.3313707
  56.3186772  60.0656603  23.7962622  56.9385393  60.6723522  24.2011351
  55.9447439  60.5576514  23.0652708  26.1721532  48.2881652  23.2799238
  25.9398524  48.1518243  22.3614019  25.8453290  49.1648410  23.4820456
  51.8454234  23.6671280   9.6873659  52.2685019  23.9352344  10.5030579
  51.7900435  22.7134882   9.7484774  14.6837962  15.7309377  55.8909369
  13.9743602  15.2586436  55.4551935  14.3601680  16.6281593  55.9714890
   3.1243579  44.8296176  10.1946444   2.9628293  44.7562538   9.2540306
   4.0072219  45.1939278  10.2583593   8.6654918  31.6875927   3.2731527
   9.0918462  31.7393367   4.1285891   8.2968776  30.8047556   3.2422680
  32.3117852  13.4777474  48.4274769  31.8277383  13.8356769  47.6832867
  32.7563310  14.2341447  48.8101959  43.6180353   2.2854337  33.3816695
  42.6647234   2.2369142  33.4529233  43.8093519   3.2231197  33.3623409
  51.7601824  36.3526225  60.4007006  51.8089342  36.1223459  59.4728899
  50.9376717  35.9656477  60.7006264  63.4656556  38.9898902   3.3231348
  63.0702288  39.8495318   3.1786198  62.9260476  38.5895963   4.0049118
  30.3203559  47.4689245  65.2436161  30.9165573  46.7204762  65.2681065
  30.6969404  48.0537033  64.5860100   4.2452638  51.7069732  27.8983969
   4.7722356  51.1408530  27.3344416   3.3665816  51.6704773  27.5204939
  55.3271134  51.0345684  10.3148216  56.0118254  50.5365227   9.8683352
  55.5526479  51.9505356  10.1524300  66.2544329  45.1805638  23.4827322
  65.3075917  45.1790749  23.6231703  66.5449460  44.3254297  23.7998766
  54.5554304  15.7529664  53.0676603  53.6675549  16.0779822  53.2168961
  55.1176167  16.3656473  53.5417938  22.5673787  30.8895736  25.7218641
  21.6569631  31.1559139  25.5936617  22.9913012  31.0744517  24.8838038
  59.8130448  56.9046603  11.4914936  60.4636343  56.2309002  11.2939781
  59.2966302  56.9814681  10.6892199   4.1789834  40.5851798  22.5368685
   5.0825278  40.4845439  22.8363890   3.9331071  39.7156830  22.2210306
  62.7772744  47.8393136   1.3343615  63.1314500  48.0508505   2.1980995
  63.2174356  48.4466623   0.7397026  31.1578584   2.9541326  62.6578999
  31.1260962   3.7741834  62.1652126  32.0295668   2.6011959  62.4795818
  10.6047074  34.6520807   5.4832644  10.7033364  34.9239497   6.3957256
  11.3337819  35.0730442   5.0277752  69.8843749  53.5887848   0.6013483
  68.9503606  53.3843099   0.5561966  70.2676947  53.1231879  -0.1419645
   6.3371055  62.6164411  18.5359282   5.5822198  63.1689547  18.3331675
   7.0949761  63.1805967  18.3823389  63.1557798  10.6568325  63.3547306
  63.8311672  10.3127098  63.9392471  62.3317623  10.4693556  63.8042593
   2.1584002  25.7738565   0.0014967   2.0570866  25.4992651   0.9128517
   3.1028287  25.8791934  -0.1133352  17.7371470  50.7707225  34.3103785
  18.1788079  50.6397794  33.4713167  18.2179849  51.4870869  34.7249216
  50.1188517  10.6769347  63.7924957  50.2837420  10.1964998  62.9811811
  50.0870085  10.0006080  64.4691038  26.6960025  12.2296250  64.2139912
  26.8353081  12.6263547  63.3540869  26.2954974  12.9245830  64.7363520
  77.2614129  42.8969263   1.1462826  77.7403100  42.8743391   0.3178066
  76.9102462  42.0118641   1.2441486  14.5108191  39.3114086  56.1440176
  14.4870679  38.5486501  55.5662054  13.6206595  39.3779163  56.4895910
  58.6567386  14.8687576   0.7952923  58.1199987  14.1869877   1.1994356
  59.0632112  14.4389437   0.0427813  35.9568850  65.4855536  45.7497782
  35.6471125  66.2081812  45.2038092  35.3108374  64.7916840  45.6178659
   1.6518244  22.9124880  56.5885830   1.6848692  23.5295391  57.3196030
   1.3247522  23.4300995  55.8528328  11.4254538  53.7009143  53.6345953
  10.8208005  53.0487453  53.9885706  11.3418786  54.4501053  54.2244715
  65.6042004  26.2274265  62.7023983  65.2292871  27.0671177  62.9680872
  65.3186560  26.1137366  61.7958832  60.7618602  71.2910222  21.4912027
  60.3858955  72.1075629  21.1623472  60.4854281  71.2517093  22.4067778
  70.1954842  15.7421410  51.0090733  70.6204653  15.4731429  50.1946592
  70.5737829  15.1701903  51.6768980  28.1429355  27.5048863  15.0566095
  27.4661319  27.4843238  14.3800301  28.9675395  27.4743782  14.5715088
  42.2022056  11.6790062  40.2292532  42.6662969  12.0786720  39.4936461
  41.7505598  12.4090773  40.6526274   9.0800015  36.3327553  21.5562147
   9.0887372  37.0375588  20.9086031   9.9777858  36.2999003  21.8865770
  14.1703479  68.6929678  12.1416992  14.7051494  68.2650922  12.8103870
  14.1155021  69.6051954  12.4264187  29.6581983   5.1897913   7.6751560
  29.0279007   4.4958025   7.8683657  30.0363397   4.9418312   6.8315023
  48.4632683   5.2415037  63.3921623  48.7618542   4.7531593  62.6249599
  49.0415430   6.0032851  63.4311533  13.0331294  48.9835952  11.4976734
  12.9210011  48.0420850  11.3664574  13.2471005  49.3227481  10.6285233
  47.7545691  30.8696580  49.1002226  48.4102011  31.5589857  49.2060852
  47.2280741  31.1526465  48.3525944   1.2675318   5.0546127   3.4238762
   1.9658407   5.1407248   4.0728659   1.0604223   5.9551102   3.1739897
  12.4389235  64.9400686  29.2972845  12.4783818  65.8963202  29.2812246
  11.8669764  64.7363542  30.0372881  78.6016193  11.8379551   8.6553186
  79.4468728  11.5875441   9.0282387  78.8173381  12.2047144   7.7978891
   9.1271226  60.3489660  20.9569544   9.0036170  59.5149563  21.4101786
   8.6362759  60.9815739  21.4814657  72.4977067  21.9818312   7.7329201
  72.9648128  22.8119665   7.8273863  72.0912078  22.0328384   6.8678230
  33.7064139  53.4175573   5.4228252  33.2693736  52.7818464   4.8561663
  34.0298335  54.0901350   4.8234314  50.6386614  11.2454093  41.9792223
  50.9258413  12.1512282  41.8641043  49.8104954  11.1942255  41.5019894
  39.3093824   1.6686517  35.1688093  38.8186311   1.5678769  34.3531794
  38.7407207   1.2894135  35.8389086  39.4668746  21.9457936  56.7115974
  40.3608942  22.0246172  56.3788128  39.2526603  21.0189247  56.6054869
  25.0118605  34.2072822   7.3697418  25.8388678  33.8194336   7.0836205
  25.2653901  35.0293307   7.7894920   8.0931918  39.6834891   2.4699110
   8.3968942  39.7094432   1.5625423   7.4307839  40.3726064   2.5205750
  62.2688723  15.8358932  64.7461271  63.2151699  15.9432590  64.6500778
  61.8927336  16.4655817  64.1311121   2.7512900  73.3321212  21.9825167
   2.0473878  73.1576990  22.6072783   2.5213353  72.8133582  21.2116426
   7.8364770  62.4586056  22.0963472   6.8915288  62.4054764  22.2394556
   7.9700105  63.3171867  21.6948027  14.7828841  19.9811971  29.4532657
  14.3897760  19.3791318  28.8214326  14.2039502  19.9411321  30.2144885
  62.7113350  54.5301567  24.7996611  63.0699451  53.9953040  25.5078691
  63.2609995  54.3256556  24.0431685  22.3257303  12.0406252  21.2477392
  23.1883573  12.4010759  21.4531225  21.7329550  12.4728685  21.8625635
  58.0901773  51.0081373  16.5407366  57.7967604  51.8045817  16.9832415
  58.8836081  50.7514940  17.0106596  14.7096157  19.1739040  12.1318573
  14.9723482  19.4828850  12.9988808  15.3419733  18.4870869  11.9205755
  26.3484955   1.2588721   9.2965979  25.7677793   1.2358266   8.5360283
  26.0345173   0.5509811   9.8592133  11.9809071  28.5631196   2.9438538
  12.1939294  29.4747572   2.7444309  12.6836030  28.2748752   3.5264009
  59.0534973  42.0441055  61.8875933  59.7969913  41.8747568  62.4661827
  58.4268665  42.5172377  62.4350548  19.2261330  41.5570630   4.3947071
  18.8115517  42.0364608   3.6773962  19.5874087  42.2388487   4.9611706
  29.8560683  54.2731641  28.8225740  30.6108062  54.1527580  28.2462877
  29.4368426  55.0726615  28.5043139  16.9099204  42.5134157  10.7834143
  16.3188950  41.8072228  11.0445875  16.6035859  43.2759617  11.2742466
  56.5310335  48.1777573  52.4867105  56.5772629  48.9729881  53.0174637
  57.3798800  48.1339025  52.0465231  70.9595299  25.3978324  59.3732977
  70.8428144  25.0880146  58.4751797  70.6985092  24.6556473  59.9185133
  72.5452307   0.4611855  39.3215174  72.5026050   1.1905724  39.9399084
  72.8732410   0.8524757  38.5118670  49.5618629   7.3559814  42.1811575
  49.7082853   7.5689608  43.1027979  50.3409385   7.6847893  41.7326445
  71.8027575  70.2740859   1.7130703  72.3039563  70.9059642   1.1975473
  71.6038306  69.5676778   1.0985369  66.7850859  42.7962814  15.1550859
  66.6528924  43.7426160  15.2117151  66.2243970  42.5190620  14.4305033
  13.5389296  46.9389074  15.6154818  14.3041007  47.0583145  16.1780542
  13.6565415  47.5777184  14.9124044  14.3016433  21.1109358  58.9554590
  14.7360992  21.9215589  58.6901850  13.4007120  21.2102800  58.6477560
  13.1741158  57.3998700  22.4380869  13.7207429  57.5479983  21.6664118
  12.5178592  58.0958532  22.4039167  34.9300718   2.6445728   8.5878271
  34.2746210   2.8406340   7.9183668  34.5813274   1.8812281   9.0481705
   0.8398366   5.3530842  11.1742157   1.4642214   4.9342066  10.5818314
   1.0642886   6.2829739  11.1402744  56.1405309  63.2835673  28.7085146
  56.9177230  62.7294992  28.7806887  55.5365093  62.7791046  28.1636232
   1.9108525  20.5914235  45.2352524   1.2349768  20.0254917  45.6082678
   1.4603768  21.4169478  45.0568819  49.3059094  67.7885460   3.7032169
  48.7191351  68.4906577   3.9842266  49.6615680  67.4332379   4.5177692
   3.0334489  39.1473910  25.1370234   2.6527659  39.5926999  24.3800444
   2.3476569  38.5485387  25.4324812   7.6936070  69.6940683  16.8304056
   6.8728749  69.6236609  16.3428873   7.4609248  70.1786588  17.6224035
   9.0645432  16.2651735  32.0366472   9.4892955  15.4097181  31.9732946
   8.1279492  16.0707050  32.0018953  12.5178067  39.3592310  18.4019083
  12.8161733  38.5968222  18.8978380  13.3151070  39.8603305  18.2303041
  66.5829992  32.8476763  51.9779778  67.3216248  32.5892997  51.4267063
  65.8744287  33.0276728  51.3601065  29.8059337  71.0089897  24.5088762
  28.9985434  70.6136058  24.1802114  29.5210902  71.5724181  25.2283472
   8.1338660  59.0021847  15.9024233   7.3676984  58.7365769  16.4110273
   8.8134639  58.3742260  16.1474794   4.1592757  41.4332561  16.7017073
   4.4037263  40.9048902  15.9419054   4.1295688  40.8098118  17.4274248
  15.4749553  56.0750650   3.3024496  15.1671378  55.4697643   2.6278442
  15.4506032  56.9346832   2.8820986   8.9777541   3.1882149  21.4281935
   8.3930587   3.8998371  21.1675066   9.7455787   3.2909542  20.8659548
  29.6367137  68.4910606   0.2990812  29.5079009  67.5427149   0.3158754
  28.8720576  68.8284110  -0.1675230  70.7559808  46.0537820  22.0318789
  70.0475676  46.3865630  21.4808458  71.3415416  46.8021630  22.1470922
  66.5249164  67.6521419  28.3050245  66.1445172  66.9137333  28.7807173
  67.0930369  67.2476028  27.6494211  54.2170429   0.6654622  22.1758652
  54.5282459   1.2819883  21.5130830  54.8301220   0.7668392  22.9039383
  60.2134736  33.6770137  23.5390371  60.4728420  34.2907022  24.2263121
  59.3600734  33.9945965  23.2439417  38.7331724   4.7039038  15.1986689
  37.7922344   4.5358234  15.2497381  38.9259910   4.7035652  14.2610878
  60.9547424  10.2882343   9.4624180  61.0447120  11.1570698   9.8539061
  61.1055946   9.6819693  10.1876205  43.9242554  18.7107170  49.1839838
  43.1299162  18.3554387  49.5827723  43.7140751  19.6277010  49.0073681
  75.7636960  66.8260883  30.6830591  75.9569485  67.6089023  31.1988920
  76.5677150  66.6587614  30.1913256  63.4509507  13.0692345  47.2579950
  63.4179607  13.0835443  48.2145208  64.1558555  13.6766535  47.0335382
  17.8282237  24.0096760  43.1797647  18.4615409  23.5587239  43.7381411
  17.1331477  24.2831111  43.7783766  78.8794120  33.3880924  23.6768717
  79.5809443  33.8797586  23.2498449  78.1708224  33.3740647  23.0334944
  50.6463051  12.2720253  53.4111691  51.0528231  13.0283117  52.9880762
  49.9769163  11.9820058  52.7914619  71.7527087  25.3775953  27.2423834
  71.6209824  26.2611292  26.8985170  70.8743222  24.9983202  27.2710794
  14.2515485  70.9275218  44.9785900  14.4510333  71.7803337  45.3647900
  13.6460988  70.5198773  45.5978584  72.3049021  64.6963787  63.5985136
  72.3708057  64.0596533  64.3101788  71.9470596  65.4818630  64.0122747
  59.2649920  58.9846967  30.6749720  58.3253153  59.1535853  30.7436651
  59.4128712  58.8294481  29.7420973   7.9353682  51.8252097   8.7048906
   8.7526719  51.3343440   8.6194700   7.2495381  51.1807655   8.5300678
   6.2411420  51.4679931  33.5672087   6.2252442  50.5503939  33.8392157
   5.5672614  51.8879746  34.1017431  47.4922617  57.9046892  13.2800335
  46.6375597  57.4790083  13.3471912  48.1148513  57.2395049  13.5735363
  68.2965533  62.0281832  56.7550325  67.3537223  61.8654351  56.7837000
  68.5243671  62.2749643  57.6513720  35.0322843   7.8447217  60.1273012
  34.4477725   7.2352636  60.5780125  35.0587106   7.5278652  59.2244530
  64.2680319  34.2568745   6.1438030  65.1967295  34.3907534   5.9545225
  64.2106874  33.3448114   6.4285559  10.3196685  40.2524637  55.1084513
   9.6730391  40.9466092  55.2359766  11.0996119  40.5644296  55.5673594
  55.7683404  64.3588852   7.1977991  55.1192839  63.6584447   7.1319050
  56.6065820  63.9025639   7.2709555   6.5349547  69.2435382  31.9560141
   6.0286681  68.9748620  32.7226442   6.1139457  68.7959741  31.2220663
  36.4548412   8.4526497  11.0838551  37.1993127   8.1500107  11.6038603
  36.0239938   7.6491934  10.7921976  28.1707573  25.3295094   7.9162354
  28.9044475  24.8394924   7.5449986  27.7162885  25.6927496   7.1561378
  76.0481627  46.0749512  12.1483654  76.9914468  46.1249666  12.3031181
  75.7378896  45.4171942  12.7707142  38.4507911  64.0987586  19.3968386
  37.6021926  64.2906903  19.7959417  38.7107245  64.9202918  18.9800066
  63.2270224  55.4738008   5.8428329  63.9057238  55.6200384   5.1838869
  63.6821873  55.5653893   6.6798920  53.4807570  75.0266455  16.6396135
  52.5360306  74.9497365  16.7730803  53.8609155  74.8191188  17.4932283
  14.7344605  60.6763171  12.0476812  14.7535722  60.7400774  11.0927958
  15.3387420  59.9627064  12.2522205  76.3913234  40.8992846  16.5851873
  75.8660729  40.2156155  16.1693377  75.7723792  41.3712897  17.1422762
  51.0560036  31.0135627  64.1996241  51.7281437  30.7859087  63.5572577
  50.2333307  30.9658527  63.7126207  52.7197075  13.1494909  23.3903688
  53.1985616  12.3836809  23.7073225  53.4019756  13.7799412  23.1595510
  58.7956858  38.0418658  56.1929655  57.8447533  38.0846620  56.0923195
  59.0909338  37.5089717  55.4546690  61.5555191  23.4630370  51.9498158
  61.6654015  23.2047582  51.0346937  62.3999691  23.2688546  52.3565435
  21.3825544  56.7225122  62.2500134  21.3523897  57.2639704  61.4612484
  20.9322866  57.2430658  62.9152298  14.6028375  19.8582226  19.0380186
  14.3453645  20.5969196  18.4864229  14.2740774  19.0876013  18.5751051
  48.3780821  65.1238512   6.2077469  47.5314982  65.5196284   6.0006470
  48.9862354  65.8623241   6.2400002  10.8496301  74.6421765   6.2639851
   9.9077241  74.5190524   6.3818020  11.1043517  75.2334355   6.9723362
  11.2524812  50.5241953  15.2761072  11.0378854  51.3996242  14.9539179
  12.1697108  50.5853413  15.5428976  39.9651003   4.2147308   2.4499744
  39.0642881   4.0400749   2.7224964  40.4980039   3.6461502   3.0058187
  71.0865211  55.6767988  59.9827909  71.6642237  56.4394236  59.9528313
  70.5089998  55.8429289  60.7278395  46.5005159  19.6483874  60.2362490
  46.9823933  20.4668665  60.1174450  46.9585085  19.2020142  60.9484482
  17.3033826  64.2755006  28.5510344  18.0961911  63.8600396  28.2117933
  16.8497722  63.5767768  29.0224737  16.9761133  16.3354403  43.2814974
  17.1725845  17.2196489  42.9719728  17.5054311  15.7638460  42.7253145
  52.8883266  11.1350691  58.2760096  52.0848370  10.8607185  57.8340101
  53.1077480  11.9756317  57.8740835  78.0389452  10.4216301  49.9077606
  78.5579586  10.6235373  50.6862736  77.5897646  11.2410200  49.7002220
  76.2971019  12.0659977  19.9667448  75.3757381  11.8501287  20.1106829
  76.6918277  11.2458139  19.6705622  38.9400069  71.6465949  13.5347170
  38.6437671  71.1171077  14.2750639  39.2543666  72.4588584  13.9317554
  58.2585414  67.5480674  17.2479910  58.2261474  66.9280218  16.5194792
  59.1877992  67.7567242  17.3437780  47.7311611  17.4679619  18.3935160
  48.5919475  17.4300199  18.8104624  47.1522665  17.0013720  18.9963430
   1.9128632   0.9529763  22.9675764   1.0842585   0.7912808  22.5164598
   2.1515298   1.8455654  22.7174658   9.2158191  63.6640357  15.0021070
   8.5958306  63.0160044  15.3366274   8.8179080  64.5082520  15.2147001
  11.2403600  44.5030682   9.6729416  11.2494246  43.8487892  10.3715605
  11.3721721  43.9983426   8.8703770  43.6739826  26.8740702  62.5986290
  43.5127163  27.6385856  63.1515694  42.8507566  26.3860798  62.6186275
  32.5989501  69.4498037  36.0297102  32.5274627  68.9421962  36.8380732
  32.8184382  68.8028453  35.3592581  51.3283761  54.9579464  14.2667288
  51.6576941  54.4654177  13.5149330  51.1771663  54.2945968  14.9400324
  54.9877603  65.6619667  25.4468340  55.2931435  66.3834571  25.9967608
  54.6016772  65.0386213  26.0621542  78.6402130  59.3257856  64.0885687
  77.7953100  59.7727108  64.1398191  79.2689562  60.0228882  63.9015675
  57.0617819  33.1802416  46.8196917  56.7885542  32.2629857  46.8048716
  57.3940706  33.3168674  47.7069044  19.4553677  47.3288505   7.3394293
  19.2695062  46.5136670   6.8734211  19.9893634  47.8372763   6.7290348
  41.0880947  56.4220858  62.4357128  41.9346142  56.0047007  62.5951719
  40.8457375  56.1425447  61.5529013  69.9895382  31.1258578  32.4636459
  69.7013760  30.4761744  31.8224716  70.5063677  30.6259489  33.0954766
  49.9348457  65.1094340  22.4411768  49.2701109  64.4233368  22.3809237
  49.4650133  65.9170555  22.2332472  53.1295442  28.1827360  13.2249207
  53.9170742  28.5489708  12.8225559  52.4585247  28.8519865  13.0904860
  14.2423916  18.1119066  27.6570887  13.8107967  17.9181677  26.8249697
  15.1513481  17.8431183  27.5237364  71.2206538  37.6620104  31.3735384
  71.4095147  37.7659996  32.3061461  71.3470967  36.7280638  31.2062449
  74.0584071  48.0839764   9.9412006  74.6523745  48.8010620   9.7193378
  74.1723378  47.9614936  10.8836693  69.1177464  19.4695568  54.4728565
  68.2935286  18.9828873  54.4794893  69.5416594  19.2339468  55.2980947
  67.2591336  39.2341936   1.2427134  66.7867406  39.0017557   2.0421213
  68.1830771  39.1409432   1.4747948  60.1720953  28.3566689  42.5555182
  60.4860544  28.3487797  41.6513062  60.8377171  28.8490367  43.0358887
  13.7223498  43.8416903  20.5099768  13.7346761  42.8939538  20.6436724
  14.3301074  44.1839729  21.1654943  26.5385437  37.4024302  20.1099581
  26.6550302  38.2917791  20.4442114  27.0339870  37.3875147  19.2910952
  57.1293704  70.4103156  59.1248083  56.8839805  70.8888336  59.9166632
  57.8262870  69.8187654  59.4087172  41.8336487  38.2062155   3.7168688
  41.0059929  38.4025293   3.2779163  41.5762567  37.8879457   4.5821327
   6.3334211  36.3959312  45.8265924   6.5595755  36.1327147  44.9345112
   6.9415697  37.1071720  46.0278988  71.3558753  63.8367801  48.0071592
  71.6548963  64.0795975  48.8834333  72.0668657  64.1096764  47.4272871
   9.7160498  65.3465723  22.3597235   9.8498504  65.9194993  23.1147665
  10.6002013  65.1304577  22.0633978  26.4770460  24.0083939  13.9489740
  27.2912121  23.9087587  14.4423622  26.6666650  24.6955687  13.3101696
  63.8067770  24.4584584  26.0135508  64.6875906  24.7292709  26.2725115
  63.2297373  25.1139426  26.4054632   9.7514820  12.6240545  27.5473780
   9.8227739  13.3520227  28.1648058   9.5346904  11.8678432  28.0926985
   9.5681064  67.6663612  47.5065989  10.2406613  67.0017098  47.3577875
   9.7067372  67.9492019  48.4104818  75.7983716  25.1533626  36.6048712
  75.5608781  24.9725758  37.5143427  76.1888488  26.0269796  36.6284174
  54.7243976  12.2840506  28.2340902  54.4500828  11.8094021  29.0187449
  55.6233024  12.5552660  28.4202284  66.9085217  59.0284586  39.9116302
  67.7688265  58.6248255  39.7967863  66.2897873  58.3039999  39.8191142
   8.3867964  32.6345325  61.7268944   7.8323301  33.0298424  61.0541916
   8.7499270  31.8534660  61.3093996  63.3039045  35.9054375  50.1892614
  62.5994492  36.3402772  50.6697750  63.0359077  35.9578276  49.2718410
  56.7591627  56.3387583   4.8916191  57.0689686  56.9500970   5.5598396
  56.8773086  56.8071352   4.0652412  16.8085479  12.5700575  20.4235167
  16.7351436  13.4263664  20.8449072  16.7847395  11.9441086  21.1472982
  15.0918881  61.9315122  27.3950953  15.0924174  61.4887212  26.5464682
  14.9981086  61.2248562  28.0339045   7.4037742   9.8215109  45.3133863
   7.7382660   8.9320618  45.4284185   7.3416710   9.9332243  44.3647570
  23.9777152  69.6429180  42.3161215  24.4544141  70.3697084  41.9151587
  23.3553950  69.3648909  41.6440767  36.3139789  63.5185336  24.3344015
  35.7165973  63.3219575  25.0560087  37.1364371  63.7565039  24.7623819
  66.1504038  25.7846020  40.6479830  66.2754686  26.5980445  41.1367601
  65.2148564  25.5985950  40.7278723  56.1217260  48.5318518  60.6676769
  56.2805748  47.7020025  60.2178478  56.9638014  48.7539864  61.0649157
  67.0631695  23.3717161  25.9255117  66.3943195  23.2494694  25.2517694
  67.1310711  22.5181108  26.3532633  54.4221449  42.3425293  58.5647964
  53.9614964  43.0372953  59.0352631  55.0492096  41.9977999  59.2005491
  46.3271045   8.3224970  30.7169432  46.8010950   8.6821419  29.9671263
  46.7868900   8.6712318  31.4806265  26.1439466   8.6082035  10.2632278
  27.0269584   8.8767248  10.0094360  25.5699014   9.0521818   9.6390623
  65.6855376  64.4930552  34.5631212  65.4558022  64.3711995  35.4843134
  65.7142742  65.4427551  34.4470400  40.2007246   7.2243601  19.2692179
  39.3829488   7.3127991  18.7796778  40.4313469   8.1204849  19.5141787
  46.7614031  29.7862434  63.3047104  47.0307589  30.4852271  63.9006090
  46.8652678  28.9831376  63.8150644  32.6673460  19.6377521   6.6807884
  33.1240225  19.7712284   5.8502096  31.9966650  18.9840704   6.4830059
  78.7522030  36.2362456  59.3095922  79.5430088  36.7517734  59.4679832
  78.1855679  36.8168259  58.8015747  66.8295145  30.6704330  60.4802179
  66.7398310  31.5850496  60.2125120  67.7546167  30.4691815  60.3391123
  46.7703104  22.6898294   2.8066486  45.9770012  22.8701120   3.3110231
  46.5651655  21.8956142   2.3133272  36.2490558  14.3877417  11.2732834
  37.0733070  14.8440081  11.1039824  36.2068081  14.3154102  12.2268099
  66.4882517  30.8082867  45.6088591  66.2012863  31.7214370  45.6150723
  66.7339087  30.6282473  46.5163136  77.1636191   1.0116869  25.9749121
  76.4294782   1.2848645  26.5250391  77.6315489   0.3653246  26.5035814
   6.1849372  70.0409316  27.1747393   7.0525472  70.3931759  26.9762320
   6.1000840  70.1338242  28.1236357  25.2385282  13.3753496   3.3905500
  26.0882091  13.0841452   3.7214226  25.3428364  13.3859354   2.4391073
  48.0318753  63.2914477  51.0486984  48.2300441  64.2047088  51.2558556
  48.4560077  63.1399696  50.2040672  10.8748579  41.3041782  62.3111391
  10.6352425  41.8871498  63.0315304  11.0865140  41.8930244  61.5867805
  10.9511201  64.3072365  18.2511038  11.4832417  63.8604592  17.5927252
  11.3007705  65.1978992  18.2775206  13.9100027  20.1206356  21.9790548
  14.8148632  20.1829248  22.2849649  13.9801311  19.7578579  21.0960478
  31.5519588  73.0317079  44.2423773  30.6415288  72.7955486  44.4200945
  31.7990606  72.4873208  43.4948397  65.4828357  13.9636665   1.8579430
  64.7121906  13.4162241   2.0084518  65.4771995  14.5895010   2.5821871
  25.6063270  40.4117590  32.0496077  26.0312128  40.8208042  32.8035254
  26.2239742  39.7393137  31.7622751  14.3396091  15.3815752  41.6812128
  14.6195697  14.8100668  40.9662050  15.1415348  15.8203703  41.9651217
  57.8023005  -0.0313343  40.6524324  58.4933567  -0.5877659  41.0116768
  58.2630348   0.7405202  40.3234959  38.4873819   2.7776438  18.3806604
  37.5309610   2.7920872  18.3448500  38.6988544   1.9424921  18.7978262
  53.5912609   9.8194230  54.3244219  54.4852591  10.1608574  54.3448305
  53.6567211   8.9526057  54.7251368  11.0518662  35.0433223   8.1151337
  11.7766683  34.6422140   8.5947269  10.2655856  34.7199308   8.5549253
  25.1445834  66.0868834   5.2410788  25.2002971  65.1860689   5.5599207
  26.0444180  66.3141154   5.0067896  41.5157556  19.3667417   9.3038649
  40.8668804  20.0676685   9.2414326  42.2666931  19.6905189   8.8063807
  46.8559313   0.1835829  17.7383608  46.7938375   0.6112987  16.8842978
  47.7962589   0.1004487  17.8967947  32.2248316  31.7213350  26.0513491
  32.1492624  32.4294764  26.6909307  31.5989589  31.0613876  26.3496393
  42.2243818  60.9264946  62.1455288  43.0148348  60.4179621  61.9644165
  41.5530428  60.5321169  61.5887451  32.1050548   6.3896471   7.7459234
  31.4411497   5.7006317   7.7727360  32.5786495   6.2342506   6.9287342
  22.2595405   3.3553463  15.9208483  22.7793216   3.2440763  16.7168802
  21.7113208   4.1198212  16.0976690  21.7754841  23.6280256  27.9520601
  20.9848404  23.4655100  28.4665579  21.8765974  24.5798117  27.9624838
  74.3983348  55.5632292  36.0654348  74.1382106  55.0328981  35.3122324
  73.5843976  55.9670054  36.3666147  15.3208033  53.0691753  14.2654079
  15.0403849  53.2480978  13.3678621  15.6926028  53.8970600  14.5697159
  57.1089554  61.0135221  60.6206083  57.7877569  61.1928082  61.2712383
  56.3363314  60.7848644  61.1373281  55.1041079  26.1405158  47.8843737
  55.3770924  25.4018068  47.3402977  55.3253937  25.8751726  48.7770462
  30.4811637  27.4715220  24.2342752  30.0628726  27.3911499  25.0914854
  30.2112738  28.3329295  23.9158911  58.6485624   1.3147520  61.3336658
  58.0457211   1.3550697  60.5912495  58.3966017   0.5200046  61.8039036
  33.7486188  68.5241019  51.3446045  32.9808967  68.7931596  51.8490314
  33.4525602  68.5337137  50.4343891   1.4874522  45.3457569  18.2690043
   1.7478530  45.2286272  19.1826242   2.1527545  44.8739962  17.7679628
   9.8900668  29.2450069  23.7843794  10.7623784  29.5663671  23.5562796
  10.0179545  28.7654089  24.6028322  48.5561149  56.9364410  59.4986153
  47.9055087  57.0923762  60.1831818  48.0397288  56.7201822  58.7222099
  43.0601931   9.3132186  52.8398418  43.6725616   9.9919242  52.5559473
  43.4992981   8.4899205  52.6263046  15.9706720  27.8234291  62.1890354
  15.3406462  28.4205246  61.7855740  16.0661253  28.1457734  63.0852604
  72.4970289  60.6049364  63.9017773  72.2701080  61.1987751  64.6173811
  73.0366095  61.1335426  63.3138466  75.8399725   8.3849251  57.7788591
  75.7183218   7.8218246  57.0144320  76.3658905   7.8596824  58.3819866
   7.3227470  64.7779064  32.3392153   6.7300121  65.1994150  32.9614902
   6.7602555  64.5223515  31.6081047  60.2031477  69.6211432  29.8719877
  59.9094041  69.1746043  30.6660551  60.9789212  69.1331433  29.5958227
  22.4683349  24.2169343  -0.3153044  23.0788533  24.7771965   0.1638645
  21.6695325  24.2272125   0.2119965  29.3251514  11.4377058  57.5628662
  30.0194788  11.9324446  57.1276999  29.4018030  11.6787529  58.4860420
  59.4975050  59.7901510   5.4188770  58.8461049  59.3443011   5.9602922
  60.2322252  59.1781615   5.3754372  79.2344411  64.8643445  16.3365454
  78.7282546  65.1746868  17.0873446  80.0423940  64.5208167  16.7179102
  31.1864917  74.8190243  13.6746728  30.7874982  75.6877703  13.6265397
  31.8161218  74.8840823  14.3927014  36.8557708  68.4117966  34.4115305
  37.6492564  68.1575989  33.9403653  36.1845939  67.8079246  34.0935826
  36.8882091  49.5332252   3.5189432  36.2854470  48.8899683   3.8919443
  36.4063175  50.3596614   3.5508007  61.7245586  32.1486871  16.8940443
  62.5609858  32.5312339  16.6289515  61.8957169  31.7738734  17.7580256
  24.1152143   2.7560484  54.3397760  23.7713480   3.0775291  53.5063267
  23.9828324   1.8087199  54.3040609  -0.0393215  12.2972500  51.4166641
   0.1121935  13.2146096  51.6441011   0.3661951  12.1937907  50.5558014
  58.1007147  17.6159680  44.7745132  58.1948805  17.5099730  45.7211542
  57.2179890  17.2982478  44.5845604  61.8122959   0.1897151  59.7515678
  61.8048477   0.2367800  58.7955570  61.6689873   1.0920848  60.0369167
  12.2329823  36.6542303   1.3304895  11.6332070  36.1200716   1.8512339
  11.6608064  37.2005673   0.7916349  66.1313343  28.5357165  51.7850399
  65.3887987  29.1122055  51.9654083  66.6621113  28.5727406  52.5807381
  64.0838575  32.1147680  33.7221622  63.5049009  32.4865365  33.0567074
  63.6138487  32.2414160  34.5463490  79.6686840  32.5399303  33.7565613
  78.8688946  32.9888058  33.4825635  79.9216032  32.0158935  32.9965281
  12.5367307   6.6756206   7.8388447  12.6136183   5.7713324   8.1431145
  12.0229721   7.1137529   8.5173220  18.8941972  75.2999835  46.1356020
  18.4214608  74.4770591  46.2602854  19.4579904  75.1400279  45.3787756
  43.8037316  72.9212396  25.6638241  43.8577144  73.7698146  26.1034131
  44.0269916  73.1091232  24.7521853  37.5802009  67.1774345  28.7021232
  38.2779567  67.7088039  28.3187008  36.9435136  67.0719414  27.9952049
  25.3752629  41.9993292   8.7698835  25.6646220  42.8312592   9.1445774
  25.5446593  41.3551973   9.4573635  26.2513415  24.9098884  29.4694227
  26.6278474  24.6464132  28.6297411  26.9961516  25.2373181  29.9736780
  69.8345248  72.0951276  57.0834684  69.4524924  72.5630068  56.3409281
  70.3578822  71.3998338  56.6848469  68.1703234  17.3170209  50.2676868
  68.5517359  17.7695298  49.5153618  68.8915920  16.8008125  50.6275988
   5.7563893  45.4242711   9.6805853   6.2229936  46.2182038   9.9417013
   6.1683146  44.7260277  10.1895088  25.2597730  65.4822014  19.8865789
  26.0083072  66.0679315  19.9999231  25.5482213  64.8494362  19.2288298
  67.6782227  12.7965379  60.0752449  67.6147366  13.7497723  60.0157022
  66.7693996  12.4966848  60.0941896  72.2042210  40.6289406   4.8115057
  71.3454993  41.0132425   4.9879927  72.3571570  40.0361866   5.5473608
  22.1060054  62.5146442  26.8046951  22.9343574  62.0847290  27.0173979
  22.2274463  62.8407185  25.9129786  46.0407591  25.4569077  62.9143763
  46.0610104  24.6807551  63.4742022  45.2381659  25.3614688  62.4015713
  59.5197265  61.7115479  50.2843285  60.1639716  61.4483791  49.6271229
  59.1888110  62.5535326  49.9716139  55.3821564  15.8718097  64.6150923
  54.6901083  15.3935158  65.0717545  55.0854492  15.9124207  63.7059498
  45.5486822  10.2602440  18.9021296  45.0640487   9.5261246  19.2795366
  45.0363731  11.0330254  19.1399950  61.6167505  64.0743564   2.2418255
  61.3859566  63.5934495   1.4470381  61.1674245  64.9147819   2.1522373
  50.5340417  49.6130966  16.1299795  51.0749181  48.8238381  16.1574549
  50.4859979  49.9023603  17.0411676  70.3665352  22.5702143  24.7393084
  69.4817781  22.5748777  25.1045752  70.2951384  23.0798531  23.9322114
  35.6848066  65.7183497  48.7123203  36.6024749  65.4911642  48.8623428
  35.5546348  65.5819916  47.7738667  77.1089156  45.8602058   6.2359423
  76.5333922  45.6864946   6.9808096  77.2034676  45.0116073   5.8033079
  74.6784242  10.7588433  33.9929670  74.7809918   9.8424243  34.2496580
  75.5238612  10.9970831  33.6125559   9.2309873  68.6430620   3.3422274
   8.9820687  69.0160798   4.1878838   9.9492614  68.0442928   3.5466618
  50.8841149  62.2016554  54.3496466  50.3060786  61.6499882  54.8766851
  51.0384624  62.9745011  54.8928928  29.3088627   6.3807595  51.9672775
  29.7158289   7.1312636  52.4001217  29.9198294   5.6588447  52.1148968
  77.3702128  29.6905957  38.1784815  77.0980532  29.2256867  37.3872656
  77.0634349  29.1388308  38.8979715  68.2271560  42.2601123  41.9762892
  67.5908597  42.7937357  41.5002626  68.4431680  42.7791499  42.7509970
  77.0507908  34.8619342  47.0782709  77.8695488  34.5941305  47.4955797
  76.7969608  35.6611729  47.5398111  53.8556147   1.9012749  39.9904394
  54.7956133   1.9668986  40.1587343  53.7551498   2.1805781  39.0804243
  77.2854121  65.9403943   2.1292681  78.0784066  66.0308026   1.6008610
  77.5714047  66.1249326   3.0239147  23.6273035  20.6285501  45.2775335
  24.0529093  19.7974944  45.0667143  24.2035708  21.2946200  44.9026871
  44.8031902  42.7863979  44.2649031  45.3499269  42.4384832  44.9693632
  44.0948200  43.2456541  44.7160482  33.2779853  66.8554305   1.1319584
  32.6867644  67.1372603   1.8299955  32.9647033  65.9838985   0.8900541
  34.6956984  45.8579658  22.5845236  34.4550101  46.3894074  23.3433908
  35.4085795  46.3429903  22.1688551  46.7801206  62.4100809  32.4898434
  46.4825933  63.2035165  32.9350042  46.5156190  62.5334196  31.5782189
   9.1447560   8.4197210   7.6280540   8.6967294   8.0946420   6.8471426
   9.8500506   8.9702104   7.2878307  70.2380689  57.7139948   4.6619886
  71.1914237  57.6346229   4.6296829  69.9173625  56.9360160   4.2057795
  40.8502197   1.1404070  52.8990793  40.5788469   1.0348593  51.9872427
  41.4687014   1.8707620  52.8818941  54.1236496   3.3547359  14.0396017
  53.9520549   4.2044502  14.4455284  53.3560610   2.8259188  14.2573112
   3.5051760   5.8495057  59.6295404   2.7466711   5.8793581  59.0464306
   3.1312784   5.7347536  60.5031919  64.9880648   5.8208132  41.0996675
  64.5647478   5.3506696  41.8179941  64.9960947   6.7349219  41.3835192
  28.2932965  72.8366869  65.3181267  27.5652187  73.4530007  65.2388096
  28.9289395  73.1316983  64.6660852  33.6023108  34.9159371  20.4918474
  33.3342807  35.8173870  20.3135866  34.4643084  34.9985750  20.8997244
  58.6521864  10.7590413  57.0029306  59.1663885   9.9532461  56.9527197
  59.0908813  11.2816751  57.6742172   3.4707579  29.1033196  59.1712284
   3.5181364  28.1848669  58.9058447   3.6368403  29.0891480  60.1138020
  17.4476111  15.2267623  56.5677643  17.5656748  14.2768717  56.5679884
  16.5616953  15.3579271  56.2298584  28.7636327   6.9281345  17.6980204
  28.0272388   7.0158821  18.3032125  28.9730644   7.8268534  17.4437231
  11.3027636  46.3334339  28.6678976  11.1171977  45.8643423  27.8544230
  10.6265418  47.0093148  28.7142366  11.4240360   3.8555723  20.0620169
  11.0995841   4.6771914  19.6933645  11.3168192   3.2176310  19.3564886
  19.2689737   1.6723922  44.7375488  20.0356516   1.8632267  44.1971636
  19.3702730   0.7521007  44.9805212  56.1044836  13.8716102  43.9927626
  55.1840830  13.6851275  43.8075018  56.3816404  13.1598961  44.5697165
  60.2495448  46.6177093   1.0162586  59.6777980  47.2492419   0.5797953
  61.0937755  47.0640902   1.0815138  66.4245176  26.0302496  51.0807991
  65.7011032  25.8193016  50.4905367  66.2973547  26.9545293  51.2947321
  12.9467630   8.7113434  20.1075739  13.1651115   9.5379406  20.5380243
  13.6994505   8.1455713  20.2796167  20.1493899  59.3884514   2.1194309
  19.3576781  59.5542620   1.6076416  20.7574717  60.0767182   1.8497032
  40.1897764  19.0509987  53.0699444  39.9372792  18.7035453  53.9253712
  40.8086824  18.4082031  52.7235317  48.9194123  66.8294989  47.9165983
  49.7798125  67.1034597  48.2342386  49.0994422  66.0705667  47.3617601
  31.4940008  30.1724005  18.3929360  30.6308970  30.5800533  18.3214629
  31.3120874  29.2720914  18.6623490  21.1871831  48.1618475  33.2949633
  20.4081885  48.3536707  32.7728552  21.1234729  48.7519442  34.0459341
  32.7588241  58.0571698   6.3434261  33.2982699  57.4233900   6.8162436
  32.5656764  57.6313923   5.5081791  62.2849496  51.7869793   2.6680988
  61.6614850  51.3442110   2.0923561  63.1409080  51.4609586   2.3901171
  47.4751139   5.5240577  54.1437578  47.3124170   5.7401997  53.2255793
  46.6154051   5.5851662  54.5601654  10.8082422  17.0541978  58.3464003
   9.9561438  16.6283107  58.4400511  11.3538202  16.6491997  59.0206099
  65.0435908  72.0577811  13.9612907  65.0860055  71.8472622  14.8940939
  64.8923905  71.2155555  13.5323137  75.1743698  47.7076006  44.5154190
  74.2926693  47.4001503  44.7259331  75.0389433  48.5640907  44.1100502
  10.0565593  24.8157059   7.3940033   9.4116990  25.3885602   7.8090090
  10.6659524  24.5919012   8.0974096  60.4288864  35.5927753  43.1765032
  60.6278753  36.5028763  42.9566240  60.8697319  35.0806785  42.4985361
  68.7442827   5.9750909  38.6591458  69.6255255   5.6082708  38.5878038
  68.8605928   6.7819142  39.1608858   1.5876500  35.7718462   7.1364922
   1.6986911  36.4519131   7.8008789   2.4792926  35.4936578   6.9271559
  24.1956584  73.4474205   5.1497072  23.5801427  73.0435775   5.7614988
  23.6774365  74.1075085   4.6893162  34.8409717  59.7085803  31.8002248
  34.1528670  60.3418772  32.0043778  35.6473462  60.2242999  31.7953563
  10.7025179   7.6845950  58.5916138  10.3490862   7.2573149  57.8113890
  10.6029257   8.6206281  58.4179640  16.5043473   0.8802394  56.4008331
  17.4184656   0.6602217  56.2213516  16.5269899   1.7995258  56.6665983
  59.4943857  21.4619064  48.5415792  58.7617445  22.0694137  48.6435747
  59.2330313  20.6860662  49.0375566  43.7274094  54.1441260   5.7122797
  43.5687502  53.8762723   4.8071188  42.9112442  54.5636712   5.9844727
  35.8776920  68.7555360  59.9732924  35.4170816  69.5177661  60.3241110
  35.4490153  68.5813742  59.1353559  24.4777441   0.2938419  17.9173368
  24.3080997   0.9234053  18.6181253  25.2029657   0.6755835  17.4227995
   0.5653302  35.2929090  22.1616644   0.5887143  36.2369953  22.3178286
   1.2664239  35.1373863  21.5288061  11.7832963  45.1535748  23.3327383
  12.1266238  46.0328762  23.1740374  10.8330027  45.2537809  23.2767195
  55.5431652  22.7112770  48.6761189  54.7569370  22.2302914  48.9344406
  56.2620735  22.2372675  49.0941143  13.1739227  73.3527565  42.4949408
  12.7881996  73.3197721  43.3703661  12.8299467  72.5769036  42.0522642
  27.4277139  -0.3371222  44.9877071  26.5976477   0.0154953  45.3084612
  27.8610063   0.4092692  44.5737171  52.6082420  11.3669491  39.2727709
  52.9160404  11.9677103  39.9514294  52.5292158  11.9110000  38.4891939
  66.7008241  50.6676136   7.4033827  67.4986966  50.1402186   7.3648876
  66.9968970  51.5286897   7.6985449  65.5026150  16.2500429  45.6362247
  66.3192463  16.7330861  45.7627821  65.0790215  16.2667048  46.4944363
  65.6313086  35.8033514  38.7903953  65.9080219  36.6923141  39.0126681
  66.4055634  35.4034781  38.3943343  44.7907448  12.3868471  25.5325884
  45.2001953  13.1538301  25.1321882  44.5272541  12.6833731  26.4037222
  26.6133070   7.6426273  14.7270864  26.1391926   7.6923424  13.8970417
  27.4113893   7.1571117  14.5183510   9.7356717   1.5635116  11.7399955
  10.4920689   1.4957960  11.1573195   9.4499556   0.6589134  11.8676829
  55.2800560   9.0881163  13.0800241  55.3821468   8.1435495  12.9633945
  55.0622177   9.1929298  14.0061945  31.1729464  15.7940781  47.0949221
  30.3566774  15.4772842  46.7081642  30.9126982  16.5555680  47.6132202
   6.4539846  58.3906698  41.4663315   5.6115183  58.8355303  41.5589190
   6.4807638  58.1168365  40.5495262  23.7739531  39.9543724   7.6609558
  23.7139193  40.7113050   8.2437748  24.7114436  39.7697002   7.6039976
  15.8718984  62.0994376  15.6627649  16.0054318  62.3613714  16.5736956
  16.6652934  62.3881506  15.2117723  52.3930979  25.4935956  49.6036100
  51.6025639  26.0083485  49.7658253  52.3739719  25.3151345  48.6633873
  73.9233017  30.9824300  46.3593912  73.3223391  31.4635229  46.9282722
  74.7932291  31.1871648  46.7022419  66.2464142  36.5573144  50.4060364
  66.3170290  35.6327891  50.6437302  66.0326242  36.5490913  49.4730520
  39.5428943  29.8298508   2.1049303  39.7544336  29.3872362   1.2829966
  38.6392164  29.5736652   2.2892374  49.0921259  55.3250599  64.2234278
  48.2186174  54.9389505  64.1591549  48.9444399  56.2670135  64.1388798
  27.7726412   7.6868921  24.7372908  27.9564857   8.6025864  24.9469084
  26.8807268   7.5431829  25.0536245  59.4996364  74.1681765   0.0212759
  60.1738746  73.8059615  -0.5535608  59.7634871  73.8969277   0.9005016
  63.1856346  23.3096719  58.6562729  62.8841496  22.8092957  59.4145393
  62.5132990  23.1642652  57.9906511  49.0040827  19.3883288  46.1482382
  48.8234949  19.1207635  45.2471113  48.9804983  18.5731649  46.6494179
   0.6137785  36.4244008  56.2729359  -0.1887289  36.9106913  56.0838890
   1.1508688  37.0354009  56.7773581  35.1629877  23.5483432  53.3713675
  35.6033325  22.7949905  53.7647963  35.3503656  23.4735322  52.4356699
  53.1543112  16.4589334  45.2791834  52.5980854  15.9066427  45.8285666
  52.8111935  16.3387859  44.3937063  33.8748145   7.5009710  53.8938189
  33.3380675   7.0118392  54.5174217  34.7354937   7.5548297  54.3092251
  34.4632005  20.9033113  12.0392460  34.8247623  20.0171429  12.0537418
  34.6728992  21.2616926  12.9016966   8.2775330   6.9404417  16.6558546
   8.5780453   7.8124481  16.9118494   8.5151863   6.8669754  15.7315439
  44.8199987   2.7608210  20.0991529  44.9768305   1.8243509  19.9780649
  44.1263580   2.9703384  19.4736952  47.7181053  64.5969486  55.2157354
  46.8267870  64.9457502  55.2266836  47.6624250  63.7817240  55.7142687
  46.2385416  12.7954292  64.6630144  46.4146471  12.2848725  63.8727283
  46.3708639  12.1773958  65.3818703   3.9039358  29.4729400  50.8799362
   3.2697901  28.7724400  50.7270193   4.7567114  29.0516663  50.7725143
  33.3955066  63.6974953   0.8695692  33.9979808  63.7915491   0.1317305
  33.5275523  62.7995347   1.1736435  46.5027809   4.7707757  51.2656116
  46.9161654   5.0861156  50.4619265  46.3023472   3.8519454  51.0872602
  54.5838737  13.8961303  48.0027580  54.3075418  14.5130074  48.6805010
  53.9249945  13.2022297  48.0274248   7.3756727  57.2139978  45.1591253
   8.3270773  57.1358156  45.2294970   7.1689066  56.8539667  44.2966557
  26.4684074  55.0372713  60.2296495  25.5441873  55.2765207  60.2990246
  26.9408242  55.8330338  60.4742241  58.2411544  70.5505859  48.2226229
  58.1238811  69.8295628  48.8411713  58.5256545  71.2868287  48.7641382
   2.1968874   0.9349543   3.4640354   2.8137430   1.4585072   2.9525465
   1.9590982   1.4973718   4.2011732  64.0362120   3.1545988   9.5022213
  63.2802010   3.7189254   9.6641219  63.6667299   2.2747332   9.4277155
  78.4696245  56.7072535  42.9437256  78.4670115  57.6057959  43.2736397
  78.7547636  56.1791468  43.6894035  13.8238367  21.1716104  47.4960613
  13.3154997  20.4119873  47.2118235  13.5538134  21.3146996  48.4031677
  55.4773092   9.7147542  38.1336379  55.3810358  10.5748928  37.7248287
  54.8366451   9.7145218  38.8448238  18.5747528  16.0527616   6.7347569
  18.7065983  15.1746756   6.3772482  17.6405191  16.2227016   6.6140980
  31.4404551  62.4108313   8.0941671  31.1268870  63.2973956   7.9155249
  32.3497836  62.4136232   7.7952427  13.3242814  30.1351582   9.5506042
  13.9478747  29.7589527   8.9294476  12.9256122  29.3773566   9.9784225
  77.5961685  39.3001437  50.8266258  78.2091808  38.7224770  50.3719282
  77.4353361  40.0129843  50.2083826  45.4250574   4.7362619  15.9366316
  45.7138395   5.2363687  15.1732630  44.8555374   4.0565687  15.5762190
  57.2604656   6.4299160  14.3599743  56.8218708   5.9387833  15.0547117
  56.5975284   6.5204578  13.6754650  71.2593031  17.3962760  28.0481005
  70.4550457  17.7756143  27.6938415  71.5870810  16.8324924  27.3474288
  61.4513683  35.4278541  62.1360779  62.1492767  36.0823274  62.1647167
  61.9063950  34.5987940  61.9882965  56.6587734  26.8864727  59.5504808
  56.5733767  26.5311694  58.6657763  57.4616146  27.4069786  59.5230865
   6.2292131  27.1151495  32.2657537   6.0046228  26.2543368  32.6190186
   5.4358896  27.6373386  32.3848748  26.9945685  41.2577443  14.8380894
  26.3906590  41.3894685  15.5689615  27.8489081  41.5163474  15.1837248
  59.1723394  13.6319375  33.1072497  59.7392178  14.2372727  33.5852122
  59.7399855  13.2503343  32.4376321   4.7811047  62.5701855  38.3006948
   4.3016688  63.1429623  37.7021212   5.7022254  62.7145241  38.0840487
  30.6554079  13.2463652   4.8429626  30.5123329  13.6821419   4.0028090
  30.7937717  13.9619642   5.4634518  65.8512401  16.1401373  10.1951403
  65.8572006  16.9775730  10.6587118  65.9046459  15.4822498  10.8883614
  62.3493259  58.0168955  38.1894112  62.8308646  58.8433938  38.1541157
  61.6901557  58.1526261  38.8700795  58.6608799  74.7545026  31.2122244
  59.5971735  74.5858453  31.1066622  58.2800372  74.5311521  30.3629297
  72.1015692  27.0937967  32.2769785  72.9710054  27.1027875  31.8766928
  71.8660355  28.0179429  32.3588920  74.2764616  40.2100325  59.6235228
  73.5691023  39.6689248  59.2727041  74.4843531  40.8205318  58.9162016
  21.9861285  62.0017813  18.0682558  21.6142480  62.6553582  18.6605162
  22.4517743  61.3947080  18.6434645  59.4891500  37.2061324  50.2075481
  58.6569929  36.7402601  50.1256657  60.1071358  36.5410638  50.5108786
  28.6820078  17.6032978   1.4725298  27.8691959  17.8997713   1.8820137
  29.3390274  17.6749617   2.1649355   8.7268798  58.9081000   1.2160295
   8.9186875  57.9817961   1.0697311   9.4902818  59.2389272   1.6893190
  36.8596856  66.6901021  57.5078249  36.2895648  66.3667988  58.2054424
  37.2350900  65.8997445  57.1197033  60.7547760  16.2947941  33.3767009
  61.1573267  17.0673501  32.9800367  60.3220987  16.6272795  34.1631341
   1.6565069  53.2001114  55.1028299   1.7278322  53.4047270  54.1704798
   2.4981627  52.8024960  55.3258562   4.3742594  36.6558266  47.7432346
   4.9894270  36.6005445  47.0119667   3.6776003  36.0395074  47.5172901
  46.6720645  22.4139030  60.6925488  46.6166655  23.1286437  60.0582743
  47.1055762  22.8014667  61.4528751  77.6844645  42.4484301  40.7984161
  77.2811508  43.2894802  40.5834627  78.4430504  42.6769018  41.3356161
  68.7187640  51.2810605  12.5725198  68.6905925  50.3554671  12.3302066
  67.8028838  51.5187924  12.7170205  46.2408304  12.0009589  54.3458605
  46.6851044  11.3276613  54.8611546  46.9393063  12.5992298  54.0804625
  58.7224071  70.7964008  52.3357868  58.2731883  69.9988096  52.6155853
  58.0177848  71.3882177  52.0721722  60.6426907  50.1852608  23.6532092
  60.4964018  51.1190605  23.5020733  60.4320717  49.7712898  22.8162503
  19.0975682  63.9597987   7.1218962  19.9632995  63.9489626   7.5300974
  18.7899415  63.0558442   7.1886868   9.5169067  15.6939846  21.3045687
   8.7108564  15.7121616  21.8204969   9.3695497  15.0073200  20.6541819
   8.8184294  51.1457014  44.2915869   9.1221365  51.3488579  43.4068680
   8.1796583  51.8307686  44.4887495  58.6744483  51.1802732   9.6432537
  59.4622739  51.1892389  10.1868338  58.9003976  50.6166528   8.9033121
  61.9835329  37.9293013  58.0780077  61.7579126  38.7657070  57.6708794
  61.1401987  37.5061941  58.2392454  57.1880484  54.7875643  64.1077137
  57.0998669  55.2564096  64.9375534  58.1286192  54.6341991  64.0180397
   0.2553019  19.1714919  39.7850537   0.2465757  18.3445430  40.2670383
   1.1063322  19.5589745  39.9896145  62.3159170  23.4298801  35.6128883
  62.7327442  23.4153700  34.7513342  61.8454313  24.2631149  35.6373310
  71.5793610  27.9908967  60.1104403  71.3294792  27.0782042  59.9662685
  72.3285246  27.9431629  60.7043314  67.3988437   1.3848763   1.4869732
  66.9756031   0.8445006   2.1541256  66.6739368   1.7548448   0.9831184
  59.0468121  27.4377584  25.9824991  58.3680391  27.4739861  25.3085613
  58.6479187  26.9423199  26.6978002  59.0709925   7.5132543  64.6775866
  59.4687986   8.3835196  64.6526432  58.6301661   7.4756509  65.5264044
  13.6436812  48.7910460   3.5621828  13.8564793  49.5921610   4.0408939
  13.3699576  49.0947519   2.6966948  37.5042932  73.0437623  52.2879934
  36.8881051  73.7473603  52.4916935  37.8073756  72.7360419  53.1422043
  45.0197315   8.4322047  48.3461666  44.5095205   9.2115515  48.5664749
  44.3936300   7.7107793  48.4076118  57.7459478  28.3955312  53.3814192
  58.5597324  28.8518262  53.1674623  57.7597427  28.3157063  54.3351889
  59.8931853  54.2161440   2.5953859  59.6913974  53.9203321   3.4830803
  60.7738368  54.5855533   2.6604122  22.7890985  39.6157758  61.5054941
  21.9420020  39.4017761  61.1145258  23.2708375  38.7886493  61.5008497
  24.5668602  26.7515188   3.8672537  25.4353189  26.4231306   3.6345095
  24.6765041  27.1176296   4.7448486  78.7547286  46.6865657  13.1825727
  78.8981278  47.4610643  12.6386780  79.6001180  46.2376486  13.1877274
   7.2089228  38.4109926  62.0331097   6.4524874  38.9904833  61.9423866
   7.7176031  38.7914753  62.7491474  57.3169184  12.6466298  40.0977278
  56.6752148  11.9983792  39.8075294  58.0859327  12.1306539  40.3398418
  26.5752458   7.2085291  19.2177576  25.7629299   7.3458105  18.7304014
  26.4789200   6.3377911  19.6034616  59.0226841   5.7301336   9.9557966
  58.9416313   4.8997074  10.4248947  59.2491722   5.4783588   9.0605062
  36.9267368   8.3026272  14.5254177  36.9655418   9.2188936  14.7996181
  37.7233791   8.1726414  14.0109295  11.0845598   0.1727328  57.3673582
  11.8968138   0.6768777  57.3193502  10.6442961   0.5019252  58.1509638
  11.3290469  19.6806438  26.7937112  11.2768714  19.5707900  25.8442688
  10.8415906  18.9369399  27.1480131  35.8243148  61.7673300  18.3333296
  36.6422908  61.3435577  18.5932535  35.1395385  61.1655115  18.6250967
   3.0104384  48.0384684  65.4500866   2.3342260  48.5495567  65.0053930
   3.3700308  47.4718142  64.7675705   3.0970446  53.7489282  12.3570341
   2.7016847  52.9336105  12.0485252   2.3544137  54.2849814  12.6352018
  19.8312489  39.2864028  22.5454706  20.1911990  38.7255778  23.2326025
  20.3899209  40.0636140  22.5535196  27.0148024  48.0824137  31.3040733
  26.7998919  48.7579107  31.9473028  27.6038965  48.5174179  30.6876540
  17.6780829  68.8812160  62.7673435  17.5678572  67.9526234  62.5628901
  17.8165182  68.9031982  63.7142229  18.8115136  50.5959986   4.4986433
  19.6268050  50.0988268   4.5646566  18.1401841  50.0004576   4.8316235
  61.3621585   5.4618556  20.1661491  60.6400649   5.4045780  19.5404243
  61.1559073   6.2288864  20.7003379  66.5933513  28.1753260  21.8557543
  66.6300583  29.0750509  22.1803659  65.7591724  27.8370958  22.1812910
   8.5306772  32.3255849  37.4764562   9.4493994  32.3529744  37.2091842
   8.5125765  32.7802157  38.3186054   8.8550886  23.9294291  40.8929682
   9.2229303  23.6339998  41.7258215   8.6887774  23.1228876  40.4050541
  31.2725226  35.2268315  17.0483011  31.8478553  35.4315640  17.7853960
  31.3396232  35.9890445  16.4731783   6.5343412  62.1809769  54.9470425
   7.1289000  62.3068333  55.6865644   6.1940226  61.2936878  55.0616407
  59.2351007  30.0101924  50.6450701  59.2801428  30.2907324  51.5591288
  60.1021194  29.6478915  50.4627275  64.5890236  38.2407188  56.8057156
  64.4282722  39.1307664  56.4923382  63.7174225  37.8906035  56.9900084
  76.1408854  18.9094424  40.1976395  75.3513908  19.3026257  40.5695724
  75.8923864  18.0041432  40.0107813  48.8259809  67.7622758  26.6146064
  48.0253617  68.2824158  26.5461063  49.3941085  68.1051366  25.9247446
  74.1468684  62.3296182  42.3802614  74.0525500  62.8489940  43.1787491
  74.0383498  62.9613845  41.6693974  61.0745192  36.2226319  52.7363205
  60.1261616  36.1653352  52.8527880  61.3466978  36.9233632  53.3288765
  40.7509391  61.4308737   9.8874849  41.3764731  61.1744593  10.5651182
  39.8949305  61.3466667  10.3074879  59.5356035   1.9872539  40.0851631
  59.7536469   2.8366107  40.4689360  60.3401518   1.4748110  40.1647949
  68.3059311  14.1400850  56.9194698  68.3984756  13.2633126  56.5467262
  67.4325228  14.1428792  57.3111057   2.0636496   6.2310034  48.7553406
   2.3119482   6.3334787  49.6740770   2.0321306   7.1249509  48.4146070
  39.2970435   2.0943428  60.6127965  40.0851743   2.5804664  60.8552083
  39.5654838   1.5603591  59.8651117  61.8203402   5.0357443  56.5412951
  61.2411594   5.6021637  57.0511436  61.2871218   4.7552675  55.7974911
  65.7573366  20.1712704  39.5955229  65.5052185  19.3390501  39.9956226
  66.0956049  20.6938505  40.3226471  11.9281420  12.3354709  40.1033115
  11.5395674  12.8977001  40.7734919  12.7831682  12.0940447  40.4595041
  64.7246425  74.1104524  49.2743683  63.9848678  73.7960636  49.7941017
  64.8140685  73.4670361  48.5713387  69.7975540  44.6060467  40.9258890
  69.6217299  45.5367661  41.0640287  69.0522909  44.2952204  40.4118872
  47.8735034  63.5275887   3.4537024  47.6422564  63.6107467   4.3788189
  47.1932284  64.0175770   2.9917902   3.0380918  63.8139956  20.7622075
   2.1359731  63.6891978  21.0568810   3.0470182  63.4739177  19.8675013
  63.0633704  56.1931842  62.3159075  63.0242030  56.6322522  61.4662504
  62.8367583  55.2828424  62.1257544  31.8620078  71.6396191  19.1325867
  31.2318294  71.3114976  19.7740269  32.4248569  70.8887040  18.9440131
  20.8698718  70.9594523  57.3824692  21.4906900  71.4279698  57.9404259
  21.1957948  70.0596266  57.3645258   1.6631540   2.8920555  64.4909668
   1.2574228   2.2487509  65.0721502   1.1982187   3.7081999  64.6753025
  27.1424231   4.3100804   5.2516639  26.4206633   4.4939974   5.8528912
  27.5491842   5.1627845   5.0978029  66.1090469   2.1040800  10.6782997
  65.3756332   2.6234946  10.3488290  65.6998444   1.4254902  11.2152362
  33.7215058  74.5033557  57.0147276  34.1494529  73.7517770  57.4248791
  34.0344684  74.4929704  56.1101961  47.5603120  64.0064829  35.6880522
  47.8568713  64.3032246  36.5484190  47.7211873  63.0629056  35.6915712
  17.6840719  19.3103862  42.5059700  18.3667025  19.8920333  42.1713924
  17.3941168  19.7241700  43.3189535  68.8841867  46.5666962  56.1114645
  69.7491980  46.3235521  55.7815170  69.0455723  47.3286438  56.6679049
  -0.3113857  34.2531252  48.3558226   0.1412758  35.0044107  48.7390947
   0.3908381  33.6969924  48.0184317  27.9939493   5.6720740  60.4477358
  28.0964979   5.1412594  61.2376404  28.1948313   5.0729173  59.7287846
  10.8736261  41.2250423  37.4059892  11.0956797  41.0564804  36.4902878
  11.6725000  41.5946722  37.7820325  45.5434863  72.2934173  15.3091616
  45.6660716  73.1010412  14.8102182  46.1671893  71.6774057  14.9247736
  56.8762058   1.3672119   6.0184711  57.1141723   1.8329698   6.8201393
  57.4717185   0.6183248   5.9908146  70.3506899  36.1240864  50.6800747
  69.8509216  35.8067012  49.9279261  69.6860647  36.3550234  51.3290501
  17.7205467  39.9629617  64.2349195  17.2878444  39.7201300  65.0534725
  17.4899435  39.2621708  63.6250448  75.4325619  28.1930309  39.5920843
  75.6691685  27.2975546  39.8336882  74.4975510  28.1480652  39.3921751
  61.5444133  39.9319130  34.4336218  61.2281522  39.7174269  35.3112310
  62.2831336  40.5220514  34.5828241   9.1027617  27.0094162  22.2848696
   9.3244123  27.8434330  22.6990217   9.9071598  26.4935022  22.3397440
  58.0721107  25.9095388  19.3064875  57.9111591  26.5448242  18.6088270
  57.4809033  25.1828867  19.1098112  51.8250918  16.5145451  13.7797827
  51.5285431  16.3173157  14.6682590  51.0183525  16.6063076  13.2728476
  58.0616124   9.5800178  15.6592548  58.6834033   9.2573403  15.0069607
  58.1337769   8.9609603  16.3857449  46.8814214  70.8516000  35.4346460
  46.1838944  70.3337072  35.8364862  46.8154486  70.6576418  34.4996256
  70.0649729   3.8825327  24.8398680  69.8478535   3.1374699  25.4001993
  69.7782639   3.6167150  23.9661592  55.7345939  17.2487217  43.3413595
  55.2651687  18.0812508  43.2887835  55.0927380  16.5940577  43.0662817
  67.9412428  43.7372499  38.7246317  68.1279722  43.0411535  38.0947012
  67.6944867  44.4885260  38.1852430  25.3724575  13.8803965  33.4261316
  26.0585308  14.5129019  33.2128996  24.7831821  13.9029318  32.6721567
  60.4350248   2.6909691  14.4194788  59.8761591   3.2528025  14.9563593
  60.3828791   3.0696350  13.5419125   3.5659671  16.6327005  13.5531706
   3.6478996  16.8490606  12.6243490   2.6783633  16.9056707  13.7852854
  75.6062236  16.0617929  40.8178896  75.5894533  15.2871138  40.2559084
  75.1786581  15.7802635  41.6266912  32.1245813   9.7318607  39.3194002
  31.1881876   9.5374924  39.2791170  32.4453544   9.2131144  40.0571245
  23.7684822  10.0405508  64.9585718  24.5797300   9.5374971  64.8874945
  23.7369871  10.5590969  64.1546053   8.3044147  45.4069620  19.9063105
   8.1443524  45.2096468  18.9834494   9.2462539  45.5702215  19.9564833
  61.8132980  59.3115901  30.9277624  61.8836053  59.9015711  31.6782373
  60.8787878  59.1141294  30.8650583  43.2279539  27.4159437  14.7502846
  43.8683128  27.3794228  14.0397638  42.3832750  27.4976450  14.3074793
  74.8961845   2.3551637  27.6034349  74.4703999   2.9176050  28.2504267
  74.4467083   1.5139609  27.6845545  22.9517936  10.0129038  43.7911028
  23.0400896   9.3976503  44.5190519  22.0106888  10.1759249  43.7280935
  28.6727619  65.0302320  12.8537745  28.6937189  65.8554083  12.3691362
  29.5518541  64.9470716  13.2232470  69.5822461  18.5999877  41.1511326
  68.7084802  18.7167270  41.5241480  70.0546582  19.3963058  41.3938999
  48.9289597  27.4552542  43.8678068  48.3698812  28.2255608  43.9692492
  48.3402208  26.7126137  44.0023607  36.9003804  74.1361259  41.6716284
  36.8948121  73.2050131  41.4497465  37.4121173  74.1868995  42.4789614
  11.6519355  28.1852728  42.6060575  11.1718893  27.7680117  41.8907351
  11.7535567  27.4947792  43.2611364  14.7413063  21.4433437  13.9055437
  15.2947712  22.1693092  13.6176580  13.8500690  21.7253595  13.6996454
  27.4630212  20.8816296  34.4347185  27.0740366  20.8142096  33.5627169
  27.7890634  20.0010067  34.6202749  63.7600270  34.3904072  25.1083559
  63.7778047  35.1592403  24.5384306  63.9581254  34.7335392  25.9796995
   4.8436522   4.6580416  38.6355013   4.2750597   5.3558212  38.9611334
   4.8884105   4.8067289  37.6909822  60.4958057  43.8766146  60.1817131
  59.8644209  43.1572819  60.1937819  60.0591087  44.5703363  59.6874666
  11.8919706   8.3786398  14.2669195  11.9239282   7.5214439  13.8421577
  12.4836182   8.2974678  15.0149817  36.2148166  13.0801404  35.6897545
  36.6071892  12.6358163  36.4413190  35.4745841  13.5633814  36.0568595
  42.0325804  22.1571302  55.7948875  42.6245165  22.9093122  55.7868624
  41.7512703  22.0640063  54.8847103  76.0309632  65.8873151   7.1106190
  75.6275256  66.0256694   6.2536901  75.5748160  66.4964341   7.6912540
   5.7587504   6.7359215  10.3680367   5.1756453   6.3794380  11.0382170
   5.2865171   6.6055256   9.5457119  32.0932341  42.1866941  60.2514362
  32.3311377  42.9329586  60.8016396  31.8836355  42.5731754  59.4011831
  41.5254116  44.8813868  64.1017437  42.1490574  44.5754433  63.4431887
  41.5733337  45.8360767  64.0517378  46.6417074  27.7777076  61.0702276
  46.5018749  26.9433594  61.5180445  46.8944502  28.3838797  61.7665768
  36.1281013   3.5173851  15.3463358  35.9003353   3.3507210  16.2609762
  35.7836914   4.3927818  15.1694292  58.8757642  60.3015231   2.5264544
  58.0908091  60.1285766   3.0462307  59.4318350  60.8283614   3.1004375
  22.8504370  70.9530257   9.6798462  22.0382418  70.5525182   9.3697447
  23.5144819  70.2748774   9.5557970  45.4202159  40.3302215  10.2706808
  44.9038847  40.6561412  11.0078424  45.5296703  41.0908868   9.7000307
  57.3967774  60.0947021  11.2029690  58.2531388  60.0228451  10.7814068
  57.5605614  59.8674248  12.1182579  62.3479702  49.2496007  62.4579954
  61.6618951  48.8747757  63.0102968  62.8664561  49.7902625  63.0538893
  15.1344056  62.7663659  32.4609083  15.1854022  63.3371829  31.6942305
  14.2421730  62.4202036  32.4428648   5.7221238  52.5152312  16.7549509
   6.4792268  52.8644572  16.2847799   5.3521506  53.2722651  17.2091002
   8.6887330  41.1852741  58.4140968   8.7156695  41.0940933  57.4616289
   8.6574769  42.1302366  58.5634518  56.3069916  19.6130657  62.9766846
  55.4966402  19.9588788  62.6025486  56.5182400  20.2161574  63.6893463
  36.2893792  28.8071744   9.2663235  36.6536231  29.0424316   8.4129709
  36.6684587  29.4438230   9.8723024  41.8025890  16.6632610  24.7270102
  41.1684957  16.7912346  25.4325480  41.5588096  17.3107487  24.0655226
  63.4860563  32.3743224  57.1674538  63.4017754  33.1472516  57.7257633
  63.5248423  32.7247453  56.2775469  48.0541070  70.1303481  42.2964090
  47.9876669  69.2017721  42.0737928  48.9317925  70.3831028  42.0100302
  30.0209188  53.1530952  61.4779091  30.0498366  54.0205050  61.8816328
  29.3713069  53.2354021  60.7797241  58.2754405  18.7042148  49.2934752
  57.5174554  18.3468063  49.7560215  58.3999904  18.1168086  48.5480404
  18.6437416  37.9160213  58.6263990  18.5122728  36.9798684  58.7766027
  19.0758693  38.2278156  59.4215584  41.9136190  24.9787235  48.1695271
  41.6901827  24.6818614  49.0516710  42.0753956  24.1726327  47.6793432
  16.9715668  58.9271639  37.5450987  17.5119694  59.0582489  38.3242125
  17.4347045  59.3957971  36.8507570  56.9970465  12.7812159  31.8042397
  57.7962828  13.1810367  32.1471572  56.7235613  12.1687841  32.4871492
  22.0330167   9.2469543  34.3663120  21.9521499   8.2949120  34.3087935
  22.8927493   9.4374084  33.9910579  32.7364016  10.1671302  57.0364761
  33.0443048   9.5337760  57.6847744  31.8305278   9.9111450  56.8629932
   6.9509220  23.3956009  13.9940685   6.3563299  22.8251415  13.5069651
   6.3907766  23.8349682  14.6339315  69.0615705  11.2004429   8.2525057
  68.5802153  10.5152136   8.7161726  69.9677363  11.0944038   8.5420746
  14.3411891  60.7247161   0.8024973  14.4580047  61.2719678   0.0259012
  13.5000817  61.0013651   1.1661381  64.5088108  73.3813094   4.5714468
  65.1761420  73.9264916   4.9881929  63.9170893  73.1402610   5.2841848
  23.3981538  20.1764774  62.5186872  23.6676955  19.6056151  61.7991734
  22.6540017  20.6668901  62.1694517  13.1279063  -0.2235550  20.8022875
  13.4539747   0.0752479  21.6511911  12.6018476   0.5070358  20.4771227
  27.9383151  69.8114221  54.6382856  27.0164220  69.7289937  54.8823214
  28.1415336  68.9908223  54.1893435   8.1160211  24.9834400  54.0432161
   7.9757857  24.1693073  53.5597319   7.3147130  25.4873949  53.9012140
  52.2151883  73.0558942  40.2849859  52.6931913  72.5613569  40.9506983
  52.8704412  73.2510041  39.6150488   9.6644656  26.2341903  13.7321037
   9.4930760  26.1312269  12.7960199   8.8097112  26.4393912  14.1109461
  39.9997564  61.1068796   0.6558270  39.9755640  61.7157434  -0.0823647
  40.8065029  61.3270615   1.1215633  65.9499756  14.3937975  12.2395891
  66.0394171  13.5259348  12.6333422  65.5873254  14.9377924  12.9387230
  18.9770353  55.6044292  56.3600349  19.6770751  56.1977816  56.0878038
  19.4262493  54.7873688  56.5764761  30.1899767  25.5789852  40.9256697
  29.9745774  25.7164049  41.8481398  29.6158886  26.1818886  40.4532719
  18.4369611   9.7576099  11.7293924  17.8840828   9.0480190  11.4022202
  18.5918712  10.3124577  10.9649462  16.9465828  15.5363136   1.7337841
  17.6852846  14.9335676   1.8189377  16.1728906  14.9741798   1.7742151
  52.6912737  12.0906126  64.1126919  51.7800331  11.8087697  64.0324497
  53.1558561  11.5937090  63.4392834   9.0370957  45.4899179  23.5933012
   8.8711993  44.6736120  23.1217569   8.4053962  46.1097805  23.2286638
  14.9837029  17.9858029  59.4566202  14.6776175  17.0928502  59.2979431
  14.9327779  18.0911875  60.4066372  52.0356424  59.4773172  18.3589167
  51.9973953  58.6940573  18.9078039  52.3794515  60.1583527  18.9370340
  71.3045962  68.4030555  12.7256245  71.0662921  67.7678035  12.0504231
  71.8001683  67.8952073  13.3680672  62.6096399  70.8695148   5.6731695
  62.4001439  71.7582940   5.9602446  62.3483427  70.3130029   6.4068216
  20.1566457  26.6842133  10.0824160  20.9617328  26.5095860  10.5698294
  20.4379081  26.7458206   9.1695494  65.0053452  65.1339553  38.6276907
  64.1374015  65.3996562  38.9315123  65.4668855  64.8689912  39.4233126
  61.7690942  30.9561974  19.3454546  61.7170027  31.4073759  20.1880449
  60.9713075  30.4287058  19.3064970  76.8622604   3.7710482   1.0302490
  76.9023576   2.8907305   0.6565279  76.4647523   3.6474520   1.8921894
  68.0048390  64.4042008  47.6006126  68.8121791  63.9036195  47.4829149
  68.1286426  64.8670249  48.4292841  53.2752371  24.2080355  51.6524172
  52.5136805  24.3285942  52.2196293  53.0016518  24.5611668  50.8058453
  74.1897567  60.8679794  27.5124830  74.8089202  60.2632497  27.9213518
  73.3960421  60.3483318  27.3851389  38.0342484  12.6680851  37.7661371
  37.3626184  12.7210248  38.4460926  38.7924314  13.1144929  38.1431103
  75.0765713  72.9966955  64.3150187  74.5325907  73.1700032  65.0833130
  74.4683774  73.0367437  63.5769606   3.1970477  14.2996937   6.1648220
   3.2312584  13.8034922   6.9826550   3.8929891  14.9512535   6.2507004
  25.2375142  63.0019091   3.9078373  25.8341031  63.2165145   3.1907219
  25.7123078  63.2570027   4.6988672  47.8559923  16.9138694  51.8567657
  48.6381340  17.1315229  51.3497066  47.1275759  17.0926011  51.2620354
   0.4098956  62.9632758  28.6799139   0.2473895  62.0343803  28.8441652
  -0.0862058  63.1562065  27.8843683  25.0512409  10.8722692  51.5139574
  25.7353162  10.6188208  52.1336645  24.5223331  10.0819927  51.4046473
  21.8135762  23.5545731  62.0616150  22.3325586  23.0583620  61.4286375
  21.0806966  23.9001465  61.5520096   6.2510443  12.1672297  57.6956606
   6.3590688  12.9140890  57.1067953   6.7080867  12.4252915  58.4961319
  44.0328836  40.7356358  54.8782635  44.4474697  41.5940475  54.7917843
  43.1759262  40.8408070  54.4649935   9.9873900  18.0272913  51.4136457
   9.4289589  18.7877476  51.2521124   9.9976391  17.9357171  52.3663998
  75.9793456  38.5885483  23.2875055  76.1955674  39.4943650  23.0661959
  76.7110379  38.2931757  23.8293642  74.1478141  44.3681549  26.2944120
  74.0038045  43.5634487  25.7964796  73.7618954  45.0569676  25.7532686
  15.2408521  72.7699040  13.3050818  15.2123038  72.9528569  12.3659605
  16.0883204  72.3461293  13.4408897  40.4941185  70.0155948  29.5781511
  39.8567636  70.3808879  28.9644999  41.3447447  70.2167939  29.1880411
  38.7231040  36.9208717  60.0071335  38.8227248  37.3048139  59.1359854
  37.9214311  37.3141289  60.3519487   1.0380682  24.2141676  59.0031433
   1.6884264  24.2119479  59.7054672   0.3238234  24.7552204  59.3398237
  68.6856905  27.3224044  61.3953209  68.7882701  27.2810054  62.3461056
  69.5621077  27.1483445  61.0520601  78.9727798  47.8613764   6.1737198
  79.6995607  47.2467619   6.0723681  78.1880465  47.3251921   6.0600084
   7.9655695   7.5601345  25.4363913   8.7600374   7.7367550  25.9402365
   7.4642157   6.9557672  25.9837717  63.6868413  31.1359106  26.6751188
  63.6414774  31.4778964  25.7822508  62.9599817  30.5156230  26.7312330
  45.9054549  65.2608250  24.9111933  46.6508706  64.9068140  25.3962320
  45.6036074  65.9987019  25.4409594   2.6616256  70.3480576  32.8200144
   3.0382745  71.2068151  32.6279158   1.8674247  70.3102039  32.2870535
  79.8820027  65.4572402  62.6213312  79.6647485  65.5173587  63.5516071
  79.0906723  65.7525896  62.1709967  72.6699689  17.0738655  -0.1307684
  72.4563244  16.5177685   0.6184620  71.8646112  17.5610405  -0.3048140
  72.7276929  46.2761592  37.1008963  71.7881186  46.3013856  36.9197935
  73.1033213  45.8112852  36.3532156  10.7169644  41.4463501  23.9695734
  10.9960715  41.6201390  24.8685354  11.1638181  40.6336080  23.7329287
   4.6414916  53.4084784  29.9362654   4.6453635  52.7430473  30.6243128
   4.5477597  52.9118954  29.1233343  23.6760680  65.3107642  52.5654936
  23.7641542  64.3804901  52.7730036  24.4541137  65.5151682  52.0467472
   9.8120427  33.0570412  53.9525509   8.9875472  33.2617378  54.3936157
   9.6045125  32.3096561  53.3916759   8.3985066  23.5940987   5.1936525
   7.6174903  24.0585476   4.8927683   8.8234424  24.2050415   5.7956547
  68.9124663  56.5166389   1.3508839  68.9375289  56.0430764   2.1823544
  69.7926743  56.4126872   0.9894175  25.6180811   2.2484952  27.0609087
  25.1926040   1.4601570  26.7236799  25.0013160   2.5967699  27.7047438
  65.2689441  68.1271552  40.6826300  64.6617897  67.8595089  41.3725275
  66.1073835  67.7432440  40.9392637  22.3772859  19.6347195   5.3699726
  21.6634130  19.3045574   5.9155077  21.9826984  20.3440863   4.8626942
  40.3603697  11.0942703  46.4527887  40.0209427  10.2362543  46.7074102
  41.2039566  11.1605268  46.9002241  16.7771673  31.8658977  36.3274950
  15.9783172  31.9561535  35.8079523  16.4925384  32.0054823  37.2306723
   9.6016669  20.0289202  56.9560671   9.1034615  19.4647527  57.5474548
   9.0282732  20.1479578  56.1989117  45.9038587  65.0463437  20.9735102
  46.4158101  64.9161457  20.1752657  45.8242650  65.9967707  21.0546488
  70.6560126  10.7556540  28.8318151  70.0693324  10.9149414  29.5711798
  71.3940969  11.3468319  28.9800352  64.0261276  44.9520140  16.7416376
  64.2396171  45.0562726  15.8143896  63.5562904  45.7538478  16.9708628
   4.1683650   0.7717162  19.6543592   3.2235837   0.6209236  19.6246714
   4.4443392   0.7433420  18.7382406   3.0304591  63.2187675   1.8235010
   2.1593539  63.5024069   2.1009153   3.4576861  64.0196680   1.5197414
  50.8519705  60.4908250  12.2817272  51.6906650  60.8938001  12.5063032
  50.2342565  60.8537673  12.9164976  63.8479312  59.1512440  21.8314165
  63.7334783  59.1365479  22.7816385  63.5170300  60.0085567  21.5635485
  56.6528142  23.3491188  46.3738340  56.8806213  22.5919062  45.8344263
  56.1021677  22.9904419  47.0698065  65.9444483  45.1026528  11.0906929
  65.9573229  45.1022951  10.1335806  65.9555133  46.0293816  11.3300318
   0.9854054  36.4828831  18.6365694   1.1143422  35.5566698  18.8408464
   1.8710851  36.8421036  18.5839743  66.7262319   1.6616684  29.4963259
  67.1354404   0.8046752  29.6160883  67.4510971   2.2838288  29.5573133
   6.0576272   9.1635233  27.1155733   5.6074643   8.3860022  26.7853636
   6.9860100   8.9318567  27.0897287  78.7962332  14.8796898  48.2709784
  79.3518606  14.4231897  47.6392168  78.3365098  15.5399853  47.7524275
  12.6089000  18.2408434  18.1561274  12.5612831  18.3956057  17.2127146
  11.9049263  18.7760502  18.5224718  31.8899297  22.1609789  25.8563990
  32.7710628  21.9934278  25.5220884  31.4962530  21.2924820  25.9398550
  24.2688656  17.7524286  30.7383627  24.6427679  18.5343033  31.1446852
  24.8272085  17.5869947  29.9786848  78.4838183  54.5052098  16.4630407
  77.9438908  54.8492240  17.1746248  79.3040068  54.2510711  16.8860430
  31.4151694  51.8111669   0.6794209  30.9200789  51.7869793   1.4982790
  30.9655811  51.1875092   0.1091951  55.8168337   0.7698685  24.4585508
  55.2680710   0.3753549  25.1363844  56.3174334   1.4440614  24.9180025
  43.0915642  42.2960424  60.5685425  43.3642387  41.5322590  60.0601006
  43.2273722  43.0374479  59.9785376  63.6442068   0.0743252   5.6901592
  63.3888391   0.8326703   6.2154526  63.5871092   0.3798824   4.7848362
  53.3907700   4.6452305  59.1652155  52.8515625   4.3025035  58.4524632
  52.8530407   5.3287989  59.5649815  70.9334071  39.9478322  27.3272509
  70.9627374  40.8378454  26.9761843  71.8222888  39.7855491  27.6431364
  51.6114712   4.0996820  56.8781328  52.3460484   3.9256757  56.2896204
  50.8586168   4.2058325  56.2966061  17.2719872  70.2729988  46.0893965
  16.9519532  69.3718529  46.0475540  16.7482305  70.7435274  45.4409266
  28.1658268   3.3568865   9.0892452  28.9201688   2.7705627   9.1477531
  27.4120092   2.7964455   9.2733521  32.8491426  31.9669390  64.6178913
  33.4707689  32.6603937  64.8390961  33.2648778  31.4935207  63.8972855
  23.8568854  41.7544127  62.8146791  23.2885456  41.1742115  62.3081398
  24.3674850  41.1648893  63.3696413  75.5026610  42.8340130  11.6770786
  74.6391757  43.1414966  11.4012617  75.6392558  43.2398985  12.5331348
  79.9071296  31.6455840  12.7279324  80.0293811  32.2754423  13.4382624
  79.0249284  31.8216472  12.4008936   2.2560803  71.4292811  19.9642366
   1.5078418  71.3160442  19.3781084   3.0023686  71.5555762  19.3782896
  73.7210313   9.3659216  23.0057329  74.1220322   8.9203506  22.2594828
  72.8180590   9.5266252  22.7317900   7.6038503   9.8551708  18.3597368
   6.8291282  10.4169613  18.3803839   7.4250292   9.1765505  19.0106768
  76.4988771   7.9138952  14.3097919  76.5039173   8.5645205  13.6077303
  76.5832630   8.4276157  15.1130384  46.6345556  73.7960409  10.7022947
  46.1529441  73.2418035  10.0882048  46.0427494  74.5270871  10.8799690
  69.0637425  18.0533462  24.0684694  69.8291317  18.6111551  23.9296812
  68.4049645  18.3959919  23.4644503  44.1987832  59.0656303   4.6504158
  44.5360465  58.3127259   4.1650099  44.9150403  59.7004484   4.6357292
  26.6673565  36.4356333  33.1328196  25.9591150  37.0559078  33.3057112
  26.2703275  35.5751377  33.2675356  70.9876807  43.5908978  31.4424700
  71.3635714  44.4471412  31.6468901  71.4900906  43.2826410  30.6882853
  53.5352087  10.7257915  45.4222202  54.1968536  11.2225723  45.9035397
  53.6772346   9.8173499  45.6882906  63.5631664  72.7164553  16.9375223
  63.0493219  72.9769705  16.1731047  64.1849835  73.4331511  17.0637030
  68.8220485  59.6137856   2.2463411  69.4200595  59.8053096   1.5238899
  69.2146809  58.8615225   2.6892513  44.5815142  56.3789033   7.0897240
  44.5769437  55.6374870   6.4843220  45.5053075  56.6160165   7.1710533
  40.8584261  21.7286968  64.7307253  40.0736189  22.2751880  64.7714472
  41.1402750  21.6460586  65.6417513  47.3437002  17.1160942   3.8354486
  46.6133025  16.8528896   3.2755608  47.1620640  16.6993338   4.6778006
  22.4471664  14.5023298  48.4542990  22.0882630  14.2718041  47.5973988
  21.7026591  14.4340861  49.0520334  12.1426217  40.3752570  13.4122032
  11.8186633  39.8902911  14.1712088  12.8411404  39.8255497  13.0570549
  36.9024427  40.0713830   4.7669834  36.5220381  40.5122833   5.5266756
  37.8476997  40.1228239   4.9086708  50.0925453  67.1757768   6.3011450
  49.6840389  68.0130313   6.5210480  50.7814725  67.0659469   6.9565434
  55.8218296  56.2750255   7.6264233  55.3128584  55.8678137   8.3273930
  55.5032618  55.8581029   6.8258471  13.2944743  64.0286611  26.6892046
  13.1128470  64.1931652  27.6145071  13.9271132  63.3103417  26.6933245
  12.7642695  40.1529251   3.8048166  12.0985524  39.8245345   4.4091457
  12.2815720  40.3542839   3.0031389  62.4511249  60.5679248   3.7385839
  62.6413925  60.5127190   2.8021091  62.3167689  59.6597861   4.0096325
  57.4255514  30.8629537  62.4149275  57.4073362  31.7713428  62.7161360
  58.3345222  30.5885720  62.5362587  79.6166721   8.4320217  16.2041754
  79.8582545   8.7436443  15.3319639  79.3018618   9.2132479  16.6589445
  40.7920928  57.1996354   4.7089190  41.2259717  57.5098799   3.9141029
  41.2380584  57.6593565   5.4202551  51.8440230  70.4439806   9.9552387
  52.3944815  70.9843443  10.5220121  50.9531195  70.7510780  10.1232094
   7.4958903  29.3966746  39.1012573   6.8131417  30.0337625  38.8910031
   7.0344424  28.6927152  39.5570397  25.8715677  13.1815868  12.8883022
  25.9475279  12.2400909  13.0433792  26.4019489  13.5814148  13.5775513
  28.9963913  30.7953363  18.0344481  29.3859768  31.1515623  17.2359747
  28.9634418  31.5383678  18.6369890   1.6716695  47.8651243  30.0558561
   1.7864656  48.2670027  29.1947264   2.0182156  46.9786268  29.9545568
  54.8116238  45.5133669  10.3828568  55.6791599  45.8069270  10.1045841
  54.3790992  46.3076829  10.6962484  40.8502579  61.6638327  58.7040806
  40.5866957  62.0585585  57.8728390  41.0582447  62.4089575  59.2677784
   1.4918534  68.3636736   6.1092514   0.9195487  69.0714120   6.4055676
   1.6651837  68.5649274   5.1896376  36.2657475  45.8243465  62.7675152
  37.2122264  45.8310986  62.6248026  36.1041570  45.0223017  63.2643461
  79.5087019   4.6266180  15.0664610  78.7992373   4.8933702  14.4818777
  79.7658864   3.7602049  14.7511524   5.3912205   7.3161995  43.3115196
   5.0305355   8.0187660  42.7706528   6.2138689   7.0815903  42.8820562
  62.6673086  61.3301109   1.1305470  62.3086579  62.1458481   0.7810110
  62.1130498  60.6451415   0.7565874  39.5167275  51.5808176  15.7035536
  39.7120889  51.5221845  16.6387743  38.6198433  51.9131802  15.6666082
  42.1596241  34.4010806  64.5390558  42.9307270  34.0459585  64.0968800
  42.4502563  34.5593905  65.4372263   6.4668441   5.4379469  23.1189150
   6.2724685   4.5911556  22.7171701   6.9064641   5.2181011  23.9402765
  36.6332388  22.5188279  57.7257776  37.4602008  22.0453644  57.8163338
  36.8559909  23.4292603  57.9200125  35.7327278  42.6050524   5.4629124
  34.8172553  42.8840069   5.4809654  36.1982305  43.3370642   5.0583160
  18.7999868   2.5170475  15.9449762  17.9182243   2.2714644  15.6649488
  19.2387056   2.7929741  15.1402277  18.4325027  32.8527552   5.3447575
  18.8889456  32.0319086   5.1600832  19.0104484  33.5317474   4.9966520
   7.6276207  21.0596758  18.7265486   7.2162461  20.7370335  17.9247374
   8.4836173  20.6317240  18.7455076  29.3500137  18.9921194   7.3454327
  29.4773531  19.5686394   6.5920156  28.4093570  19.0287834   7.5188011
   7.1183872  14.1174322   9.9577898   8.0223369  14.4046789  10.0866217
   7.1944546  13.3025461   9.4613976   3.7792444  10.0606161  18.7717432
   4.2575693   9.8999125  19.5851320   2.9684949   9.5609528  18.8679308
  13.6544752  11.2954670   7.2966141  14.0029239  11.4335876   8.1773705
  12.7854299  11.6961771   7.3172945   0.9063577   8.3890444  29.2427153
   0.0203967   8.0912500  29.0362638   0.7778430   9.1355663  29.8278803
  25.7666826   4.2635780  17.7550596  25.8637714   4.6494919  16.8844980
  26.6073417   3.8379389  17.9234785  30.6273699  40.9308725   4.3909830
  30.5327129  41.7351204   3.8806290  31.5732622  40.8080536   4.4712204
  72.7449019  64.5714997  27.1882814  73.6137469  64.1991519  27.0376295
  72.9045613  65.3356765  27.7421469  56.1097860  30.6025386  46.3359547
  56.2488174  30.1736712  47.1803331  55.8081865  29.9015880  45.7580805
  60.8339834  40.1207447  56.8413210  60.9508085  41.0359097  56.5862465
  60.2145576  39.7708178  56.2009335  14.0988795   3.7616260  58.7264013
  13.9901797   4.6954734  58.5465670  13.8354031   3.6616189  59.6411753
  33.5540628  32.3705631  14.5049614  33.7920856  32.6491123  15.3892607
  32.6236582  32.5823837  14.4294161  21.2776184   8.7460237   2.9898399
  22.1767330   8.4825521   3.1858105  21.0291099   8.2086712   2.2376913
   2.8126502  48.8468367   8.5720486   2.7170562  49.1046530   7.6551909
   2.3762035  49.5428377   9.0633101   0.9669256  30.9472614  15.7704062
   1.3940644  31.6926247  15.3482431   1.5474128  30.7180887  16.4961714
  13.3753943  29.9442059  46.5800756  12.8276419  30.2695042  45.8656687
  13.4684801  29.0080744  46.4033598  25.0239610   1.4114123   6.9494051
  24.3386697   0.7564407   6.8166727  24.9652290   1.9786888   6.1806578
  38.7335348  13.6724955  14.2483753  39.4245672  14.0919643  13.7357849
  38.4676599  12.9193216  13.7208599  29.4994020  61.5659809  59.9892902
  29.5044184  61.6577101  60.9420729  30.1634455  60.9005022  59.8092413
  11.8678713  29.0236097  56.3888067  11.1011076  29.0651089  55.8173365
  12.1523618  28.1108623  56.3419813  52.9312094  62.5566600  18.6605829
  53.1748684  62.3559188  17.7569479  53.7645848  62.7165054  19.1034979
  41.8145593  67.9170607  23.9266771  42.4392684  67.4618124  23.3621305
  41.8792351  68.8352226  23.6639494  14.8287677   6.8290096  19.9351686
  15.0732374   6.2892014  19.1834539  14.8467874   6.2264639  20.6787008
  44.4419575  32.4887776  58.9461613  45.2839136  32.2678018  58.5480261
  44.6026039  32.4404573  59.8885441  72.8266898   9.2215162  11.3961166
  73.4141651   9.5982605  12.0512241  72.4616566   8.4448677  11.8201441
  26.2702312  64.1601013  17.7064413  26.4935421  64.0964674  16.7778296
  26.2816228  63.2551240  18.0180830  47.2859716  18.6665022  43.6845493
  46.6564465  19.3841445  43.7547016  46.7467308  17.8758776  43.6654520
  72.4634638  11.4235979   7.9775232  72.3636904  10.5614954   7.5737232
  72.2874716  11.2747484   8.9065594   2.3868060  33.9926916  18.3441729
   2.0186639  33.1768137  18.6833567   2.4536609  33.8509613  17.3998827
  62.4896809   4.1579872  33.5777372  63.2455805   3.5707718  33.5724062
  62.6030037   4.7013670  32.7979177  72.8249581  57.2715174   4.7287411
  73.0791219  57.3405527   5.6489939  73.5349019  56.7758034   4.3207211
  34.7780664   8.5791404  37.6482773  33.8289751   8.6205108  37.5310349
  35.0620444   7.8807838  37.0584536  23.1943297  56.0237789  55.9905195
  23.8074398  56.1790657  55.2720404  22.6651597  56.8204165  56.0302305
  70.9835942  61.5033148   6.2451309  71.2469561  60.8380936   5.6092400
  70.2178796  61.9213413   5.8512253  10.6846730  56.5996729  16.4103693
  11.3808982  57.2155665  16.6387934  10.2239291  56.4425992  17.2345442
   8.2633733   7.3653179  13.0770821   7.3402285   7.6183611  13.0750984
   8.5513067   7.5026518  12.1746058  20.2744119  69.5885490  21.1566252
  21.1497323  69.4148420  21.5028566  19.7495095  68.8427590  21.4473337
   4.4256782  35.2141958   6.8715853   4.1804504  34.7188812   7.6530928
   5.0651097  34.6581322   6.4264387  59.5516136  10.9403759  41.3600916
  59.7458854  11.8284183  41.6598887  59.2309502  10.4888063  42.1407980
  21.7381715   3.7176090  11.3140625  22.1738672   3.6811548  12.1655745
  22.4543094   3.7377172  10.6792540  77.7083094  56.9437193   9.8283619
  78.5429938  56.4751958   9.8244661  77.4150117  56.9029604  10.7386059
  21.1699104  15.2998119   7.9616112  21.5486097  14.7260099   7.2956032
  20.3448152  15.5985981   7.5792736   9.6851317  26.1425804  30.4776091
   9.6015756  26.2323497  31.4269156  10.5811374  26.4212977  30.2886099
  64.0908630   1.9168956  56.6018248  63.6415966   1.1017711  56.8253613
  64.5147116   1.7345579  55.7631779  29.8184228  43.4418535  64.9856853
  30.6167364  42.9138851  64.9723864  30.1100206  44.3099833  65.2641726
  18.2000196  49.8221016  57.1672821  18.5197628  49.3254328  57.9204845
  17.4618959  50.3267193  57.5089931  26.2926340  12.0785356  35.2907681
  25.8666277  12.7148890  34.7164822  26.6890264  12.6080430  35.9826684
  79.6675244   3.5670763  22.5843328  79.4949475   4.4702488  22.8502745
  79.3542829   3.0374819  23.3175653  57.7034855  26.3100529  56.2972975
  58.0241299  25.5580688  55.7993650  58.4755421  26.8621778  56.4210653
  60.1116657  46.5556341   8.1172604  60.8088398  46.9950300   8.6041969
  60.3698063  46.6413218   7.1995205  51.9261837  25.5413300  12.2301811
  52.0839977  26.4025169  12.6170677  51.2623262  25.1436716  12.7935642
  32.7814817   6.0204893  27.1825689  33.2911920   6.2310844  26.4002127
  31.8783903   5.9603649  26.8710608  53.3042574  21.0851866  38.3415121
  53.3941507  20.5214458  37.5731749  52.5574827  21.6487223  38.1390566
  10.5621934  15.7032925   9.1942400  11.1634516  16.3439375   9.5740980
  10.1718616  15.2638203   9.9497122  16.5460443  38.1529861  13.2768244
  16.3083267  37.2289139  13.3530182  16.7582798  38.4202295  14.1711229
  24.5937872  24.9418121  40.7128519  24.5278835  25.5605274  39.9854750
  24.3841600  25.4613596  41.4889711  59.1454268  61.6336060  53.7547588
  59.3671703  62.4807835  53.3683014  59.7518206  61.5393782  54.4893599
  19.1147423  38.3275562  31.6960615  18.3215522  38.2165867  32.2202486
  19.1833305  37.5173670  31.1909670  49.8848295  17.2986990  25.3829378
  50.5908298  17.8038317  25.7862276  50.1080990  16.3861900  25.5665583
   5.3356218   7.1353727  18.8869089   5.2456975   8.0876976  18.8519472
   5.0193834   6.8335157  18.0353731  15.1913333  34.3397117  59.0081644
  15.4093230  34.6077538  59.9008369  15.1257658  35.1609159  58.5207653
  75.6691583  50.5793356   6.6389174  74.7342904  50.7716356   6.7115492
  75.9840949  50.5768024   7.5428194   6.9524257  48.3182429  60.7635397
   6.5921752  48.7312471  59.9787611   6.3863007  48.6195694  61.4741320
  32.0456505  21.2201124   3.8278955  32.6314115  20.5036980   3.5832018
  32.2035408  21.8947750   3.1674904  44.0489673   9.1255957   1.0099262
  43.2016802   9.0372044   1.4464134  44.5706415   8.3987194   1.3501400
  62.1765533  25.6279474   8.7105125  62.8302267  24.9321848   8.6408323
  61.9201741  25.8071857   7.8058714  75.0580326  40.1335150  43.4246439
  75.3618875  39.3099838  43.0429262  74.8438755  40.6825119  42.6703447
  13.2049720   8.9695175  53.8316298  12.8359334   9.7808750  53.4827185
  12.4435346   8.4183891  54.0124607  21.0318088  14.3656116  14.7819370
  20.1019525  14.3346935  15.0069708  21.3499212  13.4797340  14.9558920
  21.2128305  20.3936773  24.6368689  21.2929201  19.8854214  23.8297171
  20.4880380  19.9825245  25.1078886  76.8480817  26.1434132  21.2290186
  77.0790735  25.3175217  21.6541952  75.9023085  26.2210327  21.3543982
  60.3759965  22.4745899  31.0653204  61.2820205  22.1779972  30.9793848
  60.4440352  23.3362490  31.4765924  77.1821156  37.8891521   8.7045950
  76.9009009  38.6828905   8.2494873  76.4103833  37.6090914   9.1967625
  28.9215851   9.3112379  13.9856380  29.5832729   9.4544130  13.3089537
  29.0133524   8.3873945  14.2187017  75.0449005  30.3217417  41.6625971
  75.5470100  29.5634895  41.3639826  74.7217789  30.7270342  40.8578772
  15.8204572  70.2416442  43.0284876  15.2920977  70.4905437  43.7868494
  15.4029290  69.4470357  42.6960749   2.6873526  20.5475020  63.3119488
   3.3809885  19.9173164  63.5068321   3.0632814  21.3967395  63.5437059
  74.6326065  25.3067064  50.0493765  74.7407436  25.8292460  50.8440399
  73.8373661  24.7969723  50.2042723  42.8633690  42.2787004   6.3844913
  43.3081150  43.0842596   6.1208529  43.5661792  41.7074829   6.6943258
  46.4875086   1.8593080  50.5751610  45.9494670   1.2373454  50.0853586
  47.2593673   1.9933326  50.0251579  10.9307241   7.6670891   2.4292416
  11.6947388   8.2106739   2.6216644  10.2736902   7.9425055   3.0685276
   0.1387095   3.5077196  26.9543451   1.0287189   3.6785990  27.2624296
   0.2545881   2.9518229  26.1837667   7.3673415  52.9407888  22.7086729
   7.8291082  52.9757791  23.5463900   7.6901340  53.7013155  22.2253031
  78.1899634   8.9790255  37.3416418  78.0268517   9.1682487  36.4176172
  77.6430646   9.6061808  37.8147215  39.9911499  17.0893293  26.7248911
  39.2217350  17.6289469  26.9066710  40.1666069  16.6367393  27.5498861
   9.4594741   5.3502756  10.2436537   9.3332934   5.0558287   9.3416494
   8.8216233   6.0549170  10.3570265  17.1861410  22.8261924  61.0348988
  16.4367664  23.1880546  61.5078974  17.2585833  21.9264245  61.3533401
  62.4501038  12.1115959  27.2902918  62.6134586  12.4425530  26.4071083
  61.5341949  12.3300862  27.4623466  75.7238737  22.3124176  42.4783415
  75.1094714  21.6745621  42.8415007  75.3688899  22.5219112  41.6144365
  38.4600425  12.4702489  42.3091698  38.8644361  13.2743335  41.9833708
  39.1244507  12.0814979  42.8780890  61.6482218  70.7429050   2.5321096
  61.6900738  70.2423643   3.3469385  61.9053634  70.1183246   1.8538708
  33.6956334  43.4919786  64.6770668  34.5426083  43.0888557  64.8677349
  33.6523223  43.5175848  63.7211943  72.7453740  66.3629197   2.4274296
  72.5625785  65.8279322   1.6550297  71.8917926  66.7111133   2.6850838
  25.6958691  62.1666502   8.6284012  25.5675380  62.0039796   9.5629066
  26.4318816  61.6045951   8.3863062  27.1961069  44.4897657  18.1616491
  27.6805973  44.1866690  17.3937792  27.2352075  43.7556559  18.7746614
  27.8495455  33.9240557  24.6550268  28.4726619  33.7103325  23.9605612
  27.0185661  33.5579782  24.3522066  67.1234608  15.4723215  59.9176645
  67.3885202  15.9332621  60.7136011  67.7540874  15.7555413  59.2556000
  21.9467330  45.9989643  54.9826956  21.6766691  46.1152983  55.8936119
  21.2790680  46.4593601  54.4742727  62.1690941  53.1377077  63.0200148
  62.6535511  52.6323366  63.6728001  62.4922371  52.8146696  62.1789074
  23.3788061   1.4594012  30.3319258  23.0111646   0.6114512  30.5810255
  24.3224001   1.3062554  30.2828878  45.8885093  71.1290811  40.9442133
  45.2588518  70.9839533  41.6503996  46.7378123  70.9224557  41.3343710
  33.1525196  70.0954937  21.9787306  32.5961085  70.8697842  21.8943972
  33.9139070  70.4002999  22.4723047   9.0544145  65.7676529   8.2007164
   8.0972401  65.7662176   8.2072586   9.2910449  66.6673754   7.9754681
  25.9272925  63.8219451   6.5381712  26.6703574  64.1845320   7.0204777
  25.5598609  63.1614207   7.1254820  30.3422133  61.2889002  10.4553312
  30.7976119  60.4490017  10.5137104  30.7824294  61.7509674   9.7419352
  14.8993635  13.7406021   1.7180294  15.3846979  12.9251915   1.8436522
  14.6014929  13.9796930   2.5957197  21.2649409  71.7709397  40.9560007
  20.4714219  71.2368559  40.9922117  21.4763038  71.8229745  40.0238794
  77.2072259   6.3949638  37.8895563  77.6915947   5.7284122  37.4023909
  77.7218094   7.1943432  37.7780527  15.6736040  14.0488821  44.2524618
  14.7903633  13.7712246  44.0095133  15.7845783  14.8971897  43.8231558
  15.7013146  73.0695103  10.5505699  16.6530959  73.1472968  10.6160921
  15.5510918  72.1519755  10.3229898  11.9738745  24.1317945  40.1173014
  11.4974260  24.8957354  39.7923082  11.6259956  23.9892155  40.9975809
   0.7023644   5.6718784   7.4913734   1.3709831   5.9531790   6.8668312
   1.1970377   5.3869682   8.2597202   8.2684874   1.8633252  18.2098860
   7.5979614   1.3727027  17.7345747   7.7782917   2.5152260  18.7108416
  54.6052416  70.6152319   1.4124531  55.0781496  70.0762294   2.0465368
  55.2802809  70.9188102   0.8054918  43.9126869  65.2961849   6.8467516
  43.5699172  64.4781350   7.2066587  43.1336196  65.8166169   6.6507000
  41.7828226  58.7203550  60.1787710  41.9461679  58.2486582  59.3620396
  42.2033739  58.1858206  60.8523035  69.3833399  42.1420336  36.4615965
  70.3119326  42.2883558  36.6419888  69.2116022  42.6458740  35.6660557
  21.0469866  64.0778547  12.8167624  20.5656862  64.4467741  13.5573572
  20.6843900  64.5220285  12.0502943  26.7516160  18.0458391  59.8561430
  26.6177511  17.5764203  59.0327597  27.6973367  18.0121195  60.0000525
  31.9016142  42.2181748  13.8638205  32.1959259  41.5088310  13.2924646
  32.7087541  42.6459907  14.1497082  74.9851353  70.5653618  38.7958616
  75.5041917  71.1719178  38.2677549  75.5194934  69.7727107  38.8447947
  76.3065183  33.8917708  59.7508764  76.4614389  32.9697037  59.9558735
  75.8713517  34.2402816  60.5289507  14.5278310  29.2786890   7.0475000
  14.4118070  28.4065729   7.4245733  15.2505398  29.1775995   6.4280647
  15.7142019   6.2030750  34.2218203  15.3814935   5.3337007  33.9988226
  15.9599495   6.1360651  35.1445002  70.8711270  10.7467180  10.5561346
  71.5341631  10.0804049  10.7368130  70.1464430  10.5285936  11.1422104
  53.1984098  68.2230543  45.8695978  53.5186274  68.3035539  44.9711412
  53.6431845  68.9240216  46.3460917  44.1430283  20.3644323  61.7268324
  43.9793777  21.2907600  61.5497255  45.0053215  20.1965952  61.3466930
  34.9973287  72.2451376  23.2005304  35.3934778  73.1121968  23.1138987
  35.5372681  71.7992352  23.8531107  70.2373536  65.4925369   1.2519926
  69.6494897  64.7416376   1.1695570  69.7683747  66.1024903   1.8214220
  60.1026678  39.9007893  50.2801275  59.2800093  40.3282928  50.0420094
  59.9293804  38.9665532  50.1643515   0.3139138  29.0068298  13.1553549
   0.5264973  29.8668772  12.7929205  -0.4944563  28.7525087  12.7102846
   3.5509634   4.0239340  25.7333464   4.3238949   3.4663206  25.6445974
   3.6605930   4.6943718  25.0590128  66.2060650  56.6233979  13.2611174
  66.3742669  57.0491050  14.1017813  66.8362887  55.9037672  13.2267231
   2.0419089  70.5194821  48.1052637   1.8280284  71.2136941  47.4819231
   2.9986446  70.5090197  48.1331348  56.8040235  72.3533319  28.9712805
  56.7969902  73.2950448  28.7999338  57.7167399  72.1547578  29.1804403
  68.4125502  62.9731415  15.1169580  69.2136605  63.4590386  14.9211020
  68.0000098  63.4670781  15.8255285  77.4543095  36.4026570  61.6063643
  77.8395653  36.1852026  60.7575274  76.7848969  35.7325149  61.7443085
  13.5227489  19.4729620  40.0239271  14.3637466  19.0590340  39.8299688
  13.7410259  20.1931387  40.6154722  70.3613170  32.7824171  18.1293291
  71.1611207  33.1929539  18.4579653  70.6269391  32.3606394  17.3121542
  47.2034605  67.7354525  14.8089451  46.6861136  68.2789038  15.4032892
  46.5782173  67.4442195  14.1452545  61.9370110  65.1019477   9.2185968
  62.3248871  65.1958989   8.3485598  60.9995420  65.2352737   9.0785593
  34.7379684  21.8226677  60.4315084  34.4086551  22.7148014  60.5405230
  35.5230617  21.9213110  59.8928732  12.1695566  28.8858086  33.4801859
  11.7318010  28.0456739  33.6172003  13.0968976  28.6994320  33.6269278
  37.0549178  26.1319852  55.5259037  37.0382833  25.6357956  56.3442898
  37.9344130  25.9882903  55.1765203   0.2565591  73.9754985   1.5793938
   0.4612176  73.1529497   2.0240921   0.5102317  73.8250183   0.6687683
  25.4788176  70.4532741  50.1156134  25.8222691  70.9680818  49.3853754
  25.4494588  71.0677503  50.8489508  43.4298325  38.3074164  63.0975294
  43.2539272  38.1196547  64.0195036  44.1314220  38.9583325  63.1152868
  28.9146805  50.2484179  63.8470984  29.3644571  51.0907078  63.9140463
  28.7903070  49.9705124  64.7545815  61.3888741  33.5548997  51.7836475
  61.4934587  32.9736304  52.5369215  61.5151739  34.4341660  52.1402550
  60.8698177  12.3738247   0.3467268  60.6595421  12.9358917  -0.3989941
  60.0190735  12.1410566   0.7186073  58.9879274  37.2934937  59.2488146
  58.6398411  37.3113298  58.3573294  59.0248728  36.3636374  59.4729519
   6.3457696  70.1810788  21.3971037   6.6246240  69.2815231  21.2260050
   6.8237035  70.4338573  22.1869844  52.3418379   8.4764915  33.2056231
  51.8048095   8.9661890  32.5827021  53.1268739   9.0124660  33.3182234
   1.3269743  26.7114854  56.7859840   0.8452925  27.4334383  57.1897221
   1.1268839  25.9533787  57.3350525  11.7966199  36.0536247  22.6844687
  12.3277163  36.3935476  21.9643110  12.1771526  36.4476496  23.4694380
  43.3659553  16.1271578  32.3078245  42.5286960  15.6824594  32.4400038
  43.1987142  16.7463785  31.5973085  18.0181074   1.7717224  23.8663000
  17.8695345   1.4251858  22.9864878  18.9691210   1.8580967  23.9322657
  71.5720129  45.8498812  51.6693544  72.2129869  45.2091408  51.9773197
  71.2652349  45.4989576  50.8333111  22.9061985  39.0136581  31.9203753
  23.8273811  38.9787966  32.1781248  22.9254198  39.2592293  30.9954065
  32.4073839   6.5391642  12.0928425  32.5068998   7.3376614  12.6112312
  33.2962990   6.1932665  12.0127434  16.1978244  30.6648451  13.8445753
  16.1621856  29.7284656  13.6492437  15.7649088  31.0815817  13.0994934
  53.8805676  21.6990948  42.9587507  53.1890631  21.9139576  43.5847616
  54.4439602  21.0825968  43.4264565  27.1873824  65.4817139  60.8118057
  27.4562757  66.1677151  60.2007961  27.0656125  64.7067373  60.2633381
  28.5597086  10.8878899  46.0146570  29.3386030  11.4289737  45.8851147
  28.4806180  10.8055627  46.9650269  12.1654570   5.8200914  60.2689838
  11.5280080   6.2137294  59.6732140  11.7050147   5.0742817  60.6536818
  51.0704596  39.0900265   3.8094515  51.9181259  39.4700264   4.0403074
  51.1339004  38.9156743   2.8704065  21.1236568  54.0851794  27.3400301
  20.8981694  53.6807238  28.1777662  20.4579528  54.7612582  27.2135824
  16.8245570  67.4124210  46.1813354  17.4588983  66.8070303  45.7974815
  16.1501329  66.8463748  46.5568066  57.2365125  44.3745540   5.0647921
  57.6799352  43.7325786   4.5102877  57.5124605  44.1538809   5.9543938
  78.9924486  67.9738860  42.1352959  79.8020681  67.5040387  42.3352718
  79.2830284  68.8364701  41.8390799  14.0968387  52.6079981  36.7725229
  13.6503093  52.1696537  36.0481620  14.2967574  51.9053285  37.3910046
  49.8529156  67.1264480  15.1638979  48.9554198  67.4592088  15.1646036
  49.7563846  66.1769746  15.2374834  63.1559201  73.0308143  56.7206955
  62.6114090  72.6424124  57.4054432  63.3972569  73.8905432  57.0654488
  62.5101842  60.6038492  55.0658655  62.2464104  60.4000871  54.1685677
  63.4463544  60.4059117  55.0911140  34.3928862  16.3653910  39.7341561
  33.8500452  17.1298563  39.5414186  33.8281322  15.6164157  39.5435786
  55.2938080  19.8948550   5.0940621  55.7074404  19.1601741   4.6408662
  54.7852612  19.4879079   5.7954931  44.4691248  24.8259936   2.9729647
  43.6575408  25.0367533   3.4346384  45.1529355  25.2669059   3.4771770
  69.0730445  74.0639360   9.2085171  68.5797088  73.5445451   9.8434097
  69.9512164  73.6832141   9.2183232  43.1140716  44.7256188  13.2260365
  42.8233953  45.0485490  12.3731274  43.8525982  45.2892481  13.4565443
  35.6559038  16.2632811  16.9361055  35.2750301  16.7891812  16.2328315
  35.5844808  15.3606069  16.6257679  50.2995689  69.7122096  25.4521173
  50.0683291  70.4381584  24.8726648  50.3278120  70.1026224  26.3256163
   4.2976946   2.2397706  64.7669697   3.3993241   2.2555451  64.4369507
   4.2791596   1.6033256  65.4816914  21.5439393  72.5995444  17.7863974
  22.0415778  73.4015988  17.9454416  21.1670245  72.7203821  16.9148630
  68.7684996  63.5680555   5.3315205  67.8180440  63.6814664   5.3288168
  68.9928372  63.4486483   6.2543673  55.7814789  15.3426218  37.9092908
  54.8271465  15.4072165  37.9454589  56.0885143  15.9555888  38.5772943
  72.1958335  31.3918714  25.3258699  72.0406516  31.4595555  24.3837542
  72.7539618  30.6201761  25.4218382   7.7049311  65.9422682   2.2878737
   8.0746670  66.0330413   3.1661028   7.0412476  65.2582906   2.3769325
  79.1970427   7.9762910   8.7368912  79.3186505   7.2846674   8.0864281
  78.8233645   7.5283335   9.4957918  67.3133107  58.7925034  35.8659053
  68.1997879  58.8714998  36.2182546  66.8659886  58.2028167  36.4728689
  27.8880994  37.0369141  64.5061398  27.5710647  37.1527784  65.4018497
  28.6179893  36.4230745  64.5879269  29.1602182  12.7414453  42.9987526
  28.5967016  12.5679004  43.7527847  28.6269403  12.5015116  42.2409439
  68.6661799  39.5099788   4.4727987  67.7109988  39.4909452   4.4136232
  68.9174826  38.5932553   4.5854754  46.7779644  59.8448084   2.2257608
  45.9700008  60.2590273   1.9226927  47.4204047  60.0467514   1.5455240
  74.5081034   7.2853905  10.0308842  74.3759003   8.2173115  10.2049059
  73.6303893   6.9484335   9.8511309  30.4407239  15.9250414  60.8897638
  30.2185059  15.5037546  60.0594807  31.1841893  15.4220283  61.2221336
  63.5203171  27.6360846  59.3230009  63.1871367  28.4845304  59.0308332
  64.4508696  27.7880859  59.4879198   6.6702001  71.8236532  49.3743801
   7.1416728  72.5158729  49.8378181   6.0684864  72.2904964  48.7945271
  33.3209515  17.8089643  49.1864586  34.1012502  17.5479937  48.6973190
  33.0701947  18.6507607  48.8060236   9.5533626  58.5698550  63.4532070
  10.0605099  59.2076378  63.9554691   8.6523239  58.8893752  63.5008192
  41.0800219   2.0135397  20.4225373  41.3527536   2.9277819  20.5000663
  40.4011726   2.0225044  19.7477698  67.6216221  15.7817900  63.5101175
  68.0626631  15.6690192  64.3521357  68.3260918  15.9914148  62.8969193
  24.9791591  53.6489647  64.4059372  24.1662566  53.9456933  64.8150539
  25.4849498  54.4500868  64.2695045  55.9009981   4.4100350  31.0816288
  56.8055916   4.4020736  31.3944840  55.8844137   5.0959873  30.4142261
  66.9284804  43.0312888  50.4777712  66.6001065  42.7928387  49.6108526
  67.0460589  43.9803492  50.4366488  16.4029229   8.1551337  61.5737915
  15.4973972   7.9292697  61.7864847  16.5708101   8.9594692  62.0648003
  17.5991599  67.6058339  30.9198374  16.6873710  67.4385856  30.6812948
  17.7313058  67.1066760  31.7258162  74.8018773  40.9329330  13.7172598
  75.1784737  41.8019720  13.5787720  74.1676839  40.8308609  13.0076021
  46.9918139  67.7602481  23.5495657  47.9440244  67.6917790  23.6191172
  46.6648491  66.9426011  23.9247698  60.5211504  49.5243119  15.2259821
  61.0509141  50.3154646  15.3242678  60.6214984  49.0638398  16.0591311
   6.8259208  38.2670722  20.9882826   7.4730031  38.6837731  20.4191870
   7.1041505  37.3525447  21.0378641  56.8699503  28.4525561  65.2789497
  57.5643826  28.3781338  64.6243858  56.3755941  29.2290473  65.0164413
  39.4555266  39.8509802   9.2020267  40.2188940  39.4850385   9.6487803
  39.2607518  40.6563147   9.6813292  52.0327313  53.4736918  12.0607561
  51.7719062  52.5825797  12.2933907  51.8639739  53.5349046  11.1205381
  36.8578632  54.9510501  29.2197126  36.1115803  54.4058572  29.4688314
  37.5353380  54.3261479  28.9613337  53.7616301  11.5883732  35.4603791
  54.2114973  11.0644901  34.7975087  53.5919142  12.4259043  35.0291371
  71.0960028   1.4409263  28.6508727  71.8812332   1.9828594  28.7280321
  70.4059783   1.9586280  29.0657020   6.3628453  27.6407504  59.5442915
   7.1009868  27.1471143  59.1869402   5.6201941  27.3935676  58.9932919
  42.6686542  71.7166220  57.1384001  43.4190194  72.1414473  57.5539827
  41.9174115  71.9877787  57.6659775  16.6319263  19.4970775  39.3897867
  17.0094919  20.3576446  39.2078495  16.9767499  19.2614746  40.2510786
  12.5247447  11.6320108  18.3536047  11.7197673  11.1517261  18.1597704
  12.2617213  12.2908376  18.9962477  52.3096140  46.7510472  11.8834871
  52.3005445  45.8016978  11.7614788  52.1823128  47.1067815  11.0040087
  58.3069094  58.6911963  13.5526413  58.1475432  58.3127164  14.4172758
  58.6581595  57.9666446  13.0350679  13.5075486   9.7635049  56.4144182
  13.2220316   9.3574333  55.5959940  12.6984620  10.0666082  56.8264103
  49.9566837  64.2901116  44.3321848  49.6962895  64.4122832  45.2451468
  50.1594378  65.1722627  44.0208483  74.9401982  58.3624171  28.9379972
  74.9635966  57.9076193  29.7799295  74.7754653  57.6710604  28.2968134
  68.7364622  63.7179475  11.6116166  69.2188497  64.3678372  12.1226728
  69.3666764  63.4093385  10.9605992  31.9269343  32.5686883   1.0039228
  31.1197339  32.3907463   0.5212254  32.5756998  32.7550857   0.3252548
  53.3810408  43.7684845   1.9162745  53.9255698  43.5319172   2.6671118
  53.1773718  44.6941154   2.0502848  31.6521454  19.9099588  62.2155237
  31.8178225  20.8331394  62.4066353  32.5085902  19.5582056  61.9726133
  39.5886846  57.8542422  20.6054491  39.8002513  58.4098815  19.8552889
  40.2185710  57.1351861  20.5561060  78.7920173  57.8639434   5.9748262
  78.9770253  58.3350276   6.7872852  78.8816531  58.5253571   5.2887291
  20.2337551   6.2714851  56.4438629  19.5582545   5.9101731  57.0177841
  20.9346080   6.5396363  57.0381117  11.2586181  74.9228621  52.2201920
  11.3634174  73.9896641  52.0347452  11.0788934  75.3178931  51.3670349
  74.7034390  22.0863055  25.2756971  75.1475032  22.7608620  25.7895178
  73.8440926  21.9981121  25.6879705  22.3953215  50.9155558  17.9924292
  22.5544087  50.1404320  17.4538130  22.0342271  51.5601157  17.3838324
  69.7305766  73.8862220  15.0529379  70.5804244  73.8288513  15.4896254
  69.9397853  73.8723913  14.1189808  42.4033356  23.9663839  63.7081718
  41.4572668  23.9617324  63.5627031  42.5365973  24.6178532  64.3966913
  58.9986236  42.6514815   0.4097933  58.9832599  41.9235929  -0.2116352
  59.8566063  43.0565094   0.2830881  77.0582541  63.2551997  19.6888363
  76.6555675  63.7730425  20.3859115  76.4100106  62.5805693  19.4866383
  32.6740432  11.8902576  60.7460642  33.0012441  11.0915899  61.1599493
  33.4525466  12.4341249  60.6261826  74.2927296  64.5253824   9.2310328
  74.2851050  65.3330849   8.7174219  75.1172431  64.0998028   8.9958996
  48.7462616  37.9218221  60.1256800  49.5349503  38.2778335  59.7164679
  48.3666086  37.3510289  59.4576263  27.6099078  52.8697477   3.8635153
  26.8756644  52.3638724   3.5153717  27.8602378  52.4086486   4.6641153
  50.4196405  17.3749375  43.8646126  49.5011091  17.4800968  43.6166859
  50.8425331  17.0322573  43.0772352  41.2578344  30.7446074  59.9774504
  40.3404999  30.9306097  59.7771120  41.5765715  31.5411544  60.4018927
  63.5846329  70.1781026  21.1941046  64.0698671  70.9904042  21.3388437
  62.7023458  70.4649059  20.9584135  36.4813232  63.2825938   0.8078474
  35.9911513  64.0359107   1.1372084  36.4966559  62.6676074   1.5411943
  23.5925269  18.6738729  57.4166346  24.0226388  18.6456954  58.2712936
  23.7166953  17.7955592  57.0569420  32.4065208  13.9099050  57.5763130
  31.8919563  14.7041106  57.7201557  32.0696449  13.5517144  56.7550659
  35.5149746  14.0524828  60.8474874  35.4418063  13.9663529  59.8969793
  35.0551820  14.8671651  61.0502577  34.8416257  32.4838090  56.2337065
  34.1833067  33.1786633  56.2288666  35.4543281  32.7391577  56.9233608
  77.3055172  14.2124712  62.0541334  76.8689775  14.1943550  61.2024689
  77.5720787  13.3057630  62.2059774  72.4357005  71.0518362  41.1913490
  72.0516546  70.2235885  40.9036922  73.3433540  70.8341055  41.4034605
  65.0613578  52.1398650  24.2341417  64.6700485  52.2939561  23.3742804
  64.5752628  51.3953303  24.5885557  25.2222180  32.7509165  62.6152563
  25.0552273  33.5920215  63.0405617  25.9274459  32.9324818  61.9940329
  35.7826447  13.8541520  50.2660418  34.9596691  14.3422544  50.2924681
  35.6722116  13.1629109  50.9188986   1.4208643  67.8592001  43.7847567
   0.9671728  68.4727423  44.3626499   2.3422639  67.9326027  44.0334797
  61.8672373  74.2861496  43.5904980  61.6564180  73.4432252  43.9920759
  61.1881562  74.8802343  43.9100981  15.4556672  58.8593958   2.3523039
  14.8898522  59.5049571   1.9288248  15.7210700  59.2750429   3.1726879
  58.6711819  45.9654550  12.1610159  57.9332121  46.5733139  12.1147770
  59.2573912  46.3495766  12.8129667  49.0348299  10.4730652  15.4762739
  48.5602243  10.9005879  16.1891645  48.4507211   9.7725390  15.1859182
  25.3936975  64.3397265  63.4509897  25.9251945  63.5628848  63.2770443
  25.8076350  65.0331240  62.9370975  40.7191785  70.8383940  32.3411364
  40.7340319  69.9174594  32.0805735  39.7993083  71.0929965  32.2686953
  29.2316508   8.4476858  27.9055595  30.1362205   8.7478846  27.8168678
  28.9638686   8.7475282  28.7742472   4.6767346  50.5352520   3.1318134
   4.7479312  50.0173472   2.3299784   4.4584481  51.4166771   2.8290409
  63.3274920   3.2540034   5.3682465  62.7997239   3.5733269   4.6363110
  62.6879604   2.9162119   5.9952444  57.3609312  63.1442951  32.6545900
  58.1762035  63.1971763  33.1533617  57.1218450  64.0562509  32.4890512
  32.6446843  21.3536739  57.6637602  33.0732322  21.6587210  58.4634638
  31.8532038  21.8878913  57.5974369  13.7835519  36.2327606  37.0106024
  13.1024520  36.6034931  36.4494509  14.2561166  35.6236972  36.4431852
  20.3751183  24.4608259  46.7943096  20.2875662  24.0355062  45.9412766
  20.0441694  23.8153529  47.4188662  68.4562531   5.4256678  62.0634317
  67.5904766   5.7138377  61.7742586  68.8762608   6.2208903  62.3912191
   2.8534669  11.8248773  52.0101833   3.2020369  12.4305856  51.3560820
   1.9495377  11.6703200  51.7358541  46.1409569  22.9432321  56.1943483
  45.2042294  23.0087972  56.3800335  46.2296581  23.2597804  55.2953720
  34.7016954  15.6188703  27.1124005  33.7991405  15.9243655  27.0213079
  34.7258568  15.1957119  27.9706454  63.7028742  13.5895038  49.8005486
  63.9325905  14.3353772  50.3547478  64.4969749  13.0556107  49.7762585
  33.3319540  39.9446953   4.7264093  33.2507212  39.8720464   5.6773848
  34.2721780  40.0373902   4.5727247  68.8541062  26.0592495   3.3435864
  68.5751136  26.6992055   3.9984507  68.2637866  25.3161310   3.4682030
  76.4896949  68.9450913  32.1280622  77.2529586  69.4136464  31.7902493
  75.8007367  69.6082776  32.1699309  10.1039998  50.3581833   8.6940998
  10.9790055  50.3490673   8.3061451  10.0470893  49.5331465   9.1760820
  14.4618956  52.4357556   6.9285006  14.0416161  52.7102302   7.7435202
  15.1446978  53.0897270   6.7790598   6.6690747  43.2535516  20.8817095
   7.0838038  42.7903687  21.6095060   7.3923842  43.6919449  20.4335302
  66.7219682  12.9356949  63.9720249  66.9847663  13.8539403  63.9088106
  67.5050493  12.4447625  63.7230158  29.8574941  66.1761760  57.6184130
  29.0807883  66.6121267  57.9689932  30.2223222  66.8027978  56.9935322
  54.8483045  50.1627003  16.9609827  55.3157385  49.4542144  16.5185064
  54.0469892  50.2767502  16.4499945  21.6437928  60.5986982  22.4921012
  21.2933128  61.4107173  22.8581882  20.8691518  60.0818317  22.2707057
  18.7315147  70.2972086  48.6984015  18.6494367  70.8653145  49.4644022
  17.9460876  70.4769387  48.1816483  74.7284539  46.3230263  15.2186483
  75.3947623  46.9935315  15.3692812  75.0038464  45.5852060  15.7627195
   1.1760489  61.3886260  24.8783583   1.4641635  60.5817531  25.3051847
   1.9689147  61.9207905  24.8120493  42.3547935  28.2948208  59.3818998
  42.0606709  29.1924524  59.5367575  43.3088970  28.3414936  59.4430447
  78.7664063  47.4721401  28.1952471  78.6467393  48.1768988  28.8318247
  77.8912766  47.3206960  27.8382486  60.9373553  24.5972811  11.0011763
  61.5461905  24.8394643  10.3033966  60.0907071  24.5146500  10.5623287
  39.7588889  65.0324772   1.7014736  39.6206729  65.9540270   1.4826721
  40.4443042  65.0451134   2.3695129  29.9092464  65.2298854  15.3720755
  30.7573102  65.3310989  14.9398989  29.6073695  64.3611549  15.1067251
  22.2037570  57.9310511  23.4503836  22.0835845  58.8765286  23.5390753
  21.3235394  57.5919508  23.2877249  69.4959243  50.2681850   4.6596331
  69.3865474  50.0572883   5.5868811  70.2259047  49.7190534   4.3735975
  42.7645881  60.9374140  18.8567537  43.3922298  60.2716802  18.5755056
  43.0998679  61.2415932  19.7001356  56.2808323  22.8058910  53.0218315
  56.8845940  23.3424616  53.5354376  55.4892349  23.3390880  52.9489708
  68.8884719  25.6719111  41.0523981  68.6813577  25.3604947  41.9335073
  68.0389960  25.7396601  40.6164736  76.4202850  75.2111029  54.1319323
  75.6843059  75.5214325  54.6594334  76.4715736  74.2739965  54.3201685
  10.5722892  17.8293812  62.0881796  10.7357359  18.2263553  61.2326527
  11.2458575  17.1544218  62.1716499  33.9804983  11.4382493  49.3296289
  33.7147260  11.7175734  50.2057457  33.5255170  12.0382202  48.7386465
  18.0186689  32.9008460  31.6053581  17.6101577  32.3576236  30.9313703
  18.8161826  32.4279737  31.8432570  49.4575500  14.8246694  49.5984173
  49.6981001  14.2682636  48.8576221  48.5679340  14.5523882  49.8235369
   0.7979409  32.2181110  25.5131334   0.0301329  32.5335525  25.0364775
   1.1302249  31.4954482  24.9806112  17.2193734  68.8353776  10.7799524
  16.8658368  67.9528426  10.8911795  17.9386441  68.7285684  10.1574797
  28.3529918  73.6286429  59.2284536  28.7824742  73.8057651  58.3915520
  27.4393003  73.8757225  59.0858030  21.3071942  22.6935172  64.7875452
  21.1508512  22.8832102  63.8624477  22.0057201  23.2968712  65.0410318
  64.8846753  30.2378027   1.4352697  65.6092604  29.8107796   0.9782595
  64.1750820  29.5958065   1.4117426   7.7372329  42.0367013  14.6829933
   7.8834931  41.0923477  14.7380966   8.4925334  42.3681100  14.1972822
  75.2590761  11.4829516  25.9693623  74.4649330  10.9700584  26.1193943
  75.8078394  10.9204078  25.4228854  34.3168783   9.5219129  29.7466040
  34.4931722  10.4151130  29.4510603  33.4842253   9.2929560  29.3336844
  31.1127059  56.8959265  60.4550123  31.4558236  56.0931330  60.0625563
  30.5798642  57.2911017  59.7649765  11.0640804  68.6006414  50.1346350
  11.9994180  68.7116890  49.9642086  10.6794493  69.4512766  49.9231815
  34.0304852  23.1364489  63.2667017  33.8633800  22.5989294  64.0408993
  33.1602407  23.3389282  62.9233170   9.2227404  64.9128704  63.2953548
   8.5409300  65.1058416  63.9388847   8.7552135  64.8506146  62.4624252
  23.3522241  68.4092384  44.8850775  23.1103580  67.6804649  44.3135643
  23.3952777  69.1669600  44.3017769  49.6443494  41.9783671   6.1571497
  50.4284246  42.3568033   6.5549463  49.8254807  41.9852378   5.2172703
  27.5173633  35.0806843  21.5435022  28.3893935  34.8517250  21.2219805
  27.5242392  36.0364972  21.5945524  65.0542736   2.0572424  42.3551846
  65.6061411   2.7465099  41.9856071  64.3220758   1.9827180  41.7431688
  16.5932667  17.0559120  64.5887041  17.5277853  17.2567880  64.5381451
  16.1875129  17.8742790  64.8748350  54.6363862  64.2922019   0.7038063
  54.2377956  64.0005516  -0.1161295  55.5553563  64.0353225   0.6280512
  11.5444772  19.7864185   9.3109936  10.6325738  20.0421237   9.4498390
  11.6135041  19.6489988   8.3662266  31.3772361  63.7479084  63.8861990
  31.7507522  64.2137818  63.1380844  32.1348064  63.3836525  64.3440580
  64.3293794  30.6937258  21.7527098  64.9302776  31.1108999  22.3700613
  63.5345204  30.5354314  22.2620005  18.5862947  18.1468618  59.6759796
  18.8690484  17.5895548  60.4010248  19.3996859  18.4919560  59.3078279
  11.1966483  54.4629274  31.2419790  11.5010039  55.0482331  30.5484194
  10.8828132  53.6860369  30.7791800  66.4988001  49.2201756  19.3054670
  66.2539203  48.4198974  18.8409037  67.0824273  48.9228700  20.0034803
  27.2397971  13.6080778  37.0501328  27.1102834  14.2971301  37.7017951
  27.4792314  14.0765941  36.2505102   7.1404235  72.1639090  31.4543700
   6.8970148  73.0241602  31.1123896   6.3094489  71.6968368  31.5412998
  58.7775524  68.7108992   2.0843739  58.6480816  69.1767810   1.2582869
  59.1893323  69.3548726   2.6605410  68.8193639  49.3101357  21.4342302
  68.8642390  50.2077924  21.7635149  69.6659787  48.9277564  21.6650099
  33.5793757  15.3940308  50.3439188  33.0917358  15.3985119  51.1675787
  33.3815908  16.2408340  49.9438715  65.2231319  32.0608960  11.7860979
  64.7745045  32.8096984  12.1788591  65.1007183  32.1756791  10.8437199
  18.6591625  52.1732759  55.3521299  18.3212936  51.5585613  56.0034418
  19.5206904  52.4250698  55.6847000  45.3759606  46.0080074  13.8642115
  46.1216123  46.5042363  13.5265869  45.2556618  46.3336812  14.7562307
  70.1069911  35.8094312  12.5902885  70.5106004  34.9611776  12.7741379
  69.5152743  35.9580203  13.3278698  46.7698319  49.2292200   1.6392321
  46.9690497  48.3111130   1.4558643  46.0905619  49.1969977   2.3128695
  48.9170453  30.3182751   8.9466614  48.7401721  30.6113201   9.8405689
  48.6226818  31.0426289   8.3944887   7.4272553  39.1584063  54.5205778
   8.2364575  39.6550925  54.6419329   7.1736352  38.8939668  55.4048723
  39.3793125  36.0413750   2.8704065  40.2385254  36.2147559   2.4857945
  38.8627978  36.8203081   2.6637453  77.7965768  64.3973325  11.3488430
  77.4411662  63.9493965  10.5812019  77.2950824  64.0461110  12.0846266
  13.3326066  13.0984890  50.8357477  13.3218491  12.9028928  51.7726898
  14.0890241  12.6179183  50.4994154  11.1951558  32.4314754  15.6506533
  11.6036145  33.2442497  15.9486288  10.6908624  32.1263294  16.4048380
  26.6744487  54.2727726  54.3209839  26.7998521  53.8674443  53.4629536
  26.1254708  55.0373047  54.1467857   5.2085432  26.9673944  62.2806358
   5.5510172  27.1990991  61.4173555   4.8054060  26.1082697  62.1556854
  79.8429819  15.6575823  40.7324839  79.7202318  16.3747501  41.3544416
  79.2213247  14.9866951  41.0147667  77.8113079  22.1540451  57.9410505
  78.2954311  21.7034030  58.6329889  78.3002853  22.9638672  57.7950239
  62.8991373  45.1789837   6.6156763  62.0795400  45.5428140   6.2808365
  63.5049470  45.9200482   6.6227335  71.2535191  17.6143873  43.2711887
  70.9294415  18.4587467  42.9577160  71.6926670  17.2297883  42.5125933
  23.7740199  64.9360036   1.0432524  23.8527028  65.7964705   1.4551205
  23.3024756  64.4053434   1.6853374  63.9363678  60.4163604  59.0290737
  63.0483981  60.6757729  59.2749357  64.3584724  60.1915972  59.8582554
  65.0530441  48.6702000   9.0857929  65.9585316  48.4323834   9.2852205
  65.0513728  49.6273981   9.0852446  65.2512629  68.7016009   1.2192673
  65.0798590  68.6062835   2.1561569  65.5913384  67.8483366   0.9499687
  32.4892783  25.6037354  51.2840986  32.5473690  25.1004624  52.0962381
  31.5511727  25.7445264  51.1561537  36.1923885  30.0068188  55.7319736
  35.7577419  29.2934585  56.1993408  35.6605601  30.7788563  55.9252357
  12.8020374  67.9344427  59.8915386  12.6040117  68.6460452  59.2827368
  12.1700542  68.0442350  60.6020117  62.2503853  47.0638514   9.5987117
  63.0746317  46.6366100   9.8317587  62.5153255  47.8718615   9.1592216
  72.5355244  16.1361909  59.6436548  71.7532063  15.6698155  59.3492126
  72.2201872  16.7225158  60.3314209  67.1889305  30.9609532  57.7407789
  67.5521851  30.0849366  57.6108885  66.4312458  30.8241510  58.3094883
  49.0723379  45.4133539   3.6306805  49.7418292  44.9422525   3.1346172
  48.3449347  44.7948723   3.6984867   5.6016302   2.2063309  35.6834406
   5.6850481   1.8270117  34.8085779   6.0161423   1.5666133  36.2623781
  42.4857998  15.7976019  38.2312942  42.9692030  16.5947568  38.0142808
  42.3529005  15.8482838  39.1778684  66.2293179  59.7139071  19.5915407
  65.8002169  59.7884487  20.4439157  66.5106685  58.8002204  19.5441145
   2.0323626  57.7583932   8.2222313   1.5872924  57.0360397   7.7791208
   2.0399110  57.5049268   9.1452354   6.2458865  49.3638562   7.8717560
   6.4789788  49.7037600   7.0078320   5.2996985  49.2259656   7.8275866
  46.4881706  15.7565629  39.9164796  46.7378139  15.6856048  38.9951348
  46.0900640  14.9108291  40.1225805  71.6669209  53.1817602  10.1999372
  72.4667914  52.7011369   9.9867672  71.9515975  53.8616990  10.8105701
  79.6243364  49.7201061  62.4436045  80.2650151  49.9385500  61.7668152
  78.7973118  50.0702715  62.1124744  69.3929990  45.7424228  12.8387112
  69.6633561  44.8446624  13.0314917  69.9276717  45.9973459  12.0868010
  70.9980574  14.4967514  27.0635218  71.6588596  15.1689344  26.8969625
  71.4789107  13.7894922  27.4934000  36.7697692  35.7317591  64.2756796
  36.6457248  36.4198232  64.9294472  37.7169132  35.6964278  64.1418934
  18.3588970  28.6076164  65.1039982  17.6779461  29.2790580  65.1452637
  17.9992485  27.9371238  64.5232010  68.6306973  67.8972809  48.8156843
  69.1192647  67.8599523  47.9934072  67.7135571  67.8188776  48.5531235
  61.4190387   0.4970199  19.8598475  61.5390205   0.8751040  20.7309908
  61.0886287  -0.3859586  20.0254053  65.3007539  74.9107073  17.0012659
  65.2372725  75.0811885  16.0615152  66.2410720  74.9012445  17.1799845
  52.3048115  45.4436302  62.8839016  53.0283928  46.0698938  62.8626728
  52.3281717  45.0805759  63.7692738  75.1902969  66.7854338  53.8504791
  74.8863896  66.6714769  54.7509718  74.7484882  66.0928892  53.3591366
   0.6143539  74.6412266  12.4097550   0.1181333  74.5185386  11.6004682
   0.5928485  73.7844941  12.8361106   8.1773536  61.8201374  47.9052443
   7.3605124  62.0617460  47.4686331   8.3096043  60.9007214  47.6741308
  64.5541485  69.4204305   4.1198582  64.3962486  70.2965473   4.4715876
  64.1723879  68.8294028   4.7688383   3.5114829  22.4224715  15.0293530
   2.8903834  22.4976878  15.7537926   3.0006091  22.0431666  14.3142593
  68.3718160  23.4774595  15.9256166  68.6741439  23.7231308  15.0512785
  68.1692281  22.5445658  15.8556551  73.3387025  40.9883721  32.4591917
  72.5948508  41.0103245  31.8571657  72.9416116  40.9449299  33.3290571
   5.2413527  60.1805781  11.8470758   4.3291871  59.9419259  12.0121092
   5.2946917  61.1050199  12.0895523  67.8958066  40.0030023  22.9302114
  68.5048325  40.6278707  22.5366873  68.3630975  39.6605210  23.6921686
  18.5358143  11.8675667   3.5395044  19.1422558  11.5305096   2.8800673
  18.6700344  11.3017374   4.2998070   6.3022391  68.2534860   1.3488573
   6.7209164  67.4108170   1.5244955   6.3225190  68.3369230   0.3955168
  62.6210792  65.0258373   6.4424366  63.3089907  65.5108784   5.9866470
  62.8816088  64.1082762   6.3621992   4.1407704  26.3943267  58.5462475
   4.1052639  25.6025553  59.0829659   4.2626488  26.0728526  57.6529217
  31.2579982  58.8254808  10.2916473  32.1867625  58.5949348  10.3132290
  30.8149306  58.0713914  10.6805843  43.2104206  23.0075979  61.4879322
  43.6033487  23.6936259  60.9483004  42.9592037  23.4535503  62.2967911
  36.7327452  11.2345850  32.6179218  37.1215415  11.9717634  33.0887079
  37.4674797  10.8314013  32.1554947  60.5007887  41.6373396  52.5375652
  60.8868504  42.1249580  51.8099594  60.8572197  40.7533693  52.4493647
  60.8465195   2.2339089  62.6516056  60.7873249   3.1852278  62.7394676
  60.1106119   1.9993448  62.0862246  78.0007775  40.6071495  14.3607706
  77.1189959  40.7490771  14.0164513  77.9067834  40.7062788  15.3081793
  62.9772885  57.6187323  14.4165176  62.1581848  57.1298526  14.4958872
  62.7342303  58.5253643  14.6040577  28.5427809  17.8340554  56.1335230
  27.6608610  18.1244624  55.9008980  28.9988160  18.6354220  56.3905716
  55.3182800  69.8295067   6.1684507  55.4752596  69.0195821   6.6538471
  55.4659493  70.5251669   6.8091387  58.0956514  66.4307593   9.9502510
  58.2445677  65.4878329  10.0205750  57.7729876  66.6873644  10.8141226
  78.5715914  54.1678476  55.2701950  79.3311071  53.6021471  55.1310873
  78.5266018  54.2791986  56.2198305   4.2271582  70.6421088  10.0054592
   3.7915246  70.6150769   9.1535658   4.5829503  71.5287636  10.0645012
  64.7045191  49.7950457  12.9652542  63.9225228  49.3671440  13.3139843
  64.3949302  50.2661370  12.1916527  44.8440790   0.7389567  48.6631203
  45.1753092   0.7769272  47.7658606  43.9017153   0.6027572  48.5649872
  11.3440291  40.8749695   1.3781923  11.0302035  41.5262409   0.7508224
  10.8740775  40.0737718   1.1469835  38.4564109  69.4656347  15.1121801
  38.3047815  69.9704026  15.9112162  37.9495831  68.6631297  15.2360434
  14.6490416   3.5330078  25.6573963  15.0907930   3.9449695  26.3999391
  13.7228045   3.5344532  25.8988833  11.3257658  53.8437557  24.1374016
  11.4573121  54.0512276  23.2122612  11.7496169  52.9935837  24.2548203
  34.6621919  31.5509772  52.5894642  34.0248585  31.0791874  52.0533228
  34.3836761  31.3888907  53.4907913  37.1597695  19.4565499  59.9188709
  36.4094877  19.3997228  59.3271971  37.0314407  20.2798319  60.3900051
  65.7779785  61.4645498  56.9086456  65.4579039  60.6963377  56.4357471
  65.0533112  61.7111354  57.4833488  23.6154668  69.1997670  17.1984762
  24.0409247  68.6243104  16.5628141  22.7109687  69.2672943  16.8926233
   5.2832906  58.7823056  29.7805590   5.0170962  58.0751227  29.1929621
   6.1362521  58.5065530  30.1161856  59.3201447  48.7079096  61.2880230
  58.6327600  48.8357782  61.9417715  59.6627522  49.5868254  61.1256695
  30.6037426  22.5301337  43.6265087  30.7634258  21.9875526  44.3987370
  29.9419451  23.1610274  43.9097500  53.2434471  72.0597027   3.3014196
  53.4338982  71.4825128   2.5619501  54.0356167  72.5871752   3.4037584
  40.2429581  14.6177089  36.2196350  40.4796219  15.5427122  36.1518955
  39.2857742  14.6144044  36.2147808  21.3596439  29.7364670  36.0183519
  21.1124849  30.6458956  35.8507914  20.5951166  29.3563133  36.4510340
  43.5667467   3.2926461  54.2839861  44.1961336   2.8119898  53.7463284
  42.9003000   3.5898787  53.6645269  29.7546969  67.0115183  45.2835459
  29.3908335  66.7010544  44.4544214  30.6679635  66.7253660  45.2664083
  71.6403945  72.4311419  62.8505754  71.9133146  72.4964716  61.9354391
  70.7129605  72.1981739  62.8078794   7.7448003  43.7752418  33.1612009
   7.4631898  42.9903953  32.6911539   6.9678656  44.0568452  33.6442179
  62.1202596  60.8014606  19.1806311  62.9464634  61.1135911  18.8115877
  61.8984707  60.0327419  18.6551661  52.7623232  65.8192323  12.9886621
  52.9115494  66.2924598  13.8072104  52.0726950  65.1894306  13.1984133
  13.1743805  74.6218399  26.7721510  13.3337562  74.8223450  25.8498573
  13.7588947  75.2104978  27.2497058  50.3227854  18.0963850  63.2446289
  51.0048676  18.0008280  63.9093542  50.4743099  17.3700881  62.6398420
  59.7305202  28.7837458  37.4004793  59.3898058  28.8137054  36.5064716
  58.9513540  28.8220620  37.9551530   0.3009002  24.1102456  37.8295797
   0.3468577  23.1570052  37.9034227   0.5055301  24.4287215  38.7087530
  28.4807849   4.9022779  49.1546822  27.7178168   4.8550996  49.7307777
  29.1694045   5.2827954  49.6998787  11.4276759  56.8408381  11.6522068
  10.6753985  57.2821091  12.0466608  11.0562007  56.3325153  10.9312052
  19.6181981  55.0899349  12.2525305  19.7294776  56.0120152  12.0209736
  18.8662068  54.8020791  11.7349619  67.3554516   8.1624663  49.6137524
  68.1381893   7.6797771  49.3481064  66.7351389   7.4843121  49.8812389
   5.5350463  53.4905707   9.1957897   6.3632028  53.0293010   9.0630764
   4.9185912  53.0488549   8.6117500   7.5701014  56.3437377   5.9069771
   7.4018256  56.4404296   6.8442959   7.0433490  57.0298265   5.4970449
  32.1445274  17.3567426  41.5258551  32.2396898  17.8188562  40.6930161
  33.0104804  16.9850814  41.6938543  10.9510207   0.3645974  35.4206652
  11.2160802   1.2674218  35.2449316  11.7186522  -0.0351137  35.8295721
  41.4858961  19.9957311  62.8512764  41.2955523  20.6113625  63.5590887
  42.3835373  20.2012205  62.5900364  49.0952301  32.1788287  62.1437454
  48.5305500  32.0158505  61.3882256  48.5343885  32.0144868  62.9018211
  78.9578660  58.2816528  27.8695101  79.6862300  58.2527422  27.2491163
  78.5433276  57.4223255  27.7924055  28.3287334  22.8276229  63.0032921
  27.8486204  22.0138216  62.8501511  27.7860379  23.3125043  63.6250639
  76.4147218  40.0814228   0.8387226  76.4174826  39.2446852   0.3738636
  75.5618413  40.1117803   1.2722010  41.9880247  43.5140276  56.4970922
  42.6672792  44.0276384  56.9341803  41.2159348  43.6149883  57.0537996
  11.2734651   0.8442431   6.4027637  12.0520687   0.8352929   5.8460468
  11.5260172   0.3395468   7.1758932  59.9339302  15.3783582  10.1165384
  60.7283051  15.4859351   9.5934433  59.2259915  15.3461074   9.4730991
  60.9354074  59.0031742  17.4073500  61.7326172  58.4807442  17.3192781
  60.9015115  59.5253943  16.6058725  41.9574451  28.0371523  56.6647863
  42.5271130  28.7832594  56.4776134  41.9798660  27.9518652  57.6179123
  23.4310150  25.0305963  63.7407494  22.8992844  24.3327451  63.3580017
  22.9059458  25.8225513  63.6252356   7.4243514  37.7030591  30.2398771
   7.1588342  38.6065766  30.4113096   7.4232356  37.6300817  29.2854589
  19.6362066  17.9209238   2.0843309  18.9656543  17.7032858   2.7318043
  20.3928947  18.1909376   2.6046700  76.7917538  19.3548238  63.3470345
  77.6516771  19.7532296  63.2127333  76.9188833  18.4314942  63.1290150
  62.8632641  17.2319269  50.3302813  63.6945391  16.7890716  50.5008554
  62.2010517  16.5500247  50.4430437  31.2275600   5.3600079  18.4364218
  30.3984451   5.7303148  18.1336397  30.9725523   4.6159130  18.9818758
   4.8948924  55.8748053   4.2929453   5.5136220  56.6039060   4.2503494
   4.0403144  56.2919532   4.4021124  75.6126896   0.5983120   2.4975580
  75.9628835  -0.2881617   2.4094624  75.3166810   0.8275395   1.6166109
  55.7651050  19.4079863  14.4757074  56.4482839  19.7721575  13.9127869
  55.8773930  19.8602317  15.3118223  67.7601460  20.9312969   2.4050707
  68.1228629  20.8700520   1.5213770  68.5118499  20.7973391   2.9823298
  64.9133284  40.5503233  18.7047953  63.9962323  40.4303841  18.9513392
  65.4016288  40.3865411  19.5116228  67.2051588   7.8504854  41.7371655
  67.4390582   6.9320536  41.6029787  66.6551081   8.0698973  40.9851456
  79.5241419  13.2216698  15.3214926  79.2938176  13.2023531  14.3926138
  80.3840128  12.8032595  15.3637880  73.7903753  25.1833826   3.5214037
  73.8330737  25.3182846   4.4680876  72.8745177  25.3480440   3.2970757
  47.2268820  41.6717243  50.7659292  47.3131704  40.7439041  50.5469847
  47.5471973  41.7363024  51.6656303  43.4711885  16.5212929  58.4435415
  44.0430880  17.2860956  58.5086489  42.6428509  16.8082190  58.8279390
  75.3802569  59.8962473  11.1143202  76.1630137  59.6515511  11.6079277
  75.1804526  59.1246890  10.5842203  49.4569738  60.4392193  17.4268526
  49.5055707  61.1036061  18.1142134  50.2007969  59.8618268  17.5988287
  66.4799650  60.4809426   3.6617750  67.2993071  60.3036951   3.1997198
  66.3126858  61.4102529   3.5048336  39.9254759  65.0859307  12.2396559
  40.6731375  65.4052900  12.7448696  40.3150947  64.6852659  11.4625448
  70.4994841  59.0007715  59.4961643  70.9010776  58.2727974  59.9705172
  69.8492392  59.3529956  60.1039076  77.2614272  63.9475106  14.4065660
  76.3046105  63.9291857  14.4265551  77.5083573  64.4274186  15.1971048
  33.6271717  45.5939363   9.4359392  33.9550175  44.6966992   9.4968790
  32.9932649  45.5691461   8.7191528  75.3800821  13.0461419  58.6076880
  74.4884777  12.8027248  58.3586407  75.9365511  12.6096416  57.9626751
  20.0781791  27.4356984   2.0600409  19.8857848  28.0763351   1.3753551
  19.2949645  27.4307130   2.6102966  44.6931410  17.6283336  52.4571466
  43.9254856  17.8165472  52.9970741  44.9054003  18.4646773  52.0427704
  65.7967456  29.2221861  30.5418962  64.8799308  28.9901214  30.6896395
  65.8261783  30.1711844  30.6634134  71.2143469   6.9355661  51.3490534
  71.8710327   7.1233249  52.0196819  70.4790878   6.5589947  51.8326044
  53.7963581  14.8000723  11.7637390  54.1850471  14.0930849  12.2788328
  53.3912134  15.3747898  12.4131912  71.0510245   0.7505637   5.5980104
  70.5870977   1.2331968   6.2821669  71.0640088  -0.1542634   5.9100193
  57.3678668  51.2554668  19.7698492  56.5735085  51.4029406  19.2565435
  57.6675303  52.1336006  20.0050348  60.1033449  16.0112858  28.1027174
  60.2100849  16.0278356  27.1516299  59.2808819  16.4751768  28.2595372
  76.1890633  59.0824674   2.7848953  75.5309613  58.8254689   2.1390766
  77.0111115  59.1009306   2.2948593   8.7902808  10.2020222   3.8008684
   8.4736705   9.3219381   4.0044350   8.4284377  10.3925138   2.9354137
  36.0555506  31.9705296  61.8790817  36.2359285  31.7299604  60.9703350
  36.7593431  32.5765800  62.1106243  37.6726365  22.0066142  54.6698523
  38.2428002  22.3063898  55.3778648  37.4581790  21.1029315  54.9013710
  50.6310368  30.0694561  51.7595911  50.1870012  30.1787853  52.6004934
  50.1562405  30.6463146  51.1612368  17.6623499  30.0066972  60.5915546
  16.8105459  29.5870185  60.7120943  17.4540031  30.8821774  60.2654266
  66.8524535  72.8570627  38.4495539  67.4461682  72.7561711  39.1935724
  65.9769566  72.8031300  38.8327402  14.9794786  73.0356041  19.3536150
  14.2603223  72.4170517  19.2254186  14.6296422  73.6869941  19.9615109
  56.6492112  56.0286759  12.7652115  56.2911041  56.9086217  12.8822035
  55.8796532  55.4680728  12.6665348   1.5828895  20.9470087   5.1122469
   1.7005205  21.8276459   5.4684490   1.8804145  21.0139280   4.2049259
  44.1026354   8.2318455  11.9887394  44.0693378   8.8183027  11.2329668
  43.1847858   8.0681807  12.2055239  60.0868892   0.7199675  11.9692463
  60.3686428  -0.1945871  11.9901890  59.8130703   0.9068542  12.8672022
  71.1841138  66.3355016  54.2819881  70.9244497  65.4565107  54.5579958
  72.1032329  66.2457429  54.0301991   6.0443465  58.4468435   4.6102470
   6.6407124  59.1007112   4.9749846   5.8009498  58.7963770   3.7530321
  77.4968894  39.4844520  34.8857588  77.7438720  38.6616635  34.4635576
  77.8755982  40.1633482  34.3272585  48.0791330  24.0286517  49.4837570
  48.0429459  23.0925035  49.6800995  48.3089495  24.0699720  48.5554743
  75.7837231  41.8836059  29.3996424  76.2079366  41.0909231  29.7281641
  75.3148349  41.5970685  28.6158842  54.2171860  22.6487660  61.1317682
  54.2416096  22.9690719  60.2300787  54.1654539  21.6967797  61.0464525
  12.7413575  53.5913728  19.7553057  13.4408872  54.0104006  19.2539972
  13.0436913  52.6921807  19.8829073  45.2687216  26.9145370  52.2903013
  45.3885603  27.8619194  52.3561430  46.1110687  26.5879679  51.9740200
  64.4663461  59.1896551  45.6450510  64.5303209  58.4052067  45.1002789
  63.7614508  58.9954131  46.2628078  12.1542486  50.0668383  62.9748964
  11.4436277  50.5713320  62.5790167  11.7558893  49.6514559  63.7397480
  69.6209891  43.2413177  24.3752855  69.0677436  43.9836250  24.6184534
  70.0664504  42.9985689  25.1869959  59.1945267   6.9945323  47.9683352
  59.9278545   7.4832338  47.5946665  59.3266916   7.0507008  48.9146996
  60.5645330  61.6294693   8.5271830  60.1808174  62.4049567   8.1177753
  60.3682406  60.9160970   7.9198927  13.7033284  60.1621151  64.4935322
  12.7737963  60.3751230  64.5761633  14.1503048  60.8394003  65.0012016
  56.3964796  37.3802829  51.6057873  55.6854296  37.2626758  50.9758615
  55.9758759  37.7715230  52.3714638  53.6668618  21.7999219  11.4744801
  54.0653093  22.6700519  11.4930862  53.4138067  21.6329096  12.3823923
  35.4096623  24.1266035   6.8144602  34.4608046  24.2485546   6.7823881
  35.6936421  24.6527957   7.5619263  15.5626647  58.9650487  17.2415918
  15.4887263  58.0223726  17.3903555  14.7159163  59.3178223  17.5150961
  38.9759700  23.6823879   0.0652737  38.0299441  23.7459265   0.1965612
  39.3538062  24.0351270   0.8709091  24.1444984  42.9193853   1.5454048
  23.2089971  43.1220220   1.5426678  24.5211129  43.5351770   2.1740479
  23.6606645  10.4223448  11.4576572  24.3034982   9.8904949  11.9268364
  23.9276886  10.3667456  10.5401367  41.1830425   9.2055506  49.7369003
  40.5601645   8.4940368  49.5885515  42.0075798   8.8815159  49.3744564
  35.3037953   7.0257354  49.6565199  34.7999525   7.7673334  49.3212509
  34.8925757   6.2578231  49.2597342  30.1877356  24.8540688  48.4292793
  30.9615827  25.3360772  48.1376314  30.0788045  25.1078653  49.3457699
  48.2337761  12.7343166  38.2864928  48.9190483  12.1271122  38.0073214
  48.1647396  12.5994337  39.2316246  22.8097741  64.6315770  61.5215397
  22.8362624  65.0801151  62.3667288  23.3361451  65.1819806  60.9416914
  19.6689332  31.2577248   9.5624918  18.9913082  31.4265895   8.9078617
  19.3450904  30.5022740  10.0530517  20.2918696  13.7706411  50.4054976
  19.4437838  13.5365212  50.7825565  20.8993673  13.7395251  51.1445570
  42.4900214  64.1404341  25.1451582  41.9514243  63.3588408  25.2686495
  43.3246867  63.9242815  25.5609125  43.1773281  22.6579094  49.1527271
  42.4707460  22.0793891  49.4395828  43.8539457  22.5599909  49.8226738
  24.8457861   9.6982103  21.4975733  24.0840625   9.6485382  20.9200377
  25.5565119   9.9989038  20.9312815  14.6496057   4.1364771   6.7369932
  14.7637605   4.5670944   5.8897823  13.7016630   4.1122299   6.8675465
  53.7987264  42.9895704  10.0779146  53.3398183  42.9845135  10.9179205
  54.1143234  43.8882284   9.9828142   2.6684984  15.8589101  56.1675978
   2.3486837  15.8262885  55.2659941   2.6020178  14.9559259  56.4781332
  56.0454607  32.3555207  52.7662516  55.5012035  32.0484447  52.0411873
  56.8732309  32.6050234  52.3554230  30.9142160   1.9628077  23.7936586
  30.9932422   1.6094786  24.6797461  30.6630611   2.8775030  23.9220613
  63.5566092  14.0367162  30.8923793  64.2741156  13.9848852  30.2609253
  63.8111258  14.7425711  31.4867067  33.0880213  20.2200913  47.4410009
  34.0237808  20.2239060  47.2395802  32.9035473  21.1107993  47.7390671
  43.5607433  30.5777144  57.0119524  44.3684340  30.4734612  56.5089607
  43.7926626  31.1854005  57.7142096   3.7789170  49.0251587  22.4472994
   4.4177119  48.3957564  22.7820009   3.5985581  48.7314712  21.5542978
  44.8952055   9.3814045  57.3332882  44.1432571   9.9636823  57.4417162
  45.6369114   9.8822939  57.6727247   1.4670960  36.6271337  12.7789349
   0.7880370  35.9943161  12.5451559   1.1668460  37.0064960  13.6048693
   5.6726169   3.3590322  49.8785776   6.2373733   4.0707212  50.1798719
   5.0656366   3.2115084  50.6038660  53.6276817  39.7388268  63.9761639
  54.0985298  39.7143650  63.1431389  52.9601431  39.0577364  63.8940668
  50.4935567  59.2789226  64.4844198  50.0868528  60.1155000  64.2586756
  51.3384883  59.2943351  64.0348721   1.8894498  56.1676286   0.6418318
   2.2120683  55.6211923  -0.0747972   2.6525943  56.6748546   0.9185356
  25.3228347  36.5183550   9.1120714  24.7176234  36.2570344   9.8060888
  26.1910788  36.3277157   9.4670958  51.2088871  13.5465086  55.9304523
  51.1945629  13.1470013  55.0607300  52.1303701  13.5253155  56.1886168
  73.7612596  50.2618986  13.2625288  73.6128703  49.3172842  13.2188028
  72.9022792  50.6299501  13.4697145   8.4716050  69.8396038   5.6724161
   7.8348224  70.4472684   5.2962774   8.0242125  69.4623564   6.4298862
  53.0177736  20.4818034  17.1967804  53.8564825  20.2176881  16.8185651
  53.1540251  21.3884068  17.4719882  16.0949611  54.5926004   6.8795580
  16.9130277  54.0965372   6.8493551  16.2732649  55.3119093   7.4853939
  75.8795054  49.9732398   0.9069103  75.9337790  49.5911728   0.0309462
  75.0183518  49.7088836   1.2305779  24.3074815  47.3808502  26.6729445
  24.7634761  48.2222162  26.6931242  23.4422557  47.5685619  27.0367807
  57.8245544  66.1373186  56.6246033  58.6383963  65.6786060  56.8331146
  57.3045588  65.4949999  56.1416340  45.4554224  13.0309749  47.9667568
  45.7869387  12.7017045  47.1313429  45.3893089  13.9776802  47.8418112
  12.7304904  75.1785968  16.3649172  11.8138663  74.9113320  16.2970633
  13.2231204  74.3593811  16.3155931  54.8803520  39.9867058  47.7033043
  55.4986000  39.2705584  47.8486919  54.4444656  39.7635698  46.8808460
   5.4627642  55.1943064  56.8598175   6.1485037  55.7810593  57.1787596
   5.1700911  55.5914927  56.0395622  67.1705802  74.0875910  13.9948505
  68.0534823  73.7507652  14.1473764  66.5917380  73.3858179  14.2926592
  18.9798848  66.8758582  23.1185049  18.1512086  66.5914892  22.7329439
  19.6307198  66.2731122  22.7588648   1.3241896  36.3119078  33.3257174
   1.6327509  37.0871282  32.8566194   1.0895952  35.6917810  32.6353288
  53.0802472  66.7951940  23.9863676  53.2623012  67.6767396  24.3118853
  53.5724337  66.2179302  24.5701021  49.5381450   0.3580719   7.5078053
  50.1953268   0.6367022   6.8700642  49.4366741  -0.5809731   7.3524612
  33.6397712  71.5820359   6.9934458  33.7165324  71.0389351   6.2089867
  34.0049426  72.4284004   6.7354769  73.6264880  46.2454896  21.2983316
  72.8972800  45.6304048  21.3768190  74.3778260  45.6982987  21.0696215
  13.2987182  73.0259525  56.6598129  13.6995570  73.4473053  57.4200916
  13.0354659  73.7521945  56.0945702  70.8194590  43.3291960  54.2440748
  70.9125614  44.2749977  54.3581963  70.3448343  43.2331514  53.4184027
  19.6387021  43.0476348  10.4603189  19.8398988  43.9528142  10.6978077
  18.7205283  42.9340218  10.7058519  45.8576154  16.5492636  19.9198812
  45.0177192  16.7199808  20.3460974  45.7744550  15.6605917  19.5740694
  45.8433676  34.8709011  57.3900986  45.7913208  35.8194590  57.2728014
  44.9673510  34.6170664  57.6806116   6.2083833  64.6356963  12.3671001
   5.6873958  64.6358870  11.5641016   6.8366782  65.3474568  12.2451347
  57.1650656  69.5116399  10.0860781  57.5820191  68.8506244   9.5334143
  56.2480314  69.2412280  10.1324839  39.3526793  30.5363536  62.0634794
  39.6412086  31.4408755  61.9417334  38.8901854  30.3213930  61.2534666
  70.2680238  56.2521778  14.1465992  69.4970353  55.6861197  14.1093487
  70.7100232  56.1102580  13.3095068  52.3681450  37.4681091  62.9393911
  52.2717094  37.1619654  62.0376110  52.9344511  36.8172550  63.3540201
  64.0953763  69.4644283  12.9928345  63.3068068  69.7930859  13.4245485
  63.7680371  68.9573287  12.2499126   6.5516123  30.9286356  33.0230927
   7.0098242  30.8431554  33.8591361   6.5207705  31.8717122  32.8622007
  32.6254511   7.6138669  51.0624599  33.1709981   7.9967821  50.3754473
  33.2473779   7.3345065  51.7343235  14.5096032  59.8916076  28.8080782
  14.0326754  59.5284818  29.5543474  14.2851130  59.3157314  28.0771917
  69.5358467  57.1398067  61.8940544  69.1270018  56.5423393  62.5202417
  69.7103167  57.9337883  62.3994160   9.6437454  10.6912237  22.9960054
  10.0669288  10.0629717  22.4108213   8.7150478  10.4618174  22.9624647
  66.7381239  34.4929409  41.3084221  66.1305523  34.7749400  41.9922113
  67.0297575  35.3064132  40.8967876  46.2756093  68.6025308   4.8692173
  45.4414208  68.8843273   5.2446550  46.7499883  69.4168042   4.7014183
   6.7744701  72.4564718  41.0560322   6.5732472  71.6886338  41.5909815
   6.9618861  73.1480876  41.6906786  13.2382616  26.1983395  59.3761730
  12.9735598  26.8714833  60.0031042  12.8740343  25.3863192  59.7285748
   8.6263799  36.9222313  15.7399363   8.5624098  36.0443264  15.3638739
   9.3482971  36.8627315  16.3656611  66.4795828  25.3372931  55.8895636
  67.0078754  25.5685782  56.6535330  65.5833721  25.2924919  56.2227774
   4.4469008  49.4821835  49.3350124   3.9941248  48.8227749  49.8607540
   4.2278036  50.3144169  49.7540712  79.9555698  20.9755808  14.5386166
  79.7229806  21.5941530  15.2310747  79.1197553  20.5991083  14.2630953
  34.2986266  70.1412963  47.0987600  33.8405768  70.0202583  47.9304785
  35.1929633  69.8479532  47.2729582  10.8665359  42.0570946  52.2711468
  11.4020598  41.4917898  51.7144775  10.0659645  41.5548086  52.4229050
  18.3562517   0.6926161   2.5917763  19.2591572   0.3965431   2.7072233
  18.0629396   0.9168392   3.4749073  62.4803162  49.6161890  54.6797037
  62.6268196  50.1121330  55.4851913  62.3473024  48.7151384  54.9740553
  30.5266380  10.4411131   5.7108778  30.8291721  10.4642445   6.6187138
  30.5858230  11.3496643   5.4154676   1.7087015   8.2279336  64.0419340
   2.6309427   8.4232259  64.2079639   1.2901053   8.3016229  64.8995924
  34.8972385  59.6648543  64.6979332  35.6854932  59.1620343  64.9030113
  35.2162234  60.4181652  64.2009401  72.0923074  72.5928639   3.7204641
  72.9997619  72.4596213   3.9943308  71.7371447  71.7086123   3.6299652
  47.4427843   9.6614319  32.6605600  47.1419239  10.5639320  32.5547022
  47.7090406   9.6037870  33.5781759  54.2401154  56.2719403  28.9448446
  54.7331984  55.5097900  29.2485327  53.6128099  56.4464699  29.6464628
  19.3743436  59.2349981  22.1367640  19.0518443  58.7191771  21.3977427
  18.6891238  59.8850058  22.2923082  23.2885711  67.4132227  11.9821495
  22.7188794  67.7430533  11.2872452  22.9364268  67.7994226  12.7840704
  30.3269545  62.4766754  14.6591228  29.8789756  62.2556494  15.4756350
  29.6914737  62.2700785  13.9737696  63.6948872   4.2924538  58.3065224
  63.0748844   4.8239264  57.8071594  63.8989544   3.5567158  57.7292204
  69.5713663  44.2539644  61.9631529  69.7693777  44.6936607  61.1362934
  68.6178160  44.1705894  61.9677305  60.2971227  53.1307589   0.1999754
  60.0908525  53.5169624   1.0511679  59.4692500  53.1528245  -0.2799994
  60.4502924  56.9732987  14.8226303  59.6972902  56.7573284  15.3726954
  60.0975449  56.9993328  13.9331812  60.1289845  45.6639385  56.2298059
  60.1205969  45.6011295  57.1849060  59.3832350  45.1339579  55.9483624
  68.4159835  72.3273848   6.3410276  68.2620700  72.1927427   5.4059261
  68.3752473  73.2767581   6.4562077  61.4714146  32.1930027  62.1221161
  62.3714542  31.9038343  61.9719601  61.4336157  32.3812342  63.0598640
  35.2653742  11.1157852  11.5850109  35.1083898  11.5591150  12.4187082
  35.5058479  10.2223688  11.8303865  39.1793124  74.3123792  43.3217329
  39.2838637  74.4642209  44.2610163  39.7036712  74.9982642  42.9084105
  34.4409942   0.3311425   9.8903078  34.4805860   0.8990890  10.6597895
  35.2014065  -0.2436656   9.9774975  11.9338910  47.5632279  -0.2040869
  12.1927230  48.2182597   0.4441208  12.6378266  46.9149278  -0.1837307
  31.2618415  74.9264287   9.0073437  30.4772155  75.0678085   9.5370668
  31.2469546  73.9916371   8.8019794  10.2908468  10.5288082   1.4890379
   9.6418118   9.8344522   1.3756508  10.4156041  10.8859545   0.6097693
  49.1981172  18.5288959   5.7715267  50.1365900  18.4169346   5.6199926
  48.7870502  17.8429943   5.2454132  29.1827266  73.1851433  18.0967421
  29.7885100  72.5689362  18.5084909  28.4755389  72.6359008  17.7584261
  71.9205077  56.6575061   0.6119293  71.8988116  56.1810111   1.4418167
  72.3317893  56.0496698  -0.0025755  30.1474428  12.8257423  14.8024410
  29.9625492  13.6204535  14.3019575  29.2959594  12.5557953  15.1464457
  15.2261702  70.1703642   9.7418779  14.4866959  69.7008775  10.1278681
  15.9994714  69.7201370  10.0817770  73.3620644  49.8963833  58.9434147
  73.4915972  49.2936516  59.6756506  72.4472380  50.1684761  59.0161180
  66.6576147  65.5245590  50.3251743  66.7113018  65.4994202  51.2805367
  67.3129320  66.1721039  50.0654125  72.8228951  34.6158862  56.8753815
  72.5003242  34.4659042  55.9867382  73.4589195  35.3252006  56.7827845
  13.3725357   6.0204273  12.8347677  13.4837722   5.1919514  13.3011288
  13.1844020   5.7637268  11.9320244  20.3313398   5.6092173  19.6403402
  20.1298570   5.0669294  20.4029364  19.8313760   5.2136522  18.9263338
  46.7660284  41.1630583  59.1087818  45.9723234  41.3302660  58.6005354
  47.3698330  40.7606268  58.4845257   4.4082293  22.6799273  64.4845867
   5.2874216  23.0568767  64.4505692   4.4627413  22.0057130  65.1618576
  63.8186216  47.6246214  46.2246943  62.9974842  47.9874802  46.5567970
  64.4324493  48.3586502  46.2500763  14.3638818  58.7146948  35.3711885
  14.0708129  59.3272685  36.0457987  14.7355382  57.9802345  35.8597273
  73.3246930  70.7248233  21.3941473  72.6262982  70.7218097  20.7395739
  73.9246400  71.4107035  21.1011213  70.5256875  62.8677152   3.3368439
  69.9425872  63.1321620   4.0483850  71.3772805  63.2330583   3.5767263
  78.3974162  42.9101568   8.7054533  78.7677231  43.7922960   8.7358660
  78.9583173  42.4359709   8.0916351  79.3189748  68.6226033   1.2143702
  78.7317450  68.9956092   0.5569023  79.5768149  67.7750324   0.8519167
  71.0442670  63.1224965   9.9999041  71.8292268  63.0037926  10.5346722
  71.3529713  63.0332373   9.0982574  15.8211374  29.4635111  16.6056437
  16.3288593  28.9497620  15.9775442  16.2087011  29.2538839  17.4553961
  66.8598397  54.0174447  29.1286940  67.1739848  54.3981932  29.9487967
  65.9139402  54.1633295  29.1437525  60.6330569  68.4012722  13.7162584
  59.8922904  67.7958392  13.7470860  60.6520160  68.8010214  14.5857805
  73.1879886  61.2729190  16.3210577  73.1386264  60.4501675  15.8343596
  73.4926112  61.9134973  15.6783289  75.1183358   9.6417767   3.8188309
  74.9546662  10.4986673   3.4248966  75.6981054   9.1998011   3.1985468
  11.1183762  14.6937185  34.4156260  11.4207148  15.4450375  34.9258608
  11.8686509  14.4569117  33.8704294  25.8892297  21.7506796  20.7852167
  25.4554271  21.4276892  19.9954504  26.2858963  20.9721237  21.1760324
   2.5756089  65.2199076  17.6391500   1.9721095  65.4111742  18.3570856
   2.9091184  64.3439911  17.8335184  73.5612710  72.5882577   0.2836889
  72.9686578  72.9553579  -0.3722673  74.1048892  73.3276127   0.5558437
  34.7754979  27.6350474  56.4066458  35.4112005  27.0969009  55.9349346
  34.1815448  27.9547477  55.7274961  50.7893617  63.9774011  13.3465952
  49.8475797  63.9092563  13.1896395  50.9928115  63.2311677  13.9104885
  34.3226766  10.2631670  22.5519747  34.7758197   9.4300562  22.6816839
  34.8857546  10.9106594  22.9761499  61.8327904  30.9619117  39.1817498
  62.3440075  30.9447670  38.3726788  62.3573542  30.4619718  39.8071504
  57.8281832  32.2250342  58.3539104  57.5272799  32.8518105  57.6960039
  57.0429993  32.0114112  58.8579798   0.6173484  55.9150218  10.5210680
   0.9883992  55.9907209  11.4001745   0.2579657  55.0284527  10.4883093
  25.4174709  15.8873898  24.7105974  25.4149961  16.8212324  24.5004457
  24.5659017  15.7315355  25.1189703  64.1449070  44.2536497  62.2851992
  63.8617182  45.1366091  62.5227308  64.5354795  43.9038372  63.0860233
  55.7359011  63.2460354  17.7344984  56.3221224  63.7142728  18.3289141
  56.2868007  62.5720142  17.3364538  40.0609271  74.2617153   4.1643423
  39.4299380  73.6989688   3.7155622  39.5412032  74.7319959   4.8162264
  31.1720228  10.5316597   8.5482925  31.3597440   9.6951824   8.9740843
  31.8784713  11.1103207   8.8351959  63.0433416  42.8694296  45.7950020
  63.1263208  43.7901354  45.5467176  63.0889702  42.3928022  44.9661636
  45.4353952  35.8482575  63.0894709  45.8358097  35.9321713  62.2241068
  44.6922302  36.4511847  63.0689955  35.4650092  42.6191950  61.5540171
  35.4482293  42.2831774  60.6578922  36.3924909  42.6241589  61.7906237
   6.5621996  21.9824415   1.7227644   6.1652088  21.1889273   1.3636488
   7.3651862  22.0994001   1.2150616  60.9510899  40.1826000  59.6221066
  61.0163832  41.0475159  59.2172813  60.3594160  39.6942687  59.0496683
  72.9135974  71.2581347  12.4697346  71.9975646  71.1617349  12.7301687
  73.0185063  70.6539224  11.7347855  76.0369666  69.9911712  27.0211214
  76.6277297  70.0187610  26.2684816  75.2246411  69.6220254  26.6745752
  36.6997688  74.5003917  23.7534213  37.1903627  74.2381920  22.9744458
  36.2917583  75.3316442  23.5109735  38.1922912  45.5674749  10.8070940
  38.4813118  46.3545710  10.3453726  37.9154348  44.9702269  10.1122040
  39.7212362  20.9317374  60.9506130  38.7911367  20.8622646  61.1658430
  40.1665068  20.4685211  61.6601181  70.1650746  70.9002923  12.8401703
  69.3947680  70.8189772  13.4025282  70.5446990  70.0217126  12.8254503
  39.2860460   9.2006498  17.0625872  39.5277691   9.9773746  17.5670618
  39.8873663   9.2020517  16.3178438  55.7715988  37.6303059   8.6262125
  55.5178928  38.5471254   8.5199017  55.4552364  37.2005564   7.8315634
  43.3847570  18.4492737   6.0888857  43.8974237  18.8459879   5.3845972
  43.8495922  17.6385838   6.2961191  34.9767351  14.4429928  23.1303686
  35.2637720  14.4901901  22.2184366  34.5145845  15.2679497  23.2789988
  54.0042122  55.5525004  10.0279182  54.0471299  56.4385925  10.3874058
  54.3723352  54.9971305  10.7151455  61.7223072  59.6385574  60.9001017
  62.0633125  59.7758102  61.7839050  61.2264395  58.8219213  60.9588432
  46.7379649  63.0148362  26.3985437  46.7867763  63.7841366  26.9660181
  46.5660734  62.2870134  26.9960016  62.4227579  55.1558767  18.8485140
  61.6450103  55.6573688  19.0931601  62.9174884  55.7442199  18.2781405
   9.6080875   5.1446873   2.9011339  10.3121400   5.7881742   2.8207392
   9.5492625   4.7443920   2.0336432  54.9395445   5.4313522   1.1576933
  54.6032938   4.5672518   0.9200090  54.5844765   6.0184294   0.4902405
  60.8825684  23.6732078  63.0300808  60.1429844  23.8937855  63.5962963
  61.6377258  24.0831780  63.4518528  53.4269571  39.9986696  45.3476810
  52.6440096  40.5352020  45.2237606  53.9501762  40.1532364  44.5611811
  52.0146513  37.4033618  45.2996635  52.5928879  38.1051326  45.0006771
  51.1314440  37.7399087  45.1482821  65.8540583  35.2355385  21.7343760
  66.2886953  34.9445629  20.9327173  66.4326286  35.9105992  22.0890236
  32.8969447  66.3682340   4.9562496  33.6861770  66.4474820   5.4920382
  32.9073684  65.4624342   4.6469778  71.3224109  59.5826887  30.0149435
  71.6250356  59.2566489  29.1673941  71.5241130  60.5182336  29.9975676
  52.9451084  31.0192823  45.8857965  53.6448669  31.6610217  45.7643795
  53.4010410  30.1832771  45.9830379  22.8778934   9.3581396  19.6011347
  22.2353458   9.7390419  19.0025705  22.9178428   8.4344059  19.3534273
  54.5244789  32.1503949  59.5444393  54.4906425  32.0256853  58.5960007
  54.9146318  31.3426542  59.8784542  79.0016349  50.3259693  26.3958448
  78.5835774  49.8665689  25.6675619  79.7195609  50.8129810  25.9913248
   0.4119970  74.9908257  28.0877328  -0.3634738  75.1096251  27.5393105
   0.0849916  74.5521002  28.8731122  19.1236178  64.8887752  11.1639208
  18.9105956  65.3998755  10.3831333  19.0796248  63.9778350  10.8732552
  23.7365278  45.0255632  57.5045013  22.9807886  45.0130033  58.0918026
  24.3578943  45.6189728  57.9264069  14.6392838  73.9756034   1.4940113
  14.2677419  73.3281706   2.0931906  15.5701653  74.0005230   1.7155403
  26.4222924  63.6224960  14.7281212  26.9790713  63.9417862  14.0179962
  26.2829987  62.6973508  14.5257849  60.6023073  57.0573235  60.1861668
  60.3727627  56.6539049  59.3490314  60.4488707  56.3692713  60.8336782
  60.3297520  52.3123598  18.1022382  61.2336016  52.4377680  18.3912981
  59.9846935  51.6337681  18.6824775  57.8150225  37.6424837  61.6982222
  58.6176729  37.4904609  62.1970987  58.1162786  37.8118563  60.8055925
  48.8849990  75.0715898  23.9760202  49.2224948  75.4512046  24.7873205
  48.3777110  74.3112539  24.2602247  42.7147436  28.4380489   4.0510267
  41.9388199  28.9460236   4.2879576  43.4483432  29.0304190   4.2158264
   7.6761786  61.6227912  15.7846350   6.7662970  61.8996380  15.8928103
   7.6434008  60.6674551  15.8345121  16.1730957   1.8490940  10.3347677
  15.8527040   1.6652518  11.2178225  15.9123373   1.0844737   9.8213524
  23.9164352  32.3351484  29.3591970  23.0118561  32.2887808  29.6687502
  24.2486191  31.4426285  29.4555944  79.6805127  31.5867321   0.9867186
  79.0251668  31.4958517   1.6784519  79.5969136  30.7848548   0.4707378
  23.2717704  14.5616013   4.5945829  24.0025806  14.0692430   4.2207712
  22.8843593  13.9655453   5.2355713  77.4095455  11.2407261   4.6561808
  76.4762154  11.3590151   4.4797319  77.4420849  10.5562168   5.3244823
  34.0410995   0.7002502  17.5930971  34.2268562  -0.2308792  17.4717611
  33.2101965   0.7188278  18.0679506  16.3249635   4.0824419  31.1011118
  15.6356621   3.6454159  31.6012186  16.3247776   4.9819284  31.4284605
  25.7277171  66.3684867  26.1211199  25.2897422  65.5510687  26.3582701
  25.5484025  66.4739727  25.1868052   5.4642884  68.2020019   4.1385454
   5.8742349  68.8812684   4.6740622   5.9361188  68.2357715   3.3064026
  10.4512342  13.6366594  38.3243012  10.7846865  13.1311607  39.0655923
   9.5125898  13.4496593  38.3097410  36.1563253   2.8011089  35.2726263
  36.6427517   3.4450108  35.7874292  35.4340458   2.5355822  35.8418745
  63.3327532  28.0169058  55.1481056  63.3846712  27.1933556  55.6331825
  63.3368731  27.7535176  54.2278671  75.2832492  64.8671697  21.1428446
  75.7447369  65.6865572  21.3213533  74.3685611  65.1266478  21.0321611
   6.7850224  33.1194590  24.9384398   7.2096316  32.4108021  24.4549746
   6.5048282  32.7149512  25.7594770  48.0540180  22.8331047  11.5823406
  48.9367675  22.8410345  11.9523758  47.5820875  22.1827942  12.1025366
  14.5501899  11.7674023  40.8774370  15.0473880  11.0210281  40.5428499
  14.9815559  12.5324970  40.4969305  72.3882373  45.9212320  32.4366945
  72.7511771  46.0004942  31.5545267  73.1251128  45.6295972  32.9735369
  29.7157860  11.8113482  60.4416943  30.6646132  11.6887784  60.4722834
  29.4455504  11.8190277  61.3599253  71.7442210  66.0473083  10.2632040
  71.3514550  65.2839349   9.8398537  72.2646268  65.6828331  10.9791416
  28.3534472  70.2225398  32.3927111  29.1356118  69.8441671  32.7943129
  28.3516033  71.1342167  32.6843828  65.8011389   3.5721728  24.9783492
  64.9234390   3.7211257  25.3300476  65.6643248   2.9881716  24.2323899
  42.9636383   3.0391460  40.0073809  43.0884218   3.9824205  39.9030012
  43.5452270   2.7989775  40.7287020  62.0132637  30.1706958  56.1726904
  62.4062252  29.4303799  55.7103682  62.7089548  30.8271575  56.2087154
  16.8668572  41.5784578  24.4258970  17.7075307  41.7204140  23.9907450
  17.0968120  41.3918640  25.3361315  16.0506201   1.6928607  21.3051027
  16.4201164   1.3575107  20.4882521  15.6485223   0.9284574  21.7177004
  15.5043380  61.5313147   3.5919088  16.4158456  61.6762112   3.3381552
  15.0452153  62.3168968   3.2947582  20.5715593  46.3070965  57.2851658
  20.7823690  45.6240225  57.9217196  20.4874262  47.1042681  57.8082991
  49.1293955  12.7597392  60.4530048  49.6208334  12.1531558  59.8991251
  49.6499062  13.5630345  60.4490137  28.7097978   9.6149689   8.9726204
  29.6013546   9.9633366   8.9745420  28.1609153  10.3602463   9.2165989
  59.7856903  24.6895409  59.8677492  59.0819597  24.1421819  60.2161646
  60.5592680  24.4335127  60.3699970   3.7384431  66.9221710   7.9825109
   3.2632701  66.6558765   8.7696117   3.1165234  67.4668573   7.5000614
  21.9118277  50.2603148   2.9537386  21.5248029  49.9377607   2.1398586
  21.5279500  51.1289190   3.0737299  63.0642064  62.7256583  16.9714445
  63.3257850  61.8056868  16.9332117  62.9848321  62.9903816  16.0550112
  72.6245911  12.9056461  61.9071531  73.3731349  13.0070407  61.3192463
  71.8707211  12.8234107  61.3230753  45.0781155  28.3393312  44.9142027
  44.1699028  28.3094859  45.2150106  45.1637459  27.5817537  44.3354273
  59.4820452  15.6554997  40.4169798  60.3509283  15.7189655  40.8135223
  58.9658213  15.1562798  41.0498524   9.0990178  66.0048483  -0.0015551
   8.7594382  66.0474442   0.8923716   8.4420649  65.5026172  -0.4836422
  16.0962581  21.5850025  32.2336382  16.3741016  21.9985777  33.0509466
  15.2925825  22.0459515  31.9930834  39.8926067  10.3804356   5.1486820
  39.0259552  10.2662283   5.5386919  40.1400709   9.5039564   4.8540968
  79.1190290  43.2026386  44.1872692  79.2101479  43.9890766  44.7252703
  78.1863499  42.9912710  44.2280769  28.9771621  61.8847250  16.9576639
  29.6947543  62.1480702  17.5338072  28.2053630  61.8785976  17.5238127
  14.8962848  69.0481161  20.1310057  14.9341695  68.4956978  19.3502134
  13.9838426  68.9979051  20.4158873  29.5722246  14.7382503  39.4264788
  30.1796341  15.2627426  39.9481958  30.0967693  14.4277960  38.6884398
   7.0915763  73.7552308   2.6472277   7.2112910  74.6710347   2.3958200
   6.2155167  73.5328983   2.3320765  29.4292497  13.3165031  22.8285975
  29.1937780  14.1656834  23.2023424  30.3226423  13.1596857  23.1343550
  33.2227675  63.8556026   3.6797709  33.1357829  64.0374302   2.7440304
  33.0563323  62.9162096   3.7577051  45.3564835  20.6449199  53.6012888
  45.2159023  21.5892506  53.5326862  46.1740065  20.4894876  53.1282806
   4.5405309  51.6997264  22.2806067   4.2333094  50.8014916  22.4031633
   4.8872868  51.7146407  21.3885492  40.6922023  18.2365043  59.2693424
  40.2634494  19.0684135  59.4701719  41.5060012  18.2588012  59.7728014
  74.2000134  66.4926051  24.1480249  74.0045913  66.6220091  23.2199663
  74.0628178  65.5565141  24.2934317  19.5849657  12.8416687  26.4534468
  20.1495743  12.1018272  26.2296480  19.9373197  13.1702429  27.2805590
  37.3453283  24.0543896  17.4782366  36.9123602  24.7320038  16.9589991
  38.2784462  24.1802650  17.3059649  71.2835963   0.4599435  31.7378664
  70.6288083   0.4191787  32.4348760  70.8947499  -0.0322859  31.0148621
  20.6738965  20.7023818  61.3686132  20.7944934  21.5839107  61.0156441
  19.7563187  20.4963882  61.1901712  37.1106243  10.9612804  15.4826731
  36.5547323  11.7206388  15.6575579  37.7067136  10.9234720  16.2306589
  79.4305944  65.5021095  26.8692327  79.1445255  64.9925184  26.1111355
  78.6929655  65.4606628  27.4778533  15.9097433  15.2367931  29.5589155
  14.9739217  15.1317936  29.7305197  15.9549999  15.9144407  28.8844008
  19.1176080  28.0424171  23.7450689  18.7739944  27.9434210  24.6329683
  19.5672607  28.8873678  23.7550825  63.3814716  56.3635492  55.5424929
  63.9613438  56.2561703  54.7885418  62.7538252  55.6448889  55.4661989
  65.2786922  56.6757488  49.7120047  64.3696928  56.4508724  49.9104595
  65.2378035  57.5761414  49.3897438  73.5734129  59.0449238  52.8167486
  74.0679121  58.9771175  53.6335135  72.9622078  58.3088160  52.8449869
  50.5607128   7.2657877  18.6503405  49.8868131   7.8297239  19.0299124
  50.7277202   6.6058784  19.3232912  11.1650023  19.9042773  53.7341118
  11.2492498  20.6825042  53.1832075  10.7098230  20.2134156  54.5173550
  26.4390516  13.5518270  21.1980623  27.2417021  13.7868124  21.6636366
  26.3323545  12.6149088  21.3624662  72.2497304  61.9920992  29.6808237
  72.8531583  62.4698113  29.1116995  71.5483983  62.6170610  29.8646349
  62.4163055  53.1780243  38.8065410  61.7369318  53.2007980  39.4804597
  61.9351673  53.0829716  37.9845309  50.3570652  72.8618670  59.3349075
  49.7974539  72.3893070  58.7186670  49.9457312  73.7218857  59.4209719
  26.1626386  27.8805452   9.6498770  27.0683765  27.5757700   9.7045321
  26.2349939  28.8295847   9.5482916  41.7111492  19.0054947  13.4820122
  42.2803783  19.7644955  13.3550018  41.1355495  19.2560440  14.2046064
  67.0372994  20.0620754  44.5260906  67.7464183  19.6576507  45.0259161
  66.3054402  20.1062305  45.1414490  40.3703372  58.3676027  28.0284113
  40.3505008  57.4657367  27.7082914  39.4653384  58.5526513  28.2793325
   8.7605604  61.1535501  64.4308615   8.2712969  61.9716740  64.5175838
   8.8028559  60.8042574  65.3210497  70.4990196  68.7101412  62.6201773
  69.8633003  68.0101013  62.4717188  70.2487803  69.3961382  62.0012903
  53.1058121  28.0799246  47.4052715  53.7803173  27.4455929  47.6479673
  52.5239515  27.5978279  46.8176889  23.6198711  31.6598707  23.3419317
  23.7468195  31.2259012  22.4982542  23.8668775  32.5707680  23.1822866
  14.3935442  24.1614586   5.9683889  13.8893747  23.4066587   5.6645340
  14.6904659  23.9143091   6.8441624  62.7706957  19.2783582  62.1164799
  63.4077168  19.9537075  62.3495913  62.8500891  19.1919065  61.1665058
  35.8893871  63.1091886  12.6409906  35.1973819  62.6668936  13.1326527
  36.5056371  62.4124151  12.4152273  73.8431597  57.5384712  48.3061552
  72.9958010  57.9737091  48.3999014  73.8144684  56.8198204  48.9377785
  17.8297297   9.5733363  63.7682915  18.7021796   9.2115219  63.9237070
  17.9867617  10.4921634  63.5507250  33.0594444  12.9868322  16.2208075
  33.6113786  12.6709848  16.9362349  32.5624513  13.7100893  16.6030783
  69.4948196   6.1684423   5.7796377  70.1770591   5.8441359   5.1917595
  69.3843841   5.4712110   6.4260859  71.1129363  48.1208252   3.7504190
  70.8993657  47.2255771   4.0133804  70.7913955  48.1895696   2.8514618
  19.8944854  16.2999016  27.9946989  19.9792003  15.4317909  28.3889574
  20.0481653  16.9075495  28.7181467  43.0088997  11.2965298  57.1485662
  42.3007298  11.6262877  57.7017260  43.1766939  12.0046639  56.5267754
  61.9022655  35.7863235  55.5715084  61.2326145  35.9054470  56.2450171
  61.7656946  36.5153003  54.9663877  65.3056669  54.2156887  44.3270445
  64.8078299  53.6352634  43.7512875  66.0528135  53.6887217  44.6104431
  37.2454906  57.6693487  64.7629929  37.8736949  56.9494247  64.7055721
  36.7483211  57.6190901  63.9465809   1.4378294  59.3851948  60.7057095
   1.7870077  60.2720547  60.7939434   1.8313726  58.8996124  61.4306688
  34.1515445   2.8330046   5.3681368  34.5493889   3.3016783   4.6344513
  34.5825529   1.9783336   5.3683752  66.9754505  18.8286579  42.1463776
  66.8404579  19.2529857  42.9936981  66.5209341  17.9897881  42.2234917
  63.0074406  60.3631210  11.6904998  63.3434534  61.2465811  11.5394068
  63.7821722  59.8471022  11.9135344  71.8090041  22.5634487  54.0314913
  71.0214455  22.9531104  53.6518097  71.4976771  21.7696292  54.4664049
  10.6467279  45.9039021  59.1064692  11.5729746  46.1121607  59.2286539
  10.2105269  46.3007116  59.8604631  46.6145563  31.5600491  52.2574568
  47.3853683  30.9994078  52.3455477  46.7423010  32.0137024  51.4243221
  51.4205837  16.8750339   5.1486534  51.7239904  17.7811390   5.0925344
  51.8002510  16.4473492   4.3810791  79.5859194  63.4778595  58.5005283
  78.7738848  63.2458115  58.0499935  80.1184464  63.9050245  57.8295755
  72.2203238  73.2505344  16.5436548  72.8439362  72.9893302  15.8660788
  72.6907094  73.9020156  17.0637888   7.2109572  59.0780805   9.6922010
   7.9558770  59.4962977  10.1239676   6.4694182  59.6518921   9.8847765
  29.6134250  15.1346404  44.7030973  29.6766059  14.5949275  43.9150906
  29.3661849  16.0013111  44.3806219  69.7619056  45.4610163   2.6876825
  68.9784622  46.0019976   2.5887865  69.4284153  44.5661360   2.7526087
  32.6165151  49.7557550  23.2336611  33.2467317  50.0070101  23.9088911
  32.3456955  48.8703257  23.4763617  78.1498511  54.1678880   0.3038496
  77.2328646  53.8938163   0.2880281  78.6379226  53.3617257   0.4715532
  14.9655962  18.8423878   8.1522078  14.1936826  19.2292696   8.5653728
  15.7039880  19.1858250   8.6552614  53.4151173  20.9500718  64.3034601
  53.9457464  21.2708426  63.5742331  54.0135765  20.4037905  64.8130226
  19.9201965   5.2928787  14.5616955  19.1372537   5.8355051  14.4679445
  20.5036497   5.5917173  13.8641924   1.3713789  31.9918209   9.5261234
   0.9418678  31.2457520   9.9446196   0.7400846  32.2970730   8.8745731
  29.6413390  56.1477040   0.9203905  29.1642157  56.2427972   1.7447323
  30.5408637  55.9553228   1.1851114  42.1794557   8.4907490   5.4322905
  41.8450308   7.6371532   5.7075399  42.6578903   8.8175779   6.1942095
  22.6675066  63.5872126  24.3518376  21.9818243  64.2550850  24.3557215
  23.0790266  63.6714363  23.4917283  20.0023095  71.9424270   6.5870708
  19.9141518  71.4767026   5.7554668  19.3007676  72.5934647   6.5725225
  68.7456369  58.0104494  54.6129274  68.6188889  58.8036156  54.0922928
  69.0380669  58.3287382  55.4669809  72.7171707  56.3023806  56.5899897
  73.2536316  55.6551933  57.0478058  73.3341932  56.7697287  56.0268688
  23.9475536  22.1406513  11.0362906  23.6638689  21.6666227  10.2545923
  24.0638971  23.0433565  10.7399410  52.4694300  49.9608231  59.3548536
  52.9174709  50.2288342  58.5525656  52.9123402  50.4469681  60.0503588
  58.7173319  43.8148069  52.5407648  58.3879566  44.0496826  53.4082794
  59.0975237  42.9440212  52.6566076  62.7707815  43.5648489  56.5191221
  61.8592310  43.8519239  56.5728855  63.0961466  43.9516068  55.7062340
  78.9194091  71.8499635  12.2031969  79.2291386  71.0495614  11.7793364
  79.4179471  71.8973230  13.0189461  45.7458353  27.6865292  56.3595819
  44.9253321  27.7966595  55.8790874  46.3652134  27.3637128  55.7050657
  72.1621227  48.4490395  52.1080446  72.2155619  48.9446163  51.2908697
  72.3272896  47.5423336  51.8495226  18.2769903  22.5268364  28.4576058
  18.2492479  23.4811687  28.5262585  18.8796457  22.2543454  29.1495514
  20.1207542  36.1021334  33.7191481  19.8889446  36.9636589  33.3723444
  20.3115415  35.5750280  32.9432673  12.8348469  12.3912531   0.4807896
  13.5847234  12.8416687   0.8694309  12.7880001  11.5571266   0.9479851
  50.4857111  62.2045040  51.6382122  50.5699539  62.2636652  52.5898600
  49.6412849  62.6125431  51.4466858  39.2957544  19.1839796  21.6970915
  38.7174701  19.4050652  20.9670538  39.3860721  18.2321506  21.6513342
  33.5603969  59.4944142  12.3731798  33.7956683  58.9647745  11.6113609
  34.3980948  59.7091459  12.7835316  57.2670412  55.3584862  59.2490816
  58.0994940  55.5968904  58.8411427  56.9577837  56.1689854  59.6536636
  72.1556282  63.0827904  51.1783028  72.0481682  62.1333933  51.1206198
  72.9669189  63.2613373  50.7027388  35.4674816  27.9348474  15.9488768
  35.5301475  28.8893276  15.9131140  34.7154093  27.7652842  16.5162081
  21.7409324  53.3316618  10.5630869  21.3839864  53.3947473  11.4489979
  22.4227237  54.0027624  10.5312151  43.8519907   7.3953157  24.6052069
  42.9395675   7.6300627  24.4360727  43.9311075   7.4133783  25.5589575
  11.8461355  64.1752672  62.4017334  11.0115847  64.6006441  62.5987530
  12.5076422  64.8282528  62.6303101  25.4559374  24.5454365   9.9283499
  25.6993818  24.4190126   9.0113014  24.7510671  25.1925045   9.9020237
  59.0130138  16.2810188  19.1144842  59.3432712  16.5847927  19.9599928
  58.8726139  15.3419453  19.2355627  11.4499919  22.9093177  42.6020432
  10.5493323  22.6580055  42.8067112  11.7705886  23.3246143  43.4026575
  60.1275682  50.2748632  53.5700130  60.7563257  49.8507166  54.1539574
  59.4812679  50.6663084  54.1576290   3.5454783  45.5988312  62.1394110
   3.1276640  46.4569283  62.2123814   3.9227137  45.4417276  63.0049992
  51.9308328   1.8021518  15.2858156  51.8927145   1.0977059  15.9327597
  51.5704536   2.5639492  15.7397169   8.3051364  71.2951587  39.0003294
   9.0882460  71.7290877  38.6616892   7.8369872  71.9820593  39.4749254
   8.9510679  13.4279257  19.8907274   9.1688728  13.8621098  19.0659422
   9.4334960  12.6017195  19.8611540  79.1775687  73.5393046  52.1573347
  80.1154836  73.6006116  51.9762510  78.8307078  73.0022000  51.4449877
  62.2036839  47.1494722  55.5885363  61.5278578  46.4903021  55.7465982
  62.9476166  46.6528273  55.2477455  22.4709384  15.7384498  56.8862295
  21.5226333  15.8251865  56.7891836  22.6557891  14.8338230  56.6338015
  21.0000388  56.4435779   6.8618626  20.3080003  56.6244708   7.4979395
  20.6916158  56.8478762   6.0509056  18.5572433  11.2421375  22.6267809
  19.0350818  10.7710653  21.9441408  18.6274194  10.6809336  23.3990187
  76.0142231  41.4614582  62.2777271  75.9700060  40.5073786  62.3410273
  75.2651882  41.7002392  61.7316914   7.9411539  58.8173056  32.6410699
   7.2034773  58.3695316  33.0552769   8.0577692  58.3645535  31.8058181
  19.5959791  55.9945297  22.7992129  19.4107470  55.3092718  23.4413505
  19.8943361  55.5208635  22.0227766  15.1644627   5.2640922  39.9135065
  16.0451142   5.0174816  39.6308970  15.0681655   4.8610504  40.7763624
  51.7185020  51.6591167  62.2634792  51.8165016  51.2609243  63.1283951
  52.5138235  51.4090776  61.7931843  61.3645506  57.8495884  56.4158106
  62.2222948  57.4380064  56.3103914  61.5395069  58.7882996  56.3491631
  17.4476592  40.8258455  16.5865225  17.4919717  41.7608936  16.3866323
  16.7563645  40.7541190  17.2447008  19.3603051  75.2432299  39.7390532
  19.6979308  74.7093725  39.0198588  18.5402060  75.6055927  39.4038510
   3.2164320  57.2765017  40.9643793   3.7680754  56.5641451  41.2876081
   3.5869631  58.0650902  41.3606930  13.3706069  32.6903110   8.5320086
  14.3258857  32.7212816   8.4799332  13.1702161  31.7718416   8.7122482
  42.2116312  65.5143118  39.7832441  41.2853941  65.5012655  39.5421338
  42.6161322  66.1053753  39.1482186  16.3089530   5.0923354  36.8932986
  16.2558619   4.1619260  36.6747904  15.3998486   5.3581531  37.0315099
  44.8048258   5.3289371  34.2914289  44.9763870   5.6829887  35.1640314
  45.4875898   4.6707684  34.1615099  66.0648537  55.0830412  53.8825750
  65.7104540  55.9146214  53.5677624  66.4617777  55.2962303  54.7271061
   5.5098629  40.8989054  34.8043245   4.6442485  40.8777481  34.3962854
   5.4184437  40.3572422  35.5882067  14.4995308   9.5913416   3.5540051
  13.7890625  10.0820642   3.1408972  14.2134332   9.4723659   4.4596666
  57.8522682  27.4910980  11.6793198  58.6526489  27.7246052  12.1495289
  58.0688953  27.6248318  10.7565969  62.8862381  34.4557571  59.0047503
  63.1384182  33.9300823  59.7638988  63.6201763  35.0563192  58.8748074
  46.4653253   4.0917593  12.6860184  46.9822693   3.4383923  12.2147316
  45.6050110   4.0639931  12.2673029  11.6903198  62.2376966  64.3036938
  10.7921410  62.3452520  63.9907408  12.2273803  62.6818132  63.6475229
   3.9453999  70.1526426   1.9357485   3.2632510  70.0319074   1.2751955
   4.6761100  69.6175002   1.6260380  52.0623112  31.3500667  43.1923914
  52.0355368  30.5090928  42.7360201  52.1614122  31.1184025  44.1158342
  56.1873293  71.3822079  45.0678158  56.6567421  71.9199610  44.4300842
  55.3537369  71.8350220  45.1955509  33.1391971  72.8826069  16.7668146
  32.4733703  73.5162495  16.4996046  32.9754321  72.7419685  17.6993555
   3.3087286  50.5231285   5.6698364   3.7735781  49.6907330   5.7550156
   3.5095724  50.8198881   4.7822410   5.3021463   7.5481564   0.6162256
   5.5948766   7.8132301   1.4881653   5.9907278   6.9633347   0.2999062
  18.9318227  58.1475550   4.4004005  19.0893697  57.2171694   4.2397923
  19.5163345  58.5981661   3.7908739  64.2194891  22.8786302  37.8096366
  63.9986706  22.0413232  38.2175446  63.6227942  22.9466867  37.0642805
  58.1058741  39.4170141  64.3962383  57.5550842  39.3716884  63.6146975
  58.8467360  38.8433170  64.2007303   3.7924608  49.4423246  45.1651525
   4.4535860  49.2008734  45.8138847   3.4076532  48.6089611  44.8937464
  15.5806891  11.3081081  49.3836164  15.9939877  10.5942352  49.8692179
  15.7710282  11.1150081  48.4656239  60.9024365  67.1247100   6.6954464
  61.1235149  66.2571453   6.3567919  60.5924805  67.6087617   5.9300369
  41.5937487   3.2620914  61.0384417  42.4104277   3.4979017  60.5983686
  41.7581336   2.3900039  61.3971519  74.5866537  48.9950323  38.5078979
  74.2112827  49.8420620  38.7484622  74.5698547  48.9887285  37.5508666
   6.3025927  39.3378645  17.6819033   6.0049081  39.8385244  18.4414763
   7.0989442  39.7859579  17.3968214  54.6294689  64.0649706  20.7962984
  55.1933670  64.8200232  20.6285471  53.8362503  64.4389540  21.1799234
  37.3058383  75.3993009   9.0404743  37.8801791  74.7151946   8.6964363
  36.4249675  75.0321411   8.9663977  70.7223351  13.8832290  64.7970343
  71.2940104  14.2903430  64.1461277  71.1216529  14.1045005  65.6383562
  14.9037663  74.4046758  37.6127905  15.3243558  73.5509204  37.7149576
  14.9455516  74.5813249  36.6729635  33.5977602  28.5582548   1.9866032
  32.8259611  28.5125690   2.5509399  34.0462589  27.7242332   2.1262163
  47.5128222  73.2766199  39.5932841  47.0428276  74.1096830  39.6299720
  46.8573093  72.6211023  39.8316741  71.0237026  24.5853716  20.0954908
  71.5743065  23.8107210  20.2094358  70.3015899  24.2867523  19.5426649
  52.3852491  55.7633877  63.6650705  52.4177837  56.3373756  64.4303894
  53.2687473  55.8022594  63.2987976  34.3334453   2.5267179  42.9437542
  34.5593802   3.3687885  43.3388519  34.7157637   2.5632627  42.0669794
  68.8162851  47.2389746  41.2281466  69.4563198  47.4735928  40.5561781
  68.9128399  47.9161453  41.8977308   3.9619383  65.5311108  27.3662305
   4.5714220  65.2965546  28.0660534   4.3889936  66.2559414  26.9096446
  66.9486618  58.9003378  23.7787146  67.5011348  59.4023710  23.1795782
  66.1654949  59.4391733  23.8907045  72.9769039  42.1968842  61.3128042
  72.0841360  41.8536758  61.2752247  73.3343792  42.0304966  60.4405880
  70.6855774  72.7272177  21.9822526  71.6424847  72.7230930  21.9589353
  70.4424953  71.8016148  22.0023370  59.4530773   0.1944858   0.9788746
  59.3848514  -0.3929132   0.2261824  59.9783516   0.9294063   0.6623215
  75.8942842  56.3745546  42.0104265  76.7627668  56.4183950  42.4104881
  75.9259605  57.0136690  41.2985516  79.2839670  66.2091637  59.6183443
  79.2893648  65.2766848  59.4022560  78.5028315  66.3251495  60.1592731
  40.3225469  24.4839006  14.5727915  40.1969385  24.7060352  15.4953474
  40.2328777  25.3177029  14.1113132  75.3056002  60.4566622  51.2343264
  74.6634769  59.9500895  51.7316103  76.0018778  60.6445074  51.8637276
  60.4575920  59.5720720  64.5778942  60.0434160  59.9500895  65.3536463
  59.7266483  59.2628336  64.0427971  36.8343989   2.3187311  57.8884315
  36.8613212   2.2685392  56.9329309  35.9381358   2.0715339  58.1160975
  34.5075845  47.1051222  11.5979713  34.2097759  46.6914850  10.7877583
  35.4148578  47.3534399  11.4206785  43.0517292  39.5486456   0.5466455
  43.4401464  40.3449970   0.1844448  42.1095276  39.7173029   0.5400270
  18.9738559  39.7090965  12.3115486  18.8324165  39.8757606  11.3796419
  18.1828785  39.2509943  12.5956768  23.6488661  50.0433016  65.0646782
  23.4725985  50.7930708  65.6330204  22.8390535  49.9231005  64.5687103
   3.6391768  44.2818642  56.9640350   3.1216368  44.2318487  57.7677059
   4.4740233  44.6601915  57.2399282  32.8677129  11.8536192   3.4052843
  32.1874332  12.1140533   2.7842993  32.5604295  12.1837717   4.2495626
  47.4827957  11.6012627  12.1888632  47.3203706  12.4075609  12.6784891
  46.7754888  11.0133844  12.4540848  70.1678180   3.7812906  10.0041718
  70.2258682   4.0032154   9.0748638  69.5422363   3.0576426  10.0389856
  32.1291494  29.3396097  15.6310362  31.8316602  29.9905783  16.2666220
  32.3381614  29.8480373  14.8474258  34.0591430   4.8367744   3.1370396
  34.0969991   5.7395702   2.8212017  33.8000774   4.3254953   2.3704189
   4.1174619  61.3892435   4.7876066   4.9910037  61.4539312   4.4016403
   4.2013947  60.7111024   5.4579109  36.0599899   6.2250858  20.1755137
  35.4490661   5.7832294  19.5857996  36.7157888   6.6116672  19.5952410
  78.6305459  46.3070624  38.0597377  77.8703983  46.5578001  38.5846519
  79.3805607  46.4676850  38.6323738  37.2944303  31.7821787   2.4097818
  36.8915494  30.9798370   2.0778698  38.1960852  31.7473094   2.0903582
  53.8871908   1.4992575  35.9574771  54.2800522   2.1042866  36.5866303
  53.9891243   1.9343704  35.1110029  79.3435772  69.2755966  11.0575318
  79.3409904  69.0406304  10.1296222  79.6222599  68.4771948  11.5059984
  46.8921049  35.0370179   1.5554136  46.6437204  35.7124524   2.1865410
  47.4578388  34.4438084   2.0496601   1.5145445   4.6879816  34.6151876
   2.3538896   4.5136768  35.0410390   1.5256222   5.6289768  34.4401526
  23.8849616   5.2979738  46.3413954  24.1928363   6.1829317  46.1457062
  24.6283698   4.8753920  46.7715120  27.2651684  19.0627562  17.7570242
  26.5182932  19.2879449  17.2023195  27.7107281  19.8962318  17.9087729
  11.4612477  41.3654964  34.5360804  10.9145991  40.7747715  34.0179539
  10.8891098  42.1058028  34.7381568   0.8410852  69.4869934  51.3716221
   0.0129144  69.8144137  51.0206842   1.3977043  70.2630954  51.4354420
  16.9671361  71.7928659  40.2478552  16.0399978  71.6263919  40.0777531
  16.9749276  72.5984602  40.7647610  50.0420009  38.4638708  64.3768597
  49.4055422  38.7741058  63.7327290  50.6406750  37.9108422  63.8748789
  20.7899062  60.9313171  48.6594629  19.9684016  61.3517301  48.4052753
  21.4694707  61.4644687  48.2469368  53.4758399  61.7735534  16.2654424
  54.3514639  61.4277237  16.0924792  52.9215133  61.3656895  15.6001592
  54.1149004  33.8222562  15.0156874  53.5009630  33.8514809  15.7494921
  54.9697025  33.9917688  15.4116911  28.1298415  58.4879278  12.2334618
  28.9439456  58.7469004  12.6652092  28.2160918  57.5431048  12.1065659
  74.1925772  61.3486045  19.9137914  74.3015893  60.4820960  19.5219851
  74.0680202  61.1755734  20.8469462  78.5390043  29.4759035  41.6901255
  78.7264490  29.9999857  40.9113884  78.7007952  30.0698066  42.4231577
   1.1570017  65.2609091  14.1003060   1.8862574  65.7402604  14.4935489
   0.4807846  65.2556353  14.7777545   5.7469813  64.4132589   3.0229992
   5.0696294  64.8941182   3.4985966   5.4791848  63.4964775   3.0864710
  40.1483886  69.6565043  42.8126860  40.2972810  69.3563699  41.9160366
  40.3515975  68.8956587  43.3567953   4.2933242  73.0965245  29.5580411
   3.3730404  73.2118035  29.7947216   4.4762079  72.1764873  29.7486138
  25.8477561  61.1239510  57.0829582  25.4741351  61.3382332  57.9377794
  26.7836969  61.0146980  57.2512197  42.2959328  16.7723441  54.3823719
  42.2487974  17.5354290  54.9583149  43.0542326  16.2806821  54.6977854
  12.7548711  65.0240927  52.4093580  12.5491826  65.8366947  52.8715277
  12.3580687  65.1330571  51.5451193   7.3134238  35.4090500  10.8391285
   7.4388880  35.5745697   9.9047333   6.9150263  34.5395207  10.8769631
  16.6141145  25.1992892   4.9490398  17.0283477  25.4427670   5.7769054
  15.9047334  24.6080588   5.2009434  55.6084220  69.8189371  47.2919941
  55.4073493  70.3671791  46.5335560  56.4257209  70.1781594  47.6372623
  65.7253988  71.3326131  54.3975782  65.4560180  72.2404160  54.5374346
  65.2031787  71.0401868  53.6505842   2.5265567  48.1550996  61.9599104
   1.7517774  48.3768790  62.4764013   2.6028411  48.8671057  61.3247299
  72.7806187  10.2582705  19.7838175  72.0428276   9.9060285  20.2816319
  72.7065086  11.2072289  19.8849010  35.9884763   0.8802907  53.8476229
  35.2367187   0.8197249  53.2581997  36.7241263   0.5493440  53.3323336
  10.8740640  19.8945522  35.0510955  11.3185763  19.0499258  35.1235318
  11.5832424  20.5368328  35.0233102  40.7394473  61.4490991  45.6474304
  40.9430425  60.8005541  46.3213491  39.9466293  61.8823104  45.9636545
  56.8495178   8.0453336  55.5429363  57.2697067   8.3840472  56.3334751
  56.9982004   7.1004301  55.5787563  60.1181650  27.7394009  55.7666206
  60.8749437  28.3254552  55.7741642  60.3451395  27.0633316  55.1281548
  13.0892102  46.4643567  56.4782906  13.9702575  46.2217896  56.1934280
  13.0796568  46.2733500  57.4161911  69.3749125   5.0699519  52.2509569
  69.3409808   4.4975375  51.4845175  69.4148429   4.4704221  52.9960722
  47.1654129  28.5201383   7.6898390  46.3902807  29.0498543   7.5032854
  47.6978493  29.0691638   8.2654351  18.6568372  63.5119944  60.0500870
  17.8501479  63.7524932  59.5944023  19.3040864  63.4081547  59.3525791
  33.7652270  72.7943971  45.8854246  32.8847568  72.8379626  45.5124474
  33.7494771  72.0192074  46.4467335  60.7289322  31.5560781   8.0509705
  60.5857523  30.6109344   8.0016369  60.4337080  31.8876331   7.2029442
  43.7547286  44.5871316   0.2344221  42.8971620  44.6297161   0.6575006
  43.8831384  45.4607378  -0.1351124  30.4743926  70.3942620  54.8941374
  29.5171992  70.3975617  54.8930120  30.7119767  70.1381676  55.7853174
  36.8731093   4.9218205  63.8449144  37.2036862   5.7629704  64.1602182
  37.5968599   4.5552352  63.3369493  44.1378784   6.5507823  51.9085741
  44.5533943   6.8971503  51.1188841  44.6149302   5.7422006  52.0952511
  57.7465470  57.5093578   2.0138306  57.4526651  58.3884548   1.7749733
  57.4269684  56.9494842   1.3062662  57.3959446   2.9515156  48.7181282
  56.6317320   2.3775703  48.6652136  57.9415989   2.6928964  47.9754210
  48.9074469   3.6544931  22.1878648  47.9793262   3.8729438  22.2721601
  48.9653397   3.1683847  21.3653207  68.1795120   1.3121027  62.0101023
  68.8571739   0.6513420  62.1529436  68.4988594   2.0866585  62.4730396
  72.9873498  38.0475288  -0.2123266  72.7045615  38.8289914   0.2626270
  73.9154227  37.9583050   0.0043577  67.2673066  39.3055538   8.8419527
  67.0337804  38.3911217   8.6822313  68.1535847  39.3912865   8.4906715
  74.6968825  55.2700494  20.9988588  74.5982726  54.3961238  20.6210226
  73.9159091  55.3865896  21.5398973  27.2388482  25.9813476  50.6994295
  26.6967463  26.1839819  51.4618587  26.6107035  25.7913804  50.0025940
  28.3148026  23.8026929  44.6015453  27.5866437  23.7199926  43.9857721
  28.2814384  22.9995155  45.1211834  41.9427840  66.3637345  51.8335533
  41.1070077  66.8253498  51.7656088  42.1614234  66.4000075  52.7647400
  14.2393891  68.3091067  42.2511864  14.3225114  67.7515470  41.4775896
  13.8111083  67.7532129  42.9021740  52.5336902  61.6333478  57.5293446
  52.3996036  61.3451152  58.4322166  51.8846481  62.3248665  57.3997927
  36.1514743  24.0487813   0.7143873  35.7250477  24.3079554   1.5312237
  36.0467549  23.0979215   0.6807465  32.9728715  75.2391243  52.9667377
  32.4651162  74.4751870  53.2402658  32.3239391  75.8386516  52.5983810
  30.2285790  21.0192323  37.6463151  30.0397348  20.2987242  37.0451164
  29.3703246  21.2910128  37.9715300  72.2713518   9.4974238  39.9358034
  71.3468647   9.2890739  39.8011065  72.4527645  10.1979148  39.3091989
  70.3915651  55.9428351  54.7031116  69.8097082  56.7014806  54.6569347
  71.2647267  56.3174026  54.8193836  68.6932437  72.6129096  62.5320005
  68.1822745  72.6476600  61.7233372  69.1458289  73.4556736  62.5657463
  21.6173761  71.0595586  43.7419653  20.9334819  70.4085650  43.5847139
  21.8757455  71.3514744  42.8677464  47.8884983   1.3097985  20.5679965
  46.9547796   1.3487169  20.3609157  48.0688095   0.3772774  20.6868434
  11.9204514  56.5537768  47.3738050  11.9237868  57.3956566  47.8292799
  12.1628730  55.9168487  48.0459547  58.4709692   3.6502337  31.8938780
  58.8178825   2.8548476  32.2979140  59.2466450   4.1255775  31.5962076
  15.5414836  31.7586391   0.0773996  15.9711663  31.2372117  -0.6006247
  16.2087743  31.8670331   0.7550472  17.2500770  69.0093671  26.8792272
  16.9013898  68.3166986  27.4403524  16.6036384  69.0984588  26.1789346
  33.9935970  22.9066348  45.9456205  33.4238744  23.0753708  46.6960716
  33.7290525  23.5553861  45.2934170  16.5572755  64.6577220  43.5519600
  16.5198676  65.4842399  44.0333128  17.1061198  64.0900653  44.0930414
  66.6156912  19.3575656   9.4836253  66.8432760  19.9375689   8.7569678
  67.1974802  18.6045241   9.3802780  73.0276390  42.9785340  58.5292673
  72.3626240  42.6496499  57.9244375  72.6111253  43.7246888  58.9605474
  25.6559579  69.7838150  33.4791470  26.1237304  68.9727490  33.6781287
  26.2753503  70.2962231  32.9595113  38.6153436   9.1885716  44.3940163
  39.1899896   9.9360150  44.5593739  39.2042470   8.4343427  44.3702650
  59.1502666   8.2747167  29.2233062  59.1421843   7.7878892  28.3991909
  59.4274807   7.6334155  29.8776102  78.3255418  40.2941694  24.5367998
  77.9230674  40.7627212  25.2680296  78.9031346  40.9388314  24.1281027
  50.3273773   0.0480356  58.2811737  49.6942425   0.7225912  58.5268307
  51.1420250   0.3185356  58.7047386  40.1967573  13.6759698  23.5027027
  40.9195518  13.3041525  24.0082216  39.4838357  13.7663507  24.1350031
  72.3426087  54.7824501   2.7623505  73.1171353  54.8665653   3.3184666
  72.4062808  53.9009451   2.3947519  57.3061514  14.8145795  62.7047873
  56.8665218  14.9851930  63.5377598  57.7813911  15.6234348  62.5147057
  43.8416958  10.8750927  48.7498856  44.1758108  11.7689550  48.6749935
  42.9166508  10.9829080  48.9710093  26.4289618   1.9920982  21.8515205
  27.1044540   2.6609698  21.7394757  25.7434702   2.4266231  22.3589849
  14.9510734  74.5606056  21.6087747  14.9268548  75.3922909  21.1355472
  14.8977487  74.8085729  22.5317597  31.0601012  72.3026462  37.9809594
  30.7087581  71.7772685  38.6998248  31.9366328  72.5526961  38.2731867
  21.9992129  48.8318120  27.1943087  21.6082065  49.0612184  28.0373472
  22.7135960  49.4591068  27.0829958  60.3965187  19.3265307  37.7589059
  60.2443790  19.5366204  36.8375230  60.4644871  18.3719552  37.7788472
  61.1917400  27.4682212  39.5446897  62.0873547  27.6884270  39.2885447
  60.6439352  27.8724384  38.8718200  58.2086849  14.1629076  38.0001950
  57.4934959  14.7941256  37.9208016  57.9181862  13.5562134  38.6811948
  69.8619938  19.8438942  62.8682280  70.6112814  20.3381515  63.2006550
  69.1552782  20.0371099  63.4842300  34.7054593  64.4064443  33.5262775
  35.5413930  63.9455335  33.5970569  34.1331880  63.9620023  34.1517472
  13.0129234  75.1921646  48.1384706  13.4974210  75.1703510  47.3132324
  12.6279728  74.3189881  48.2133579  58.3728971  53.0909078  61.4279795
  58.2502671  52.7920573  60.5269337  58.9089807  52.4104278  61.8351555
   9.4506113  37.9697983  65.1000166   9.9656169  38.1183355  64.3069649
   8.5727017  38.2792323  64.8769474  68.3503754  36.9984741  11.0117907
  69.1066964  36.6543892  11.4869875  68.2880004  36.4488251  10.2306170
  72.0030161  73.5447978  25.3812551  72.1330841  73.1176196  24.5345950
  72.6659020  74.2348816  25.4056954  52.9459842  52.2781848   2.4983353
  52.1106680  52.2115110   2.0356983  53.5308631  52.7099203   1.8756384
  18.2908082   8.7084675  59.1731262  18.2131708   9.6366924  59.3935871
  17.7361143   8.2629883  59.8135138  12.1549273   3.6595932  26.6470051
  11.9838691   3.4617251  27.5677752  11.5229976   3.1253999  26.1658239
  76.2073644  60.4281824  46.4159918  77.1374138  60.4306631  46.1896467
  76.0048206  59.5083325  46.5865374   1.7349212  62.9442852  46.7532539
   1.9092028  63.7963598  47.1530390   2.2140281  62.3210089  47.2993469
  67.7565575  11.3480008  39.0546489  68.2177019  11.6425180  38.2692575
  66.8430138  11.5885651  38.9003801  33.6513901  24.2924786  60.1873398
  33.8585067  25.1371074  59.7874165  33.0625677  24.5078921  60.9106064
  74.7621496  73.1212886  43.3119202  75.2084907  72.3001849  43.1050396
  74.8763855  73.6598792  42.5289106  60.5207109  11.6547036  55.5097818
  59.7731733  11.4577949  56.0742712  61.2784672  11.6150177  56.0932732
  48.4464748  51.3286351   1.1751217  48.5970195  51.6962968   2.0459837
  48.1097157  50.4482614   1.3417572  17.7838675  25.5381023   7.6052183
  18.6826722  25.8666943   7.6254791  17.7309958  24.9390899   8.3499426
  65.9648732  23.3026624  59.3982077  65.2008561  23.0193615  58.8959646
  65.6728331  23.2838035  60.3095770  40.0773430  12.1435201  54.9325466
  40.9040451  12.5821185  54.7314882  39.4068551  12.8031540  54.7548914
  28.3725230  64.4530504  56.0151768  28.9032762  65.0596624  56.5314674
  28.2446019  64.8994355  55.1781511  10.3776097  40.3585815  48.9670229
   9.7737932  41.0593462  49.2131138  11.2254727  40.7936096  48.8769627
  12.3626339   2.7212745  41.1253738  11.5315783   2.9879260  41.5184069
  13.0304158   3.1107369  41.6898346  69.6552117  28.1556116   9.8739571
  68.7279256  27.9287653   9.9440712  69.9291308  28.3251481  10.7753176
  16.3834254  66.4547657  27.4832052  16.3037650  66.1942385  26.5655893
  16.7744891  65.6951283  27.9147715  47.9569530  29.6742582  56.5337181
  48.5070324  29.2323232  57.1805048  47.1386290  29.1776919  56.5359354
  60.5112028  16.7694306  25.4698205  60.2928305  17.6972604  25.5574393
  59.9516058  16.4578032  24.7585058  69.1792400  49.0106743  43.4952402
  69.5167013  48.1572716  43.7673759  69.8134621  49.3245690  42.8506756
  60.1955175  31.1196899  59.9812698  59.4701767  31.6835856  59.7126961
  60.6593561  31.6270137  60.6473827  68.9834435  46.0870449  24.1114515
  68.1426413  45.8620809  23.7131113  69.6046813  46.0735004  23.3833593
   5.4479918   8.6228245  61.6557455   4.5319876   8.8276654  61.4681292
   5.6330904   7.8468388  61.1267662  24.6418548  28.0513716  32.4314332
  25.1136017  27.7306294  33.2000756  24.9745941  27.5207973  31.7075491
  17.9136884  -0.0005853  59.0796518  18.4723413   0.4259676  59.7294140
  17.0564115   0.4093634  59.1947651  34.9516678   5.7824129  36.3113832
  34.7199297   5.9774053  35.4033589  35.8891153   5.5909789  36.2835097
  20.4726379  71.5415408  62.2932673  20.0027625  71.2470325  61.5130663
  20.4102485  72.4962663  62.2643042  42.9539871   3.0529764  24.8560858
  42.1872091   2.5751153  24.5399666  42.6320314   3.5533392  25.6058931
  32.0909135  69.9293958  26.6896677  31.1697833  69.7492449  26.5017867
  32.4235646  70.3357529  25.8893871  27.1600024  33.8297846  14.7826189
  26.6622607  34.0871392  14.0065712  26.8299596  32.9581408  15.0006670
  69.9408992  55.1671289   7.1459669  70.6802686  55.4572724   7.6801819
  69.5726188  55.9748136   6.7878527  76.3810523  46.0084193  60.1187181
  75.4801996  45.8296793  60.3884363  76.8586619  46.1235445  60.9402227
  57.5528765   1.3957767  36.8343759  56.9458199   0.6978755  37.0806408
  57.2845221   2.1452519  37.3658872   5.6707987  17.7620554  42.7326345
   5.1343283  17.1062136  43.1779480   5.5510553  17.5770915  41.8011379
   5.9652440  57.7158760  12.6110882   5.0339190  57.5234340  12.7198643
   5.9846799  58.5186742  12.0901627  61.5660620  38.0733418  42.6745415
  62.4101353  37.9186821  42.2504520  61.1642838  38.7734795  42.1601391
  69.3507893  31.8196850  29.2085165  69.3430217  32.6628082  29.6616358
  69.4466527  32.0458470  28.2833761  67.2734578  30.6949537  22.9347700
  67.7667840  30.9837936  22.1670240  67.0059855  31.5061926  23.3667177
  45.0612800  67.9676478  21.3118076  44.3463342  67.4241488  21.6430044
  45.3769843  68.4426265  22.0805454  71.3046503  35.6279540  47.1549177
  71.6913033  35.2766633  47.9569912  71.3618183  34.9083281  46.5263462
  51.4119530  28.3855224  42.9411221  50.6410885  27.8333998  43.0721235
  51.9444513  27.9066110  42.3060417  69.1065121  39.5030475  59.3347883
  68.8525772  38.8127422  59.9473429  68.2814789  39.7938418  58.9462090
  50.6514692  22.8383040  48.3928061  51.3249493  23.3013439  47.8945637
  49.8841286  22.8435755  47.8206205  19.0141265  55.5666595  26.7789006
  18.9635007  55.1350491  25.9260368  19.0059440  56.5018397  26.5749311
  29.6384954   7.7689028  46.3176298  29.1855550   6.9258666  46.3368082
  28.9959240   8.3937287  46.6536760  69.4457908  53.5903256  17.1245027
  69.5479019  54.4515054  16.7193162  69.5781286  53.7482255  18.0592680
  58.2204628  19.4329870  42.6815987  58.3949518  18.7956929  43.3741570
  58.3466911  18.9437807  41.8685913  75.2512915  21.1792766  13.2440037
  74.8508962  22.0469283  13.2996410  74.9874623  20.7414018  14.0532583
  21.0769622  56.3485019  16.0270071  21.8377654  56.4610641  15.4571462
  21.4457099  56.2764185  16.9073820  38.3896875  12.6023328  10.5401969
  37.5955606  12.5986946  10.0057995  38.1115675  12.2482967  11.3849092
  77.6069291  55.6207191  12.3231739  78.0043443  54.9089550  11.8214888
  77.1725400  55.1838981  13.0557865  63.7086391   3.8867101  17.7110589
  64.4795084   4.1592684  18.2087529  63.6598682   2.9400921  17.8443551
   0.5722062  44.3003957  64.0435314   0.6035916  45.2565639  64.0120411
  -0.3611524  44.0927141  64.0875959  22.8841066   7.6498508  40.7744694
  23.0051875   8.0529952  41.6341496  23.3075500   6.7946631  40.8491898
  44.8729484  59.2764895  59.0376997  45.0290982  58.3842771  58.7281799
  44.8052613  59.1916733  59.9887323  29.7629516  15.2132486  13.4798664
  29.4960276  16.1294793  13.5540289  29.7034900  15.0214599  12.5439638
  45.2991597  62.1183269  58.4238577  45.1684730  61.1749714  58.3277655
  45.0411908  62.3051434  59.3265152  68.0230299  12.5350195   2.1742386
  67.9559711  12.1197992   3.0340761  67.3576430  13.2229906   2.1879334
  51.3068850  30.4352431   7.5356859  51.9477780  29.7294842   7.4497170
  50.6190331  30.0678395   8.0907625  73.8860352  50.5522309   4.0820259
  73.1903632  50.9319185   3.5452694  74.2341597  51.2913393   4.5807833
  25.2150035  44.3609105   3.5929913  24.7561841  45.1672505   3.8286442
  25.7560553  44.1611914   4.3569321   7.8259689  26.4245343  40.1435566
   7.8441751  25.4704237  40.0688791   6.9091511  26.6586351  39.9990797
  23.0473638  23.6284590  48.1722260  22.4810696  24.0155387  48.8398457
  22.6115251  23.8276911  47.3436213  52.2941256  27.8882027  54.0913057
  52.6136160  28.2367277  53.2590246  53.0870819  27.6473188  54.5702887
  22.8790641  20.6705332  15.9471560  23.7954855  20.3952742  15.9219754
  22.4619079  20.1793361  15.2393854  37.2616005   7.4925655  64.5703077
  37.6947284   8.0558199  65.2116966  37.4766111   7.8841764  63.7237597
  75.8388598  36.0898526  19.6664137  75.9367307  36.2683447  18.7311071
  75.7604630  36.9549928  20.0684351  80.0302155  30.2491598   4.0357298
  79.3386538  30.0249426   4.6583838  79.8018201  31.1269830   3.7299627
  51.8824148  24.6965528  56.3940763  51.0115480  24.3527627  56.5931511
  51.8321419  25.6242275  56.6245556  21.0847807  21.4274144  46.7465115
  22.0244336  21.2460303  46.7268419  20.7506800  20.8832502  47.4595976
   5.4907243  37.7528052   7.0184654   4.9817721  36.9428367   6.9845480
   6.1111180  37.6160418   7.7344507  19.1859182  41.9679403  57.8270292
  18.5835108  41.2710094  57.5669670  18.6571440  42.7652550  57.7967262
  17.7275435  60.0981210   8.4556765  18.3915727  60.5278300   7.9165548
  17.4754397  59.3235253   7.9530090  39.9773550   6.7982078  44.2549562
  40.8935928   6.5213215  44.2636490  39.5613217   6.2291723  43.6073875
  62.4510908  48.9867496  49.4267750  62.2809267  48.0555964  49.2845678
  63.2451200  49.0062714  49.9609709  49.9902630  35.4313922  46.6264868
  49.9085760  34.6824718  46.0359955  49.3993950  36.0899472  46.2612343
  31.1004639  19.2504108  56.0161114  31.1239386  19.1505814  55.0644207
  31.9235468  19.6891153  56.2312937  26.3427329  11.0100913  58.4756565
  26.3079047  10.5270708  57.6499987  27.2288513  10.8587635  58.8044786
  20.4200570  73.6038454  34.4401336  19.5545499  74.0039289  34.5241976
  20.6638925  73.7503350  33.5261774  12.2575991  69.4491707  46.6089678
  12.1686952  68.8391589  45.8767033  12.5724570  68.9090388  47.3337841
  49.8291795  71.5431019  18.8141322  50.2187268  72.4026676  18.9742398
  50.2196471  70.9756326  19.4787741  15.0132815  49.9915360  18.8519186
  14.0976827  50.1301776  19.0941710  14.9733226  49.4431625  18.0683798
  49.8694849  32.9341078  52.8627205  49.7634268  32.8201532  51.9182634
  50.7286215  33.3449101  52.9594231   3.2862799  44.6951645  54.2943811
   3.1880729  44.6121304  55.2429008   2.8859799  45.5390804  54.0851068
  60.0211239  13.6883307  22.7734470  59.3494558  14.2330968  23.1837225
  59.9664831  12.8519523  23.2357430  43.8647509  25.2813959  60.0178432
  43.7439489  26.1080384  60.4850674  44.7096109  25.3761244  59.5779896
   9.9120108  43.5706012  28.4330362   9.3389146  43.4613799  27.6741785
   9.3382184  43.9107983  29.1195196  25.5201880  34.5185907  12.8406567
  25.2115266  34.4329520  11.9386429  24.7758548  34.8899286  13.3142704
  53.3130462  64.6725939   9.1242069  54.2065986  64.4083904   8.9051241
  52.8467758  63.8482498   9.2630571  77.8047236  55.1425314  47.6241636
  78.4102756  55.8779240  47.7176142  77.1017096  55.4801893  47.0691967
  11.6986029  71.7949908  40.8654928  11.2838428  72.4492075  40.3031731
  11.9468801  71.0889952  40.2687025  41.3506413  16.3771105  14.2987204
  41.6603708  17.2472858  14.0475392  41.1696434  15.9381568  13.4675825
  52.6493645  21.0314131  49.4038963  51.8852615  21.5974879  49.2946720
  52.8728342  20.7564831  48.5146809  67.4948692  16.3403869  32.9710460
  66.8159008  16.2824166  33.6432600  67.0427418  16.6907382  32.2035360
  61.8916062  10.8926636   4.3137020  61.3971964  11.6811329   4.5375341
  62.0548263  10.4655224   5.1546186  76.6928084  53.0076181   3.9539045
  76.0762818  53.3095907   4.6209425  77.5321372  53.3871268   4.2141718
  63.4539413   3.8387156  26.3022470  62.6611042   3.3025378  26.2897992
  63.7815571   3.7610620  27.1982789   3.0847375  74.2012094   3.3916945
   2.7258412  73.3209036   3.5034365   3.7731234  74.2650245   4.0537256
  57.5925446   9.6622038  61.6228008  58.2403803  10.0464427  61.0321283
  58.0792141   9.4811273  62.4269152  71.5681727  40.7505523  34.5204824
  71.5383036  39.7983207  34.6131891  71.7812379  41.0699950  35.3972906
  49.3755500  72.9278234  54.4481897  50.2134149  73.2771779  54.7517824
  48.7285916  73.3052575  55.0441933  23.3802604   6.8496376  26.8890280
  23.1186723   7.3286158  27.6754087  23.4193372   7.5170332  26.2039846
  75.8036216  47.6024495  30.4363340  76.4070781  48.3147369  30.6477922
  76.2173970  46.8211268  30.8031458  62.9782088  70.1314758  16.2568277
  62.3472317  70.2908014  15.5548853  63.2570322  71.0051249  16.5310949
  61.2643401  68.0786513  50.0525379  60.7361762  67.4509393  50.5457497
  61.9259422  67.5431447  49.6146441  55.1310237  24.6363400  31.9166941
  55.7628115  24.6675407  31.1982912  54.2899378  24.4750844  31.4891428
  30.0939814  73.4041427  11.3958591  30.5565707  73.8229035  12.1217293
  30.6012504  72.6132725  11.2130064  75.2836402  62.2835873   5.3363031
  74.9946578  61.9910859   4.4719166  75.5970986  61.4877795   5.7660288
  62.7212811  20.4847836  38.7132430  63.2832813  19.8602319  39.1718459
  61.9712734  19.9648833  38.4244061  71.5724421  24.1727638  63.1460381
  71.8832827  24.3070149  62.2507238  71.8257236  24.9709320  63.6097240
  72.9153092  45.0168125   6.5861267  72.2966178  44.8449950   5.8762449
  73.0940039  45.9552734   6.5262026  24.9845147  26.9060516  62.5710297
  24.4562936  27.7041030  62.5529003  24.4670320  26.2879872  63.0872107
  74.0661399  58.3243005  43.3027840  74.6844928  57.7293842  42.8785896
  73.7144344  58.8541858  42.5874138  43.6675517  66.8984794  31.3210535
  44.2302005  66.5090739  31.9903994  42.8097980  66.9682162  31.7401290
  69.3129492   6.8960708  15.6779599  69.0297318   6.9831866  16.5881395
  68.4988689   6.8723440  15.1750278   6.2413995  41.6373183   2.2076839
   5.8421866  41.4677815   1.3543839   6.9496028  42.2540741   2.0224899
   4.1573589  58.3533113  57.5180435   4.7242920  57.9230087  58.1580877
   4.7528188  58.6417871  56.8263483  54.1390419  28.9256907  44.3350220
  54.6557903  28.1202149  44.3146801  53.4146166  28.7608099  43.7314892
   3.6053626  69.2828946  37.4918866   3.8519208  69.7825472  38.2702088
   4.4384305  68.9978438  37.1164179  46.1914635  37.6616073  56.8371773
  45.4022503  37.9372859  56.3709402  46.3744593  38.3793163  57.4435091
  45.3648567  10.7785475  52.0789623  45.7759714  11.2450826  51.3512516
  45.4773712  11.3604319  52.8306150  58.8378096  17.4923885  11.8442082
  59.2312813  16.8345499  11.2709165  58.5574484  18.1897473  11.2514865
  45.3109217  19.0733957  30.6497216  44.3756437  19.0447950  30.8513904
  45.6067467  19.9120629  31.0037827  77.2354253   4.8925899   5.6412071
  77.7959092   5.6086205   5.3422255  76.6056950   5.3105830   6.2285370
  37.4271314  74.1594635  57.6367378  36.8924539  73.6026122  58.2026625
  37.0286863  74.0735620  56.7706585  52.7236032  33.7041664  56.7608309
  52.9867125  34.6227717  56.8171120  51.8595839  33.6768818  57.1718788
  69.6460009  23.9009547  46.0579014  69.9040365  23.8280177  46.9767761
  69.8681068  24.8004413  45.8174276  39.3080163  22.0285988  13.5710192
  39.1695619  22.9706931  13.6686003  39.6623588  21.7498612  14.4154000
   3.9993891   4.3737242  35.6064391   4.7034010   4.9287686  35.2709842
   4.3609175   3.4877399  35.5826306  58.4189796  15.1534474   7.6023126
  59.2826414  15.5462873   7.4758410  57.8598595  15.5927885   6.9615352
  22.3186128  53.9257615  64.3492699  21.4135139  54.2289202  64.2776585
  22.3368613  53.1069677  63.8538122  31.7474341   9.4027871  27.5702238
  31.3477850  10.1591790  27.1408224  32.5908589   9.2956722  27.1304607
  44.1220506   8.5317968   7.6322264  44.7495218   9.0369342   7.1151728
  44.5052846   7.6562713   7.6853508  71.8080473  33.7945271  54.3893194
  70.9349060  33.5821939  54.0595007  72.0547009  34.5907855  53.9188242
  48.2875824  20.0558114  49.7967482  49.1417360  19.6256709  49.7563744
  47.6641750  19.3395460  49.9174118  46.7048423  56.9719308  61.5669441
  46.6627805  57.8774302  61.8744040  45.7941119  56.7366581  61.3895988
  11.1273607  47.2489882  37.3737764  10.2429899  46.8828058  37.3789072
  11.0179838  48.1437397  37.6957893  66.8892129  34.0457697  27.0132059
  67.5199349  33.6205559  26.4321608  67.4279149  34.5432840  27.6284403
  39.0996909  12.1857500  28.7018228  39.6107769  11.7350817  28.0295706
  39.7148752  12.8041339  29.0960026  61.4646816   6.7025501  40.3847075
  60.5545759   6.9911379  40.4529285  61.7895317   7.1210533  39.5874882
  13.2920758  72.5647138  15.1840014  13.9038913  72.7885269  14.4827074
  13.7231986  71.8553661  15.6606478  49.5671988   1.5863857  40.0318241
  49.5182467   0.8014148  39.4862437  50.1533651   1.3437213  40.7485914
  66.4175370  10.6847816  25.4878706  66.9946221  10.3129965  26.1549467
  66.7430881  10.3257376  24.6624464  73.5701275  24.3564701  35.0074434
  72.8923130  24.8297954  35.4898953  74.3827295  24.5668507  35.4674983
   5.9235065  51.4587777  19.4971275   6.5264170  52.1582120  19.7491610
   5.8071510  51.5712469  18.5537064  58.0955648  16.3693142  47.4227571
  57.1793175  16.3857055  47.1462536  58.1226349  15.7179093  48.1235886
  19.3115329   5.2228456   1.0676140  20.0572443   4.9408680   1.5973658
  19.5273018   6.1185080   0.8078665  35.6055181  71.5835955  61.0550547
  36.3051049  71.6843345  61.7005491  34.9113862  72.1673440  61.3610840
  71.7646837  12.8340805  39.8716617  71.1668396  12.5970542  40.5806255
  71.8517542  13.7848890  39.9395895   7.4721813  32.9981303  55.3443193
   7.3807383  33.6027265  56.0807562   6.6082901  32.9902864  54.9321795
  56.3989639  30.4908776  33.3566833  56.2880135  30.8403921  34.2408562
  55.5452824  30.6140065  32.9415917  59.0773010  24.4596219  43.0251360
  58.8405228  23.5733700  42.7517796  59.6587753  24.7761822  42.3338270
  61.1107381  29.7519003  14.2453379  60.6550248  29.2210715  14.8986238
  62.0330842  29.7005455  14.4960732  62.5150736  50.0380288   8.4135336
  62.9616125  50.5702518   7.7550739  61.5873154  50.1069628   8.1882662
   1.8169467  70.0253605  22.4329466   2.2363059  69.1910099  22.2226328
   2.1529977  70.6347154  21.7756838  15.3215615  63.3266323  39.7196484
  15.7292096  63.4163516  38.8582492  15.9552543  62.8260522  40.2335453
  16.8919170   6.4464653  43.8692141  16.0743737   6.9429183  43.9065123
  16.8197286   5.8122069  44.5824718   3.1070630  60.7790445   0.6012529
   3.1488625  61.5297292   1.1936707   2.8657309  61.1551093  -0.2452475
  42.8877640   0.8230765  57.5620890  43.2603359   0.4151240  56.7804241
  42.4547386   1.6124186  57.2370338  67.5582838   1.4531015  33.4432745
  67.3237991   0.5732067  33.1482577  68.3348083   1.3241190  33.9878869
  55.6571865  12.5521767  37.3034239  55.3656912  13.4414327  37.5046325
  55.0851965  12.2682023  36.5903902  24.8300489   9.8724502  54.6394682
  25.7473787   9.9659961  54.8963547  24.3918261   9.5529664  55.4282188
  18.1377093  65.8175801   8.8249535  18.3612172  66.6379975   8.3854145
  18.3364646  65.1385759   8.1802172  47.8038502  23.3342147  38.6616874
  48.6826181  22.9547453  38.6610246  47.2667742  22.6954436  38.1929111
  59.0543444  50.2769576   1.2734026  59.8491104  50.4392408   0.7652229
  58.5534365  49.6571087   0.7432026  60.0072193  31.7152548  55.9949493
  60.0332355  32.0534992  56.8900156  60.8041239  31.1912680  55.9136581
  49.7677612  12.0931077  57.6574373  49.6313667  11.3141108  57.1181822
  50.2041960  12.7144516  57.0746088  55.9977341  33.6697984  42.5420761
  56.5911293  32.9500794  42.7568293  56.3972569  34.4389510  42.9482985
  68.2687807  15.1438642  29.2516327  68.6988306  14.3077302  29.0722847
  68.9347649  15.6642056  29.7010064  54.0208197  26.0517025  59.5124960
  54.0659666  25.1524138  59.1877317  54.9343777  26.3314104  59.5709038
  12.2543661  73.6741330  44.7861528  11.4534847  74.1544268  44.5760489
  11.9834964  73.0322692  45.4425573  63.6242676  16.1463606  33.3705187
  63.4425879  17.0770574  33.5010004  62.7685738  15.7587528  33.1867385
  60.3766346  35.0985074  57.9760504  61.2401867  35.0426888  58.3851910
  59.8377705  34.4794321  58.4685993  52.4123716  33.8721657  53.5256529
  52.8485775  33.1827831  54.0263653  53.0501127  34.1228247  52.8573084
  39.8943233  16.1962283  21.2172747  39.0925884  15.9410751  21.6737247
  40.5361509  15.5332601  21.4717531  50.2963972  27.5942183  50.4353142
  50.6996346  28.2256365  51.0310841  50.3688955  27.9999685  49.5714045
  57.5036080  30.9572850   6.4408964  57.3976715  31.8363701   6.8045181
  56.7979582  30.8768974   5.7991594   7.2443120  70.2583192  34.9941153
   6.9655291  71.1418055  35.2348799   7.9977242  70.3932022  34.4193071
  71.5171035  59.9076198  10.2155394  71.5872462  60.7111405  10.7309622
  71.9837220  60.1028417   9.4028944   0.3203901  11.7336714  57.6415348
   0.0500568  11.9537389  58.5330057   0.8432707  10.9379005  57.7393675
  76.2922557  69.8286294   2.2976488  76.5396531  70.3551220   1.5374989
  76.3925202  68.9229320   2.0045799  48.5926628  22.2417212  46.3280869
  49.1804838  22.0303106  45.6028271  48.2312155  21.3972902  46.5973902
  78.2882452  33.0710506  30.5085325  78.7409115  32.4500656  29.9378276
  77.6022720  32.5531054  30.9297299  73.7942727  44.0798812   2.7716917
  74.0674956  43.1710117   2.6470417  74.6110232  44.5579992   2.9150480
  28.5076666   2.4303736  47.1665192  29.3961596   2.7266937  47.3640203
  28.4304619   1.5887101  47.6158237  18.1548755  45.4315918  22.6121092
  19.0333574  45.2137058  22.3006296  18.3028619  45.9465830  23.4052777
  70.9687662  31.7434001  15.8339894  71.8567276  31.6494727  15.4891205
  70.4007435  31.5730882  15.0826085  71.2760480  44.6134947   8.8175625
  72.1371157  44.6448712   8.4006495  71.2418874  43.7513529   9.2320198
  72.2462606  16.8741119  40.7306623  71.5078211  16.9812322  40.1311064
  73.0082035  17.1572340  40.2251816  13.8598125  50.5977457  48.4764433
  14.3135945  49.7932117  48.2253695  13.8936584  51.1463564  47.6927900
   1.7842881  40.4122095  18.2980246   2.3427216  41.1896281  18.2957262
   0.9073560  40.7466693  18.1099791  57.4568748   9.8873287  45.5888605
  57.5441742  10.2920961  46.4518642  57.2850466   8.9639878  45.7736540
  65.3144979  32.6894355  23.3292460  65.3260756  33.2213664  22.5335407
  64.9985504  33.2835913  24.0099692  53.3362055  36.5685058  10.2007186
  52.9087687  37.3692393   9.8968202  54.2180777  36.6126752   9.8311442
  64.6251202  28.2669234  42.4393272  64.2314768  29.1274285  42.2950792
  65.4123497  28.4467745  42.9532862  63.2766254  25.5582486   4.4652361
  63.3419760  24.7861777   3.9032167  63.9869387  25.4544030   5.0984091
  31.9483821  74.0105234  49.6991920  32.8991763  74.1202268  49.6855688
  31.8076961  73.2009824  50.1901960  34.3980424  64.3777447  63.7361670
  35.0949924  63.7329047  63.8572931  34.8016517  65.0715499  63.2146645
   7.4271997  14.6512735  15.9762037   8.1770071  14.7265029  16.5664327
   6.7487845  14.2293155  16.5033937  68.0299933  52.9624508   4.5785946
  67.7826102  53.1894599   5.4749769  68.3243783  52.0533501   4.6343035
  28.8142554  29.2476891   0.7560438  28.3825366  29.3139671  -0.0956923
  29.5121638  28.6065374   0.6215710  33.7944603  26.6884279  59.0659523
  33.4189439  27.0583987  59.8649120  33.9584589  27.4465251  58.5050344
  45.9882212  23.6318064  53.4600496  45.5715799  24.4082689  53.0862188
  46.9013977  23.6914015  53.1793547  36.0960889   9.7832602  50.4947281
  36.2347555   8.8472879  50.3499508  35.2705407   9.9747330  50.0497150
  69.3295558  54.7940658  10.5597681  69.8112710  54.2760657   9.9148983
  69.3151505  55.6785332  10.1940578  28.4269857   4.6458822  24.2753786
  28.0350685   5.3861052  24.7387499  28.2421207   3.8896566  24.8323149
  72.2234011  21.6332746  63.8732195  71.6528606  21.6442180  64.6417189
  72.2436047  22.5432420  63.5769367  26.9583098  28.6356799  20.5036348
  26.9741217  29.4291340  21.0388083  27.8612105  28.5311715  20.2035040
  54.9096425  61.2511490   2.1661133  54.4009288  61.9503616   2.5766558
  54.2589267  60.7179068   1.7095465  10.9993617  50.8607195  11.6453499
  11.2494819  51.7756318  11.7742199  11.8029801  50.3673087  11.8095964
  67.6332521  45.7424021  46.2069082  67.6832342  44.8298502  46.4914703
  66.7184114  45.9870291  46.3464165  31.5590238  19.6546226  24.5572084
  31.7905950  20.0738674  23.7284464  30.9184503  18.9853960  24.3163103
  60.9884135  42.1359198  64.0699768  61.5469234  41.4022915  63.8128948
  60.3978984  41.7684167  64.7275972  71.2808783  30.1682608  20.1301950
  70.8705361  29.8764967  19.3161196  72.0820601  30.6104700  19.8494905
  76.3643534  73.9687799   4.3015141  75.6720765  73.5043596   3.8310904
  76.7899545  74.5053671   3.6328072  41.3446093   6.4341187  63.6907911
  40.8808994   7.2595233  63.8319016  40.8211946   5.7825410  64.1573906
  45.6666915  73.3386313  35.7401657  45.2340142  73.5994004  36.5531993
  46.0700814  72.4947410  35.9435272  19.7276370  63.5300760  41.2973833
  19.6024196  63.3665018  42.2321510  20.6356828  63.2779830  41.1296463
   2.0502679  73.2695657  17.4833095   2.9557960  72.9929553  17.6238024
   2.1151964  74.1985873  17.2620976  34.3684213  73.8377227  64.7137690
  34.5917861  74.1758505  65.5809546  34.4885366  72.8909649  64.7876120
   4.0295633  36.8091178  56.4696503   3.4727987  37.3164058  57.0603275
   4.1371950  35.9649873  56.9079304  69.7939396  36.7513895  42.3016310
  69.8783207  36.8404865  41.3523293  69.1086912  37.3754644  42.5407982
  78.9769220  31.3130617  39.7667933  78.5726738  30.8096743  39.0601015
  79.0390205  32.2035909  39.4213510  29.2521834  20.8352995  64.9701929
  28.8499451  21.4847803  64.3934679  28.6413479  20.7544589  65.7027054
   9.4387690  45.4402886   3.9293283   9.0518300  44.8193668   3.3121008
   9.1872851  45.1091813   4.7915071  40.8457279   8.8613784  21.4762139
  40.0529671   8.3399880  21.6023517  40.5253458   9.7263706  21.2205315
  44.7464418  29.7316074  51.4155102  44.8218918  29.5108271  50.4871798
  45.4202175  30.3961492  51.5591860  37.3798628  48.0240618   1.2662977
  36.7844899  47.2784047   1.3421816  37.2145946  48.5435496   2.0530981
  36.7513847  16.8947172  41.0899162  35.9900951  16.6586614  40.5598736
  37.3407936  17.3369300  40.4789495  15.8162272  14.2006338  46.9918203
  15.4624581  15.0741303  47.1594000  15.8695245  14.1427732  46.0378599
  52.2222185   9.2166716  42.6117277  52.0458555   9.2252445  43.5524988
  51.8293333  10.0268674  42.2869968   1.8497769  68.4893607   3.5909981
   2.5936286  68.6399697   3.0077023   1.4906804  67.6481150   3.3088869
  10.6086938  57.2990232  29.6401644  11.3400190  56.6814785  29.6344495
  10.7755201  57.8747409  28.8938737  52.2345607  74.1697365  61.9211864
  51.3088767  74.2610177  62.1470308  52.2845142  73.3402871  61.4460516
   9.1519753  50.1551186   1.5530819   9.7659318  50.8795391   1.4326519
   9.0455024  50.0866161   2.5018734  24.3841338  46.8122149  64.4910479
  25.0125527  47.5341892  64.4997120  23.5872364  47.1927357  64.1217375
   1.6081540  45.8296637   6.0846895   2.4403970  45.8450698   6.5573067
   1.7401044  46.4261709   5.3478045  43.6526680  19.2558682  55.3526115
  44.0408468  19.9460971  54.8149014  44.2291689  19.1927361  56.1141205
  61.3715649  18.3487642  15.5861604  61.0759974  17.4904239  15.8896768
  60.6715298  18.6525965  15.0083435  57.0775986   8.6964774  58.4098768
  57.6383781   8.3539981  59.1059113  57.1503544   9.6475524  58.4898472
   2.6652273  41.1985779  57.2161245   2.0012030  41.8646860  57.0383692
   2.6309618  40.6174707  56.4562798  76.7028745  36.0823734   6.6319984
  76.9095166  36.6054094   7.4065680  77.4878199  35.5553757   6.4824575
  77.5006580  32.2455907  52.0748854  77.3123407  33.1740689  51.9381428
  77.9487276  31.9716883  51.2746096  47.1810929  66.9820820  42.4068832
  46.3114946  66.5848373  42.3596859  47.4576919  66.8460404  43.3130932
  36.9017148  17.7556968  37.6582789  37.4668217  18.1256986  36.9800568
  36.1359286  17.4338436  37.1826601  48.6492729  16.3109481  32.6738834
  49.2273951  16.0210061  33.3795333  47.8311014  15.8376110  32.8248119
  49.2386150  23.7407517  56.6746807  49.3944025  22.8313684  56.9295979
  48.6121845  23.6833024  55.9532118  54.5625448  40.0257492   9.5507085
  54.4107103  40.8398581  10.0307155  53.6888695  39.6556306   9.4244635
  17.1226851  23.6457740   9.6798367  16.1717717  23.7179910   9.5974821
  17.2570388  23.1841503  10.5075354  10.5186574  61.1508267  57.6733351
  10.6818692  60.2728872  57.3286390  11.3880961  61.5441017  57.7484512
  26.0331297   3.5091072   1.0916370  26.4104509   3.1144196   0.3054518
  26.7578745   3.5387188   1.7162127  67.7628994  21.1729550  27.1506977
  68.6974287  21.1189055  27.3506069  67.5274420  20.2899742  26.8658543
  25.0014162  19.7484070   6.0528797  25.0822591  18.8613373   6.4033169
  24.2335176  19.7115856   5.4826111  53.8161993   9.4005388  40.4138327
  53.2379293  10.0127244  39.9587917  53.3946133   9.2576832  41.2612295
  47.8821421  19.0308177  62.4136114  48.7679625  18.7122452  62.5869989
  47.3096275  18.3761871  62.8135014  62.8853178  30.5700445  59.3218756
  63.0763292  31.0377645  58.5088682  61.9299936  30.5738926  59.3816328
  17.8788773  36.8542871   5.8996338  18.0516354  36.7794217   6.8381351
  18.4556167  36.2048341   5.4973740  39.3420171  18.1194740  15.4180807
  38.5547638  18.0796772  15.9611029  39.6657943  17.2188955  15.3992838
  61.6347742  11.9246984  49.6791553  62.3168898  12.5948238  49.7225571
  62.1077490  11.0961282  49.7566128  62.2559547   4.8384622  46.5033340
  61.4968634   4.5274296  46.0101128  62.5562334   5.6084543  46.0204458
  15.4620170   7.1046167  14.3568748  14.9408149   7.7741724  14.7999090
  14.8458576   6.6752773  13.7633747  73.6007738  52.7670431  44.2909718
  73.4709311  53.3598614  45.0311995  73.7968969  53.3444977  43.5531950
  50.6583309   7.9700476  46.9727034  50.2951765   8.4945303  47.6863283
  50.7022285   8.5730463  46.2306112  36.7857599  26.1336446  60.8057499
  36.5696287  25.7706046  59.9468422  37.6490355  26.5300035  60.6879091
  64.8414524   9.3336971  57.6171637  65.1947267   8.5498054  58.0378056
  64.5466001   9.0321739  56.7578697  61.5790701  38.9631343  39.9821568
  62.3127747  39.1598725  39.3997455  61.3335276  38.0643320  39.7628546
  35.3475444  60.6261443   3.0349821  36.2725131  60.5061768   3.2501024
  34.9569575  60.9679268   3.8392586  68.8758516  48.6874247  50.9811783
  69.1564226  48.0902147  50.2877426  68.7284756  49.5209694  50.5342865
  29.4273154  72.5675066  26.7147946  30.2408521  73.0532355  26.8506551
  29.3664281  71.9855942  27.4723577  57.4251366  28.8323855  43.7631035
  56.7247152  28.1873250  43.8607407  58.2045889  28.3928967  44.1030216
   5.5849775  75.3795528  48.7532616   5.2278742  74.7335052  48.1438971
   6.0575232  74.8598623  49.4035435   6.8120226  39.4343328  49.8822594
   7.6147398  38.9243078  49.7738171   6.9625792  39.9527121  50.6727362
  62.7072954  10.2193403  52.6556730  62.4730492   9.9016792  53.5277081
  63.6628103  10.2743793  52.6694918  49.6774340  35.0406241  62.7377939
  48.9440393  35.3237605  63.2838678  49.4034767  34.1919422  62.3900604
   0.1212725  47.4157858  35.6572175   0.3567919  48.3320236  35.8030844
  -0.3119150  47.1478939  36.4676571   2.8827540  33.4393026  33.0895418
   2.0434539  33.8628580  32.9095072   2.8641002  32.6383980  32.5656790
  49.7826068  47.2126942  13.6942762  49.8789088  48.0884610  14.0684265
  50.5626838  47.0969020  13.1517786  77.5250387  24.7583103  53.8944626
  77.6971245  25.5521059  53.3879995  76.9678450  25.0505400  54.6158266
  45.5668020  38.8038611  60.3218985  46.0541916  39.5681763  60.0144815
  44.6671009  39.1162205  60.4178572  27.8725314  25.8077025  46.5996695
  28.4150386  25.4073453  47.2791004  27.8654027  25.1657677  45.8896685
  39.9884813  72.2813280  53.8109016  40.0291030  72.7808157  54.6264315
  40.8211963  72.4647616  53.3759594  70.7868052  61.5533066  37.3486352
  70.6421328  62.1750689  36.6353917  71.7279053  61.3797188  37.3278546
  40.7555437   5.0152594  17.5015158  40.3544187   5.7840258  17.9068846
  40.0229835   4.4214636  17.3371881  70.8424409   6.9373702  22.1721930
  71.2568791   6.3082551  21.5816874  71.3745673   6.9060920  22.9672331
  31.1256282  66.3571404  25.1611132  30.2237002  66.6348337  25.3212160
  31.4827411  67.0273541  24.5784372  11.4693801  71.9310268  50.9737062
  12.2733037  71.5536119  51.3307714  11.7039911  72.1971171  50.0846720
   2.4913057  57.0333624  62.4899292   2.0730242  56.8817043  63.3374405
   2.6096567  56.1579990  62.1211910  10.8098809  23.7224256   1.1334938
  11.6903989  23.8797747   1.4743275  10.4405467  23.0621050   1.7198414
  14.7736978   0.3252822  16.9888205  15.1507282  -0.0188870  16.1791128
  15.5300379   0.5098062  17.5457186  76.2884140  23.2006264  49.0616894
  75.8349371  23.8582778  48.5343504  75.6243467  22.8859663  49.6750736
  24.2492723  17.9844290  17.5591368  23.5066509  17.7646547  16.9966024
  24.1979837  17.3564630  18.2797331  29.2141978  71.2153791   8.7757820
  29.5377700  70.7525276   9.5486301  29.8147933  70.9608673   8.0752558
  15.3930823  63.3926509  11.4375776  15.6169431  63.1976365  10.5275816
  14.9498860  62.6036786  11.7495626  14.9094614  29.8115063  60.6691074
  14.5820841  30.6832218  60.8908510  14.2691073  29.4662642  60.0470209
  20.4066595  44.5085812  34.6713567  19.6323427  44.0497637  34.3455410
  21.1445173  43.9853334  34.3582892  21.0604596   2.5689948  55.1618242
  21.5955567   3.3541557  55.0459576  20.5741286   2.7278280  55.9708261
  54.5394182  37.2297859  49.2253017  55.2436543  37.4697304  48.6230469
  53.8203287  37.8201485  49.0003300  17.3080890  62.7851962   1.4652866
  18.0899493  63.2172488   1.8091673  16.8936841  63.4460472   0.9105104
  56.3801527  34.7346520  54.4889832  56.6194057  33.8747621  54.1431761
  55.4231977  34.7268891  54.5091677  74.7835445  16.8224943  55.1768112
  75.4480505  17.3857582  54.7800732  75.1702261  16.5440130  56.0069656
  71.7322302  59.1178894  45.1606798  72.6263380  58.9297533  44.8753500
  71.1781645  58.6444712  44.5401049  57.9452514  10.2853209   5.1344627
  58.1348800  10.7312113   5.9599680  57.2692394   9.6454531   5.3576464
  42.5998020   9.7386223   9.5325369  42.5114727  10.6902796   9.4798273
  43.1232309   9.5038563   8.7662882  65.5809784  29.6148348  54.9798489
  64.8829126  29.1372299  55.4279947  66.3678932  29.0934181  55.1383400
  61.2197781  42.7679443  49.8398590  60.3669977  43.0768728  49.5339870
  61.1945295  41.8208790  49.7032547  29.5036523  74.5875885  38.0284476
  29.2973106  74.5095694  38.9598799  30.0703208  73.8382574  37.8450799
  16.0999807  34.1235232  44.7221518  15.8814940  33.3539343  44.1965818
  16.9405207  33.9071560  45.1257658  78.1058057  24.1367935   1.0486120
  77.2936089  24.3689440   1.4988035  78.1199773  23.1797491   1.0584492
  63.5107279  15.3165257  43.9202976  63.5495138  15.7004142  44.7962904
  63.5617065  14.3724859  44.0700340  77.3950417  71.1209797  14.4771666
  77.2693618  71.9879125  14.8629946  77.5861628  71.2944602  13.5554260
   8.6285226  37.0072586   2.4319119   8.1926362  36.7275094   3.2368797
   8.4844701  37.9529402   2.3977512  76.9264030  51.6762400  27.4288440
  77.8133774  51.3238001  27.5015807  76.5345240  51.5177393  28.2876468
  71.8504524  52.9854774  58.7917614  71.3928986  53.6539745  59.3016481
  72.2017336  53.4583998  58.0373192   5.0909933  13.0430949  24.8091984
   5.7628283  13.3083594  24.1810966   4.8187765  12.1735799  24.5158148
  59.6868293  64.8969274  40.0409603  60.5310123  65.3471630  40.0113630
  59.1357677  65.3804885  39.4255471  77.2038873  52.7910076  20.1739210
  76.6774829  52.4357425  19.4577402  78.1038173  52.5535976  19.9503416
  17.8336589  67.4300049   0.5264753  17.9855267  66.5752886   0.9297461
  18.0156867  67.2919987  -0.4030710  69.0255928  51.6362572  23.0849004
  68.6052036  51.1498547  23.7940693  68.5277271  52.4516487  23.0257463
  14.0117106  20.8255649  44.4625902  14.2552122  20.3941488  45.2816248
  13.4267744  21.5344906  44.7299910  75.1201963  16.2709439  59.9601078
  75.7301331  16.0490870  59.2565489  74.2823315  15.9068203  59.6744108
   7.7967390   1.3256493  60.6488991   7.3426184   1.4382915  59.8138475
   7.2154554   0.7662797  61.1641121  66.8950589  68.8567303  12.5904793
  66.6840680  69.2420934  11.7400640  66.0946901  68.9596914  13.1052965
  62.7294588  20.7872605  31.2256479  62.4922895  21.1736870  32.0686531
  63.1534719  21.4992714  30.7466030  13.2437357   6.4714771  26.6384214
  13.1102594   5.5238014  26.6201586  14.1768392   6.5784126  26.8231100
  66.0387897  49.3133211  32.6625538  66.0422850  49.5569706  31.7368913
  66.3729286  48.4164286  32.6754117  63.5369158  31.6937232   6.9928986
  63.5982990  30.8400846   6.5642202  62.6044559  31.8009424   7.1806788
  64.1891432  41.2149239  52.3882008  64.5554543  40.3638840  52.6285744
  63.9505386  41.1211252  51.4659739   4.9666564  43.3921890  26.9878000
   5.2241771  42.5519528  26.6084379   4.5572154  43.8663213  26.2640661
  69.3665886  20.6760144  50.6141138  68.5403633  21.0235381  50.9499836
  70.0396633  21.1092091  51.1390352  47.9718511  58.0762594  64.0284967
  47.2747008  58.3170228  64.6386194  48.6200874  58.7748675  64.1177559
  65.2029276  35.8726382  58.2576704  65.6971788  35.1864552  57.8092337
  64.9193335  36.4602089  57.5572634  31.0763709  49.0619908   5.7196898
  30.2003638  49.2271303   5.3710073  30.9281604  48.5123931   6.4892382
  68.2057285  36.6675711  52.5545073  67.4897146  36.5786624  51.9255018
  68.0149364  37.4812484  53.0211592   3.9848169  28.2490754  43.0982828
   4.0619120  29.1959167  42.9809046   4.5408663  27.8768182  42.4138403
  73.1580400  68.5672617  63.1738234  72.8601074  69.1575718  63.8659286
  72.4011755  68.4754515  62.5950718  66.5328653  57.1631323  21.7191214
  65.6258281  57.4487721  21.6099066  66.7817862  57.4825584  22.5864405
  41.6828505  62.6025509   5.5620379  40.9067790  62.3443817   6.0593313
  42.4194018  62.3386239   6.1134571  72.0445919  10.4432893  48.1055546
  71.1046410  10.6039977  48.1885958  72.3845196  10.5455542  48.9944983
  53.7138319  23.3859754  58.5498047  52.8326273  23.1398153  58.2685280
  54.2953491  22.8387284  58.0219889  50.6373739   2.8331026  35.4706883
  50.8664894   2.4504776  34.6237302  49.6863651   2.7397141  35.5263066
  46.6813040  24.6128511  58.7196112  46.2743711  24.3240619  57.9027653
  47.3673725  25.2206135  58.4436226   9.6056628  22.6664597  10.6126684
   9.6869898  21.8604618  11.1225504   9.5911765  22.3731190   9.7016424
  27.2185199  61.7244528  18.9765638  27.6196734  60.8882116  19.2132277
  26.9713752  62.1170090  19.8138422   4.5017147  17.9452568  24.6615786
   3.8838291  18.1401163  23.9569658   4.1763258  17.1319157  25.0473589
  11.4284452  34.5844603  55.7741022  10.8312925  35.2977991  55.9994698
  10.9686026  34.0932059  55.0933313  45.8170652   2.7109199   5.0668472
  46.6958952   2.8220182   4.7041458  45.7502603   3.3847004   5.7434458
  54.2928648  36.2990212  56.2307072  54.0320158  36.5210652  55.3369045
  53.4729719  36.2915111  56.7246246  64.7236355  42.4532132  21.6713709
  65.6663401  42.4363996  21.8364710  64.6480449  42.6135884  20.7307333
  60.8409739  15.0009406  50.9138012  61.3449955  14.3686795  51.4260912
  59.9682856  14.9862742  51.3067770   8.4245889  70.8806728   1.6142267
   7.9943530  70.3190993   2.2590250   7.7052657  71.3266753   1.1671442
  62.8733253  55.6889296  41.1900043  63.3543539  55.0340509  40.6840611
  63.3949041  56.4871216  41.1058760   3.8868825  71.6060208   7.1509308
   4.3042294  72.3446296   6.7076391   3.0187003  71.9300793   7.3906845
  16.4156437   4.4185024   9.5087141  16.5578747   3.5877138   9.9623579
  15.6514597   4.2608791   8.9542669  78.1325006  12.8401256  43.4939146
  78.7119436  13.0469334  44.2271996  77.2590446  12.7984440  43.8832283
   8.6271795  26.2510085  58.6768818   8.7475428  25.3407955  58.9475441
   8.6923060  26.2276101  57.7221870  16.4272055  47.2700310  64.6053314
  15.6188997  47.6596212  64.9386358  17.0901045  47.4998426  65.2564716
   8.1037554  69.2304134  62.5603819   7.5305399  68.4757757  62.4255562
   8.2153544  69.2798281  63.5097694  70.6502724  43.8570738  49.1261530
  71.1745930  43.0677176  48.9911032  70.3706741  43.8054228  50.0401497
  27.6545684  57.7090286   9.4678158  28.0868213  58.3132242   8.8642115
  27.7644221  58.1115984  10.3292698  14.9478849  11.1149633  59.8660278
  14.9282106  11.5144193  60.7356691  14.5201811  11.7560208  59.2982674
  74.9282265  57.1521425  58.8493824  75.7744741  57.2060633  58.4053183
  74.4599819  56.4558458  58.3887815  49.5301342  15.8088881   2.0583195
  49.7298908  16.7069441   2.3225540  48.8278770  15.5360800   2.6487774
   5.9770521  35.5892777  64.3300581   5.8143934  34.6991944  64.6423531
   5.2508291  35.7701802  63.7333012   2.9766783   9.8045015  32.2665143
   3.4089979   9.9600565  31.4267874   2.0675501   9.6132183  32.0360541
  58.1691790  33.3379912  51.6240263  58.0932808  33.3375335  50.6698418
  59.1117144  33.3148980  51.7893362  11.5547308  53.2145643  57.4454308
  12.3277411  53.1582022  56.8837309  11.8909487  53.5287714  58.2847548
  76.4241743   6.4653856  45.1370955  75.5589390   6.4735717  45.5463982
  76.3472223   7.0737815  44.4021320  31.8116998  15.9069353  10.5787891
  32.1803236  16.2040764  11.4106840  31.1309194  16.5484434  10.3757233
  37.8923988  60.4437834   5.4847187  38.6028766  60.7949930   6.0214705
  38.2704925  60.3646093   4.6089310  55.9091473  30.0992799  60.0434780
  56.0695362  29.2242646  59.6901274  56.4813042  30.1571679  60.8086634
   9.4352023  70.8571385  30.6566328   9.4217984  69.9010299  30.6129450
   8.5805766  71.0923956  31.0178846  48.4308863  35.6859207  49.2005968
  48.3236837  34.9838901  48.5588121  48.8612604  36.3900876  48.7156677
  18.3034548  47.2009897  37.6343179  18.6633715  48.0095863  37.9988265
  17.9740271  47.4529791  36.7716432  54.6608639  31.7580485  50.3283644
  54.1913605  31.1324859  49.7765732  54.0225410  32.4496460  50.5029202
  55.5748892  20.1227403  46.9787121  54.7615385  20.6105018  46.8491650
  56.1184168  20.3594518  46.2271976  26.4840698  10.7291752  13.3394856
  27.3087215  10.3879791  12.9934114  26.4150858  10.3469902  14.2143625
  63.4765203  74.1561507  11.8273396  62.7406438  73.5531710  11.9328445
  64.1814525  73.7665723  12.3445744  11.8425974  10.1425362  61.6533422
  11.6133722   9.3796235  62.1840525  12.4379477   9.8002958  60.9865141
  60.3945684  22.5935149  54.2330599  60.6482029  22.9701447  53.3904171
  60.3002214  21.6571593  54.0582180  36.4086103  10.4530674   9.0563339
  36.5972948   9.6799475   9.5882315  35.7404613  10.9271294   9.5513863
  41.9966984  16.5149009  40.8190060  41.3744831  16.3881159  41.5352488
  42.7287626  16.9850433  41.2181044  39.5755291  13.2231575  16.7435068
  40.1805258  13.9547735  16.8657679  39.2003154  13.3653074  15.8744520
  20.4014620  37.0251155  54.1834307  21.2433180  36.5901637  54.0480137
  20.3572592  37.1724987  55.1281834  59.7934294   6.8629843  35.8594465
  58.8532829   6.8972141  36.0360527  60.1976585   7.2427469  36.6395807
  77.9117393  41.4686584  38.2565355  77.7847910  41.7205954  39.1712189
  77.8824091  42.2949457  37.7742290  47.8648472  38.6052990  43.6005068
  48.5690117  39.2418456  43.4772539  48.1350040  38.0939651  44.3632555
  48.6470938  28.8219547  59.4869614  47.9534960  28.6064363  60.1104307
  49.1281796  28.0025721  59.3712044  63.9851141   4.0797907  52.1794271
  63.2836819   3.9387423  51.5435600  63.5665131   4.5569354  52.8959036
  61.1629851  48.6049436  11.4651722  61.3967092  47.9384028  10.8191628
  61.7506845  48.4403037  12.2025579  60.2385139  34.7846413  18.7232769
  60.3777504  34.1830039  17.9919243  59.3082619  34.6975446  18.9313006
   9.1197142  23.5236120  59.1064739   9.8086199  22.8669786  59.0041065
   8.6143431  23.4689879  58.2954025  74.0049696  50.1289368  35.9506941
  73.7326670  49.4020367  35.3906059  73.2929945  50.7648897  35.8808184
  53.3028364  33.0174541  41.3656902  54.1035271  33.1433177  41.8748951
  52.8067017  32.3629761  41.8573618  78.4133768  54.4414663  41.1186647
  78.3774710  54.8119640  42.0005226  78.3577061  55.2001429  40.5376768
  55.2142715  18.8428760  27.8808737  56.1033630  18.5187232  28.0246592
  55.2441645  19.2475748  27.0139480  30.5639124   8.8282066  18.5942930
  30.4709053   9.4751078  17.8949350  30.9480142   9.3163734  19.3225760
  43.6200475  14.7974401   7.0652002  43.3312511  15.1990992   7.8846497
  42.8946066  14.9436575   6.4580864  44.8125744  30.2189642   4.5067925
  44.5878410  31.0841042   4.1643566  45.7617950  30.1580769   4.3995089
  57.5352478   6.0713964   1.9589609  57.7358913   5.8370071   2.8650707
  56.5853309   5.9749323   1.8913311  42.1880214  69.8078416  17.6731581
  41.8191115  69.2479085  16.9900602  41.4795272  69.9085377  18.3088678
  59.4730616  34.4074965  64.7697878  58.9190769  34.9203706  65.3582573
  59.8383093  35.0513363  64.1629171   1.1560854  34.5623922  40.9380817
   1.8855127  34.6147609  40.3204918   0.5566916  35.2549839  40.6600904
  15.1496236  65.0284837  18.1004328  15.1875035  64.5184468  18.9095396
  15.8605115  64.6786903  17.5632948  53.4141970  32.6698017  62.1835804
  52.6335526  32.9518914  61.7068720  53.9744902  32.2767401  61.5143967
  61.9586356  68.5442327  18.3006472  61.5658720  67.9798888  17.6346964
  62.4148376  69.2218112  17.8016466  16.8933169  63.0883978  37.0061010
  16.2666098  63.8057374  36.9117922  17.5874249  63.2928275  36.3794798
  32.7495384   1.6590672  29.0084833  32.3797321   1.8412500  29.8723692
  33.3253860   2.4031931  28.8326830  54.2877817   0.0806440  31.2241483
  54.7750950   0.3125072  30.4335833  53.7340403   0.8422275  31.3961744
   9.8318609   9.4452000  15.9925950  10.2650675   9.1864932  16.8060052
  10.5189737   9.3930572  15.3282213  59.8637247  38.1656504  46.5305996
  60.6626511  38.6509824  46.7365026  60.0975180  37.2483134  46.6722536
   2.3105177  47.0935583  43.9128971   2.8647741  46.8263102  43.1796789
   1.9978365  46.2707949  44.2890978   6.1988482  28.1187296  50.6927395
   6.7344698  28.9108992  50.7353497   6.7027792  27.4626970  51.1743116
  70.4507542  41.2709045  44.9930525  70.3460836  40.5680037  44.3518019
  71.1061001  40.9394217  45.6069565  26.8875377  69.8726599  59.6284294
  27.3835199  70.6906088  59.5939064  27.1638267  69.4593619  60.4464006
  51.7880106  31.8197155  59.9426794  51.1992741  32.3353934  59.3915892
  52.6654911  32.1062899  59.6894264  46.7549674  70.0078164  56.0817814
  47.3485391  69.5824616  55.4629326  46.2487571  69.2891781  56.4606571
  24.4102701   8.3280349  45.8632374  23.4672388   8.1663591  45.8912277
  24.6514162   8.4971875  46.7739916  62.5151062  38.3087707  45.0510406
  62.5887585  39.2608714  44.9854040  61.9239283  38.0646133  44.3389130
   8.4475676  53.6525987   2.2332043   8.5640447  53.5626243   1.2873882
   7.4985568  53.6654161   2.3575062  73.3262062  46.1018038  60.9506655
  72.8265381  45.5376720  61.5408516  73.4381533  46.9183302  61.4374781
  74.4513988  41.5505934  52.1556807  73.5994434  41.3917875  52.5621080
  74.4948578  40.9204388  51.4364767   0.8493074  54.9461031  52.6701403
   0.5028280  55.6919527  53.1599331   0.8398851  55.2338314  51.7572546
  51.6765213  15.2626598  29.1085815  51.8028307  16.1591744  28.7978745
  52.1785402  15.2182412  29.9223614  26.4241218   6.9736200  33.0764956
  26.8013668   6.8930965  32.2004599  27.1703338   6.8780428  33.6683172
  24.6345171   9.8355985  16.7522299  23.8748297   9.6512032  16.1998641
  24.3395075   9.6341437  17.6402712  11.9670932  49.7378253   6.6518778
  11.8509929  50.4368805   6.0083908  11.3661353  49.0489148   6.3681788
  67.1508837  48.2241821  35.3986001  66.7761469  48.8580799  36.0101390
  66.6965294  48.3906603  34.5727229  65.7001972  45.5066204  35.2600479
  66.0715675  46.3883972  35.2879453  64.7952938  45.6185150  35.5513573
  54.5335102  31.6940093  56.7058086  53.8111591  32.3129153  56.8125820
  54.2725849  31.1468506  55.9650183  77.5176556  55.7215689  26.8328947
  78.4080489  55.3706895  26.8151850  77.0758469  55.2907561  26.1011595
  21.8003194  55.7442187   1.5352768  22.7283494  55.6477295   1.7490143
  21.7714612  55.7237898   0.5787319  49.4203107  74.5200478  62.3486471
  48.7132852  74.6459634  61.7158031  49.1107003  73.8143371  62.9164028
  19.6559875  66.9662087  53.4678888  19.7528045  66.0145669  53.4327269
  20.4923789  67.3040455  53.1476545   9.6835836  37.9728961  49.9158716
   9.9527678  38.1389546  50.8193064   9.9630388  38.7522864  49.4355774
   3.4825262  24.7329831  62.7091789   3.7431749  24.1865754  63.4506226
   3.5906729  24.1669965  61.9448519  51.8926907  35.2293539  48.8593102
  52.2816229  36.1030126  48.8183165  51.1192703  35.2849150  48.2980871
  40.3860442  70.7741993  51.3476610  41.2204473  71.1975708  51.1457682
  40.1488797  71.1119591  52.2113228  64.9653769  53.2648611  62.1464777
  65.7645273  53.1526756  61.6316843  64.2577839  53.0397987  61.5424156
  69.9043305  75.2903818   0.6620401  69.8881896  74.3688415   0.9203714
  70.6233533  75.6684779   1.1682838  72.1371412  34.8168254  30.9912491
  72.8969288  35.1713347  31.4530730  71.5675926  34.4859934  31.6857934
  79.2091036   3.4367338  32.7435660  79.9185896   3.9091453  33.1791043
  78.9357758   4.0169859  32.0330524  43.9468431  12.3172963   5.1702803
  43.7994671  12.7700686   6.0006469  44.5887423  11.6383827   5.3783017
  56.6219051  60.3981374   8.0094284  56.3711746  60.6688832   8.8926405
  57.1246178  61.1368226   7.6661247  62.4070168  34.3467212  41.3855076
  62.4696445  34.6652031  40.4850197  63.2553053  34.5597291  41.7744398
  75.1549785  65.6358068  47.2544336  75.3956859  65.6081723  46.3284016
  75.5361621  66.4525502  47.5767136  18.1534037  28.4443974  26.3671088
  17.7775988  28.5907340  27.2352052  18.8871893  27.8493190  26.5209866
  11.0607180  38.9404106  45.9937477  11.7466673  39.4360447  45.5464697
  10.4052004  39.5971465  46.2287474   9.9066226  73.8750290   2.1091599
  10.5792300  73.2584547   1.8199152   9.1058890  73.3524607   2.1536917
  71.6649294  48.4550858  34.0802002  71.8056631  47.5950480  33.6842680
  71.8191242  49.0750456  33.3673835  64.4554520  37.6303816  41.1686325
  64.6369648  38.5700488  41.1862469  64.2374277  37.4456382  40.2550888
  46.2939644   3.9324480   0.3364605  45.5954694   4.5862347   0.3663868
  46.3156414   3.6467510  -0.5768543   3.8205275  35.9551835  62.5480461
   4.3257937  36.2777448  61.8017912   3.4801611  35.1085711  62.2588634
  73.7660313  13.7331533   6.8058002  73.7913942  13.5837245   5.8606762
  73.1871939  13.0484915   7.1410871  47.3934810  58.5727261  16.9806952
  46.6496531  58.6719535  17.5749105  48.0097644  59.2527364  17.2527594
  75.8577776  53.4330559  64.5473146  75.6269884  54.3056202  64.2285681
  76.1143398  53.5712385  65.4590797  57.9119651  60.4048400  57.8878593
  57.4932258  60.4933028  58.7440491  58.8271491  60.6381493  58.0435801
  17.3028564   8.2456499  17.6833052  17.8976774   8.1704622  18.4294695
  16.8069887   9.0468126  17.8520674  69.5964718  51.5808964   9.3382394
  70.3421545  52.0936251   9.6501625  68.9559460  51.6337681  10.0475800
  10.3276190  37.6203632  53.4381151  10.2423033  38.4615302  53.8868809
   9.8314318  37.0078111  53.9810801  37.3870277  26.9187122   0.6987280
  38.1539774  27.3860651   0.3676600  37.0754480  26.4094645  -0.0494772
  69.7713518  53.6066866  26.0075521  69.5024157  53.0272341  26.7203927
  69.4121552  53.1993723  25.2193236  71.7665434  59.2191887  48.1424093
  70.9590912  58.7188959  48.2605553  71.7281628  59.5254135  47.2363281
   6.4880594  62.8892756  29.0239453   7.3881182  63.2024956  28.9343691
   6.5674433  62.0679808  29.5091319  62.2475576  53.9638042  55.1562738
  61.5276861  54.3844938  54.6861267  62.6910257  53.4357595  54.4923925
  77.0077705  50.9096384  30.1179981  77.0494843  51.6814756  30.6825829
  77.9118586  50.5989075  30.0699258  59.5512836  67.1517383  64.5451021
  59.7543590  66.8645786  65.4353428  60.3286044  66.9217484  64.0360689
  11.8353018  49.8210573  41.5084982  12.4631819  49.1896629  41.1573029
  11.0020765  49.5810843  41.1030722  66.0413694  56.3430262  42.6593113
  66.3904190  55.7703304  41.9763613  65.8993006  55.7638645  43.4080553
  35.0153541  14.7429710   2.8832478  34.6005153  14.4013649   3.6753601
  34.4186353  15.4252296   2.5755400  79.1343975  50.5694962  54.5189190
  79.1375303  49.6338272  54.3170643  78.9730024  50.6106234  55.4615211
  12.4058851  38.3082491  10.3889412  13.0341181  38.6842686  11.0055155
  11.7353185  37.9095131  10.9435410  39.7194163  73.8863586  14.7408289
  40.6581656  73.7974404  14.5763201  39.5480220  74.8236750  14.6497673
  50.7545328  65.1933390   3.6154408  50.0739813  64.9838549   4.2551226
  50.3433561  65.0310236   2.7664322   5.9704241  33.0723119  10.5046976
   6.2687811  32.4258566   9.8649251   5.1534304  33.4116411  10.1391661
  63.1849241  34.4550681  38.5823774  63.4426403  33.5355997  38.6486435
  64.0082741  34.9258852  38.4533191  14.7727601   7.9738910  43.7715960
  13.9416615   7.7114398  43.3758402  14.8912446   8.8836868  43.4987068
  36.4444351  21.2590414   0.9691090  36.4318084  20.4003530   0.5463499
  37.2294616  21.2449318   1.5166182  65.0333595  63.0016851  37.0525932
  65.2224874  63.7720203  37.5883603  65.6205273  62.3252249  37.3900294
  62.6277590  33.9914060  44.3611145  61.6817093  33.8502479  44.3971300
  62.8182983  34.1008377  43.4294748  67.2565842  52.6082468  45.2033710
  68.1859398  52.5115395  45.4111671  67.0445776  51.8309736  44.6865225
  14.2710416  68.4376882   2.5503105  13.5705535  68.6451529   1.9318384
  13.9100234  68.6667250   3.4067244   8.6090827   1.5873843   2.6814074
   9.1976475   2.0689827   3.2626862   7.7916431   2.0849615   2.7024311
  58.9069080  66.0209179  44.2271090  59.2825174  66.5826416  43.5491610
  59.5025110  65.2731705  44.2757130  36.1617422  26.1313587   8.8830132
  36.3921976  27.0022875   9.2064375  36.5466737  25.5296474   9.5202011
  17.7078549   2.9459483  49.4416904  18.3288638   3.1850965  50.1297188
  18.2491605   2.8268869  48.6612797  16.3251209  33.4392506  10.4136080
  15.7315159  32.9882532  11.0139936  16.3466024  32.8828388   9.6350330
  47.7260542  38.4900766   0.8457941  47.6276111  39.2951542   0.3374714
  46.9775676  38.4905058   1.4424509  74.7803736  45.2492428  49.0898275
  74.8033905  46.0976934  48.6472940  75.0418139  45.4416132  49.9903107
  25.5556631   6.9630486  12.2740120  24.6185398   7.1487862  12.2145599
  25.9425926   7.4475246  11.5447659  11.9369921  49.5948172  22.2095561
  11.1583170  49.6683931  22.7613521  12.3993525  48.8283968  22.5487375
  46.6699266  67.8953981  48.5777807  47.5065231  67.5358438  48.2827234
  46.7174673  67.8596592  49.5331335  33.4573316  26.1983019   8.5997814
  34.3742180  26.1007744   8.3428043  33.4850788  26.3043409   9.5506853
  12.7639898  24.5939732  54.2563391  12.1847853  24.6512890  53.4964228
  12.1942267  24.7684002  55.0054550  64.1560555  38.5378909  50.4478979
  65.0450659  38.8699818  50.5728149  64.2406416  37.5884032  50.5348015
  27.8227934  57.8467512  61.0477638  27.9345259  57.1685457  61.7139339
  27.7026495  58.6548758  61.5464926  74.3389559  45.2270794  64.5352697
  73.8985825  46.0564232  64.3495417  73.7523460  44.5595169  64.1796255
  36.8882084  13.9490324  16.3048834  37.5331258  13.9150530  17.0113939
  37.4069500  13.8789516  15.5034918  61.4349222  49.2683172  58.0890942
  61.2587881  48.7543726  57.3010159  62.1826744  49.8179102  57.8544664
  74.7118950  51.8203306  39.3295765  74.4952488  52.1004915  38.4403038
  75.6096029  52.1239662  39.4643426   6.0397848  44.5042324  50.1168346
   6.5427527  45.2123213  49.7145176   6.6135630  44.1625023  50.8025646
  20.8908972  50.2777386  35.2259183  20.7706198  50.9602499  34.5656562
  20.9161600  50.7508802  36.0576224  15.1663813  70.0888729  59.6700621
  15.9287962  70.2220154  59.1068220  14.4155535  70.2542830  59.0998602
  73.2686615  49.6802759  54.2082262  72.8397989  49.2189646  53.4874630
  74.1978550  49.4750166  54.1047955  24.7270457  56.5736543  23.7904066
  24.5294396  55.9123467  23.1271929  23.9123599  57.0667790  23.8871187
  27.6094946  57.0760727  56.6239166  27.3541578  57.5779247  55.8498478
  27.9919085  57.7249527  57.2146368  78.9859152  43.3300066  47.8836775
  79.5996904  43.8116217  48.4382534  79.5338488  42.7103090  47.4020290
  72.9655933  29.6761155  37.8045583  73.5443354  29.2446017  37.1759987
  72.0843697  29.5203924  37.4648237  70.5824423  30.1907730  43.0280495
  70.8487034  29.3078423  43.2845020  71.4057016  30.6657910  42.9147482
   3.7983450  21.4497828  22.7159190   4.6316275  21.1649609  23.0910683
   3.3496508  20.6366587  22.4841022   8.8851484  47.8046799  30.9918594
   9.7272238  48.1235600  31.3165855   8.2963213  48.5546017  31.0763669
  14.6799628   3.9376981  42.1931839  15.5799071   4.0610034  42.4950552
  14.1454617   4.0578420  42.9781055  19.9155554  48.9332867  11.7054808
  19.9105391  49.2811012  12.5972366  19.2033514  48.2938671  11.6937780
   1.0386499  55.6201458  13.3696830   0.5272993  54.8390627  13.5810220
   0.8088526  56.2491560  14.0536189  16.3559183  14.9682605  52.8191900
  15.7008013  14.3984568  53.2221460  16.7129835  14.4500339  52.0979548
   7.1352355  61.6280888   6.7575497   6.3731067  61.9766639   7.2200293
   7.8856437  62.0284175   7.1967024   8.6559900  35.4113817  62.3089409
   8.2747301  34.5457292  62.1622562   7.9144510  36.0134125  62.2464609
  78.1851721  70.6454086  50.6368637  77.4737310  71.2777615  50.7379150
  78.4480476  70.7251406  49.7199249  18.8643679  31.7493773  41.2106943
  18.4008249  31.7878652  42.0472813  19.2384371  30.8686852  41.1844349
  20.8193144  71.9022846  30.2730608  20.7662901  72.3160553  29.4115424
  19.9117788  71.6941357  30.4950571  68.1511545  28.5836387  56.7939854
  68.1902456  27.6843572  57.1195555  68.1949854  28.4957719  55.8418322
  41.8201892  64.4768857   3.7387604  41.7425887  65.2443336   4.3055338
  41.7379729  63.7309884   4.3329901  16.1628882  21.6075427  54.9554920
  15.2373568  21.4561374  54.7639322  16.5399186  20.7303913  55.0239515
  68.1547022  52.6438713  61.9016457  67.8862715  52.5867271  60.9846306
  68.7906933  51.9366932  62.0095539  11.3165602  56.6256952  53.3559990
  11.8073877  56.4632082  54.1615486  10.4163107  56.7677355  53.6485815
  52.6008749  64.6782112  33.1865072  52.2711277  64.8648214  32.3074889
  52.7729511  65.5400705  33.5657406   3.7142500  49.8117638  34.5223761
   3.2948908  49.5922995  35.3543639   4.6268877  49.5467854  34.6369290
   9.2492804  24.8275113  19.4997740   9.1420969  25.7731962  19.6018684
   8.3683523  24.5059395  19.3080044  68.5479784  53.9874554  52.9756784
  67.5941038  54.0671349  52.9740047  68.8398838  54.6184635  53.6335993
  18.8551935  51.7848492  52.5302744  19.0290007  52.1807194  53.3842707
  19.3292746  50.9535456  52.5506783   3.9085516  40.2861500  62.1221352
   3.4719214  41.1068392  62.3502779   4.1654429  40.3979111  61.2068462
  76.1069489  50.3593063  46.0924673  75.6961536  50.0935650  45.2697515
  75.3732061  50.5794001  46.6664076   1.8501791  53.7982035  44.8209143
   2.5108847  53.1279850  44.6462440   2.1853098  54.2723131  45.5819225
  79.5871337  53.1705176  14.1177839  79.0527327  53.6408590  14.7576469
  79.4493277  52.2460030  14.3239731  71.2032318  47.3448753  25.6382060
  70.5698252  47.7612495  25.0536871  70.6807041  46.7422342  26.1673760
  27.1940486  23.8057430  42.1108913  27.8005950  23.1917102  41.6970158
  26.3361613  23.5694606  41.7581320  19.6944174  60.6508827  54.0979862
  19.3196138  61.4633322  54.4381046  20.5674490  60.6081104  54.4881535
  78.5303307  74.1206598  49.1287136  77.6637363  74.2903328  49.4981241
  78.4308386  73.2956505  48.6536407  59.4188881  32.7105528   0.2137894
  58.7275696  33.2394749  -0.1844030  59.8933506  33.3215958   0.7774681
  77.8129339  52.8774023  34.4844484  76.9491005  52.4981737  34.3225503
  78.4277582  52.2232580  34.1523099  68.4023285  50.5138969  39.1932940
  68.1959915  50.9676886  38.3761430  69.3578768  50.5361843  39.2449427
  76.5793324  43.5737371  58.6844444  75.9634399  44.2576027  58.9475870
  76.2004900  43.2042122  57.8868484  75.3282213  58.4892654  36.5596271
  75.6712484  57.9617691  37.2809553  75.2293348  57.8703117  35.8361959
  61.9901609  61.8427515  45.2993345  62.7410793  62.4337387  45.2437592
  61.9545984  61.5866804  46.2209606  65.7656534  16.6746528  42.5990629
  65.3487118  16.6783531  43.4606743  65.0555117  16.4716060  41.9902086
  18.8462448  11.1991793   9.3894047  18.7473821  10.3807598   8.9029354
  19.7911405  11.2936121   9.5097727  47.7020805   9.3385364  44.8365336
  47.5780265   8.4265949  44.5734650  47.3326699   9.8482038  44.1154176
  72.7931976  40.2863693  12.0584011  72.3070049  39.4815159  12.2374463
  72.8876114  40.3023195  11.1060023  63.8704491  55.3416538  38.2620502
  63.3786154  55.8048153  37.5839543  63.3586931  54.5505762  38.4309936
  46.8020057  46.5280634   5.8075708  47.4984693  46.1057859   5.3047318
  46.8676567  47.4545961   5.5763477  49.0771532  51.7185122  20.1511854
  48.4502220  51.0837084  20.4978937  48.5463714  52.3163706  19.6248049
  73.0674505  68.9629889  28.9116549  72.7297878  69.5218801  28.2117558
  73.7659168  69.4789934  29.3142915  10.4773745  25.7057476  53.0689144
  10.3448328  25.2516508  52.2367764   9.6075186  25.7343602  53.4673595
  22.8212563  74.6797918   2.8344721  22.5954310  74.2342423   2.0179457
  23.6290852  75.1524590   2.6339144  53.6930529  73.6027979  29.3075651
  53.9627044  74.3564771  29.8324293  54.0132586  72.8441690  29.7955984
  71.9250822  37.4213624  43.8723278  71.2134695  36.9604874  43.4279919
  72.7189684  36.9709539  43.5840416  79.7428370  50.2520609  35.5582428
  78.9453077  50.2662182  36.0873699  80.1432610  51.1089039  35.7055807
  74.9840450  38.5598302  50.3490877  75.9354925  38.6576152  50.3867674
  74.7476006  38.8547611  49.4696903  53.9992666  35.5922556  42.8799200
  53.5093689  35.8175063  43.6707973  54.0246296  34.6353936  42.8782749
  29.5715777  15.9053237  58.1183624  29.3730895  16.7722804  57.7644873
  28.7689273  15.4017551  57.9827309  55.3836536  28.9109612  11.9751227
  56.1234140  28.3207130  12.1186101  55.6891966  29.7599745  12.2945702
  64.0918016  58.2033730  42.3016214  64.4567633  59.0593195  42.0771456
  64.8538685  57.6695251  42.5263214  46.4366214  70.7118835  63.0194426
  45.8341424  70.0451319  62.6897478  46.2082021  70.8047899  63.9443350
  74.6468592  33.4314561  64.2284203  74.2238808  32.7400351  64.7375965
  75.0179243  34.0200901  64.8857260  20.9466776  61.5460205  32.7644181
  20.0187906  61.6475010  32.5524044  21.4029440  61.7568588  31.9498038
  72.4194765  28.3296418  56.6567183  72.5543976  28.4462714  55.7162762
  71.7631769  28.9869666  56.8878603   1.0598294  62.1799778  13.4755939
   0.8637397  63.0155085  13.8994736   0.2467601  61.6796278  13.5448736
  74.0063620  50.3522158  50.7137966  74.2604637  49.8277187  51.4731169
  73.7470770  51.1968374  51.0820580  30.9411764  37.2285944  15.0447077
  30.1683283  37.1792417  14.4821257  31.6291141  36.7880541  14.5458168
  53.9706421  18.6193520   7.2985930  53.2146549  18.0502659   7.4430365
  54.0330982  19.1421371   8.0979818  74.2554903  15.5190551  44.5354748
  75.1945448  15.5274463  44.3501568  73.8619804  15.1181877  43.7604380
  42.0835209  16.2343555   0.9648031  42.0558834  16.5153366   0.0501913
  41.8178701  15.3150612   0.9410757  77.9590416  63.3891821  47.8765345
  78.6954021  63.4061527  47.2652102  77.4190617  64.1373968  47.6218987
  24.9664244  59.8592567  54.5993948  25.6885370  59.2933321  54.3264294
  25.2595839  60.2388906  55.4277468  27.1174876   9.8562534  20.2695560
  27.0907275   8.9296157  20.0310922  27.8188102   9.9164874  20.9182048
  47.2372103  59.8776770   5.0362140  47.2163296  60.0278616   4.0910995
  47.3227882  58.9285564   5.1260799  75.3795195  24.0904927  63.7428665
  76.2100601  23.8230014  63.3493185  74.8387671  23.3009768  63.7208414
  63.0495405  43.1433105  60.2443886  63.2716131  43.4812975  61.1119604
  62.0972967  43.2252693  60.1919508  47.9260111  19.0929657  13.3809704
  48.7798071  19.5247084  13.3516544  47.3060226  19.8001104  13.5592693
  33.8746485  54.5944452  20.1731682  33.8829359  55.5246449  19.9475646
  34.2221483  54.1564560  19.3962264   6.7743334  59.7932005  38.5532451
   6.7501387  60.0680494  39.4698167   7.5268873  59.2041111  38.4996319
   1.3550600  33.3924866  36.0954881   1.1168036  32.9604602  35.2752328
   1.0776171  34.3009162  35.9771061  50.4156558   0.9943349  47.7386808
  49.8748271   1.4801795  47.1160316  51.3137595   1.2451560  47.5225067
  71.9783497  19.7749448  55.7143974  72.5925493  19.9396551  56.4298439
  71.6135502  18.9109826  55.9060240  71.6173124  70.1474810  48.6619091
  71.3067436  69.4615316  49.2528868  72.2162104  70.6700563  49.1952610
  67.2978449   8.9345026  36.7643547  67.9154110   8.3882499  36.2780905
  66.4401007   8.5556328  36.5720820  54.7699547  63.9452124  12.9571521
  55.0582886  64.7393084  13.4071565  53.9362621  64.1876125  12.5541222
  30.7202562  59.5997572  24.0666914  31.1905989  60.2270746  23.5176134
  29.9072680  60.0479746  24.2999053  15.1431498  57.7971125  42.8880167
  15.4770884  57.2413826  42.1838284  14.8947462  57.1838808  43.5797358
   0.2611860  59.8714876  40.6833982  -0.1907888  59.6473026  39.8699522
   1.1608442  59.5743370  40.5472517   6.8534216  15.4219532  46.4959097
   6.9652018  15.3147602  47.4404955   7.7159628  15.2277911  46.1290932
   4.8045858  10.3019726  24.3933153   4.3778833   9.7050023  25.0079513
   5.7335505  10.0776219  24.4473386  48.5215338  72.7615641  36.8404287
  47.7841194  72.1514462  36.8547911  48.2993992  73.4212779  37.4974436
   5.0103506  39.4743299  59.2490816   5.0669321  40.4099655  59.0551329
   5.8430704  39.1153932  58.9425135  60.7791615  28.3264256  52.8633070
  61.3322020  28.5244083  52.1075392  60.6292391  27.3825598  52.8096867
  71.9443560  42.9793453  41.5118456  71.1510849  43.4978867  41.3774395
  72.1221733  43.0523062  42.4495506  34.3894164  24.3578632  49.5349789
  34.6907966  25.0498779  48.9463234  33.9798419  24.8245914  50.2634287
  20.5169519  70.3693771  54.5513773  20.3444895  69.4750881  54.8458767
  20.0908121  70.9233093  55.2054405  63.3816862  56.6872311  44.5933819
  63.6668253  55.7744980  44.5503855  63.6600876  57.0646858  43.7589645
  62.4978542  67.7648163  63.2562399  62.4068403  68.5309935  62.6897430
  62.0922804  67.0522213  62.7623272  49.8349333  41.4637524   0.2313370
  49.1457319  41.2208134  -0.3869015  49.3974065  41.4826780   1.0824770
  71.4512570  68.2845472  19.8849386  71.7976125  68.5087083  19.0212149
  70.6589539  67.7796839  19.7016233  17.6602554  54.4650274  10.3722853
  16.7490101  54.7471434  10.4514927  17.6136112  53.6348825   9.8980326
   2.9614672  39.8073912  32.7458262   3.2553801  38.9501905  32.4375200
   3.2161745  40.4126596  32.0494008  53.9359426  34.9804759  50.5500746
  53.3077526  34.7341347  49.8711586  54.1151905  35.9063125  50.3859663
  24.9077066  62.2091246  30.6016827  25.0273737  62.1619844  31.5502024
  24.0820822  61.7520857  30.4414248   1.7739328  34.9936157   3.5635895
   1.0154566  35.3386456   4.0346569   1.5349516  35.0654751   2.6394934
  54.1935253  14.6673113   7.5086063  53.4762382  14.3546873   8.0599636
  54.9866199  14.4124657   7.9800743  55.2677870  50.3250885   7.3307186
  55.6882572  49.6296215   7.8364432  55.6854677  50.2817678   6.4705437
  12.8417396  35.9676844   4.6159262  13.3076358  36.7714077   4.3852800
  13.5112905  35.2844864   4.5816797  60.7171313   9.1864784  14.6086991
  61.4364974   9.6088130  14.1392648  60.7726066   9.5371826  15.4976094
  20.0508246  73.8696909  55.5560446  20.4305777  74.7477388  55.5236149
  19.9906572  73.6691093  56.4900589  44.6536779   5.8087784  10.4721922
  44.3696975   6.7042213  10.6559462  44.4422149   5.6752878   9.5482344
  58.8358402  41.9550281   5.1151604  58.9461040  41.0044771   5.0922770
  58.5921669  42.1461445   6.0208839  10.6232802  54.3181883   7.4778456
   9.8458068  53.7793206   7.6241058  10.7668654  54.2798208   6.5322584
  59.6602583  60.8952570  38.2200313  60.4062605  61.4601469  38.4215498
  58.9258623  61.4989901  38.1086659  35.4967181   7.0176322  42.3210478
  35.4905764   7.9319293  42.6043463  36.2916819   6.9354541  41.7942476
  30.2138456  62.2560406  55.9823847  31.0954317  62.5556087  56.2043905
  29.6661791  63.0359364  56.0721302  14.3182215  38.7121677  50.5371809
  15.1612410  38.7233257  50.0839376  13.6735949  38.5860443  49.8409176
  10.4654567   7.3524196  38.1761622  11.3017861   6.8879516  38.1436563
  10.6698481   8.2355697  37.8687334  34.4347827   2.5347860  20.9215522
  34.7895018   1.7993696  20.4219913  34.9607150   2.5571544  21.7210054
  48.0893659  12.0572716   6.5501350  47.5647926  11.6715198   7.2517389
  48.9923382  11.9869858   6.8598551  13.2879893   3.8065059  54.4175291
  12.7806966   4.4123132  53.8772678  12.7863757   2.9914768  54.3989706
  39.6539354  53.4844786   3.3391565  40.6012773  53.4814363   3.2021851
  39.3910169  52.5725370   3.2148022  60.5078411  61.0507006  59.0424651
  61.0322285  60.4922027  59.6163380  60.0139594  61.6118163  59.6403450
  50.0368452  15.5300391  59.8067045  49.1205454  15.7312775  59.6166229
  50.5341196  16.1316431  59.2526054  68.7372255   7.6353264  35.0362992
  68.4203672   7.9566425  34.1921496  69.5812845   7.2303069  34.8368979
  45.4831378  59.1188638  26.4970279  45.9304015  59.6354394  27.1673536
  44.6401755  58.8939397  26.8908024  38.7015168  68.6841821  50.4441690
  38.8789336  68.2368176  49.6167517  39.3506353  69.3867140  50.4805899
  43.5198069   8.1355011  30.2131748  43.0737638   8.8574886  30.6559062
  44.4512415   8.3323449  30.3127360  61.2553024   2.1219388  26.0887790
  60.8581066   1.4522654  25.5319977  60.6859303   2.1631747  26.8571186
  13.9805619  27.0603167   4.5368666  13.3441369  26.7333792   5.1727194
  14.7120921  26.4454900   4.5923704  52.0568657  31.4755964  10.6743300
  52.0064402  32.1057773   9.9556077  51.8153620  31.9791174  11.4517462
   4.7991745  62.7530556  49.1141415   4.8804609  61.8060296  49.0011549
   4.0810578  62.8590601  49.7380829  10.3391998  60.1198619  45.6647825
  10.5672352  60.4885190  44.8113632  11.0469548  59.5046835  45.8567905
  57.5814342   4.2182079  19.1306770  57.8583479   3.4236991  19.5870841
  57.8989887   4.1029602  18.2350707  56.6971445   5.6790233  21.2449861
  56.7724323   4.8637220  21.7408156  56.8636894   5.4237717  20.3376055
  69.2670059   7.1318603  47.5277042  70.1560354   7.4865198  47.5190878
  69.3828344   6.1917371  47.3899221  25.2270715  70.4876195  13.4639823
  25.8648412  70.3256827  12.7688169  24.4888656  70.9043511  13.0194390
  62.9621764  52.1082132  35.3150558  62.1428480  52.5891416  35.4318571
  62.7273478  51.3670485  34.7567034  41.2596051  61.4684098  32.8122401
  40.9926812  62.0983629  33.4816718  40.5123679  60.8759611  32.7293277
  19.9920957  64.7526674  24.7602630  20.2196662  64.8822074  25.6809473
  19.5837323  65.5771302  24.4961882  56.4425182   8.2377046  30.3626895
  56.3167667   7.9574168  31.2692523  57.3916340   8.2292384  30.2388382
  40.0747935  71.1992704  24.6069694  39.5670478  70.7700260  25.2955747
  40.9858100  71.0981764  24.8827577  77.7354431   9.9281973  45.5269241
  77.5472307  10.7150793  46.0384130  77.0324039   9.8902106  44.8784447
  73.8719225  25.7524753  56.7439222  73.1333017  26.3172650  56.9712639
  73.6673737  24.9131346  57.1561098  40.1797676   5.9668714  38.1880403
  40.5900478   5.7697284  37.3459935  39.7776580   6.8264848  38.0631256
  70.5457258  12.4269569  34.9308991  70.0547409  12.2286308  34.1335082
  69.8984003  12.3623776  35.6330585  60.8514214  30.2151513  33.6007190
  59.9553394  30.4336476  33.3447313  61.0606337  30.8386922  34.2961740
  42.8222673  58.4050422  64.2318249  42.8248756  57.4750738  64.4585085
  41.9198434  58.6859613  64.3833160  48.9524889   3.3201921  18.6690247
  48.7234640   2.4235892  18.9137375  48.1123638   3.7400651  18.4842861
   1.3772806   1.1741883  46.6294193   0.7069906   1.8329272  46.4477730
   1.9878134   1.2450590  45.8956242  17.7672419  16.9935369  46.0461569
  17.3554453  16.8344235  45.1968384  18.7060293  17.0013428  45.8594561
   7.8406462  56.2725353  10.9616590   8.2619032  57.0641851  11.2964320
   7.0241198  56.2079573  11.4569855  75.0876856  33.9637494  16.9595528
  75.7680464  33.3549905  17.2472239  75.5324078  34.8092747  16.9000649
  25.6194751  61.1577134  61.6267014  26.1154906  61.1967807  62.4444246
  25.0113647  60.4288595  61.7500305  50.5049086  32.5577259  12.9338038
  50.8891487  33.4049296  12.7083313  49.5600176  32.7023911  12.8839374
  53.2627456  58.2616418   8.0872244  52.9006927  59.0987818   8.3776486
  53.9673965  58.0770927   8.7082219  50.2994919  20.0515866  31.2795997
  50.0285769  20.4287434  32.1166110  50.0388384  20.7025337  30.6280160
  76.4713907   5.1425570  13.8099945  75.7914019   5.0700617  13.1402230
  76.3979816   6.0418749  14.1294789  55.1466720  66.2364160  58.7646151
  54.5148627  66.7458027  59.2721319  54.8965900  66.3847767  57.8526497
  25.1905410  58.4412788  29.5454210  24.7758548  58.8574408  30.3011126
  24.5625417  57.7760552  29.2637629   5.6727346  17.2242248  17.9841852
   4.8229441  17.6132464  17.7774453   6.3013586  17.7393746  17.4785328
  70.8472300   0.7783545  53.1723881  71.0300970   0.8573279  54.1086340
  71.4373875   1.4085416  52.7590895  60.5254793  16.7074943  37.8787708
  61.2623739  16.1083043  37.7596569  59.9857044  16.2925386  38.5515904
  61.2640731  73.6997322  62.8982878  60.3734080  73.8933380  62.6059532
  61.1559169  73.0155980  63.5589647  60.2858591  21.3643670  45.7546234
  60.3628731  20.4105926  45.7794189  59.8891163  21.5945435  46.5947676
  15.9168276   6.9698173  27.5393033  16.1393484   6.2652481  28.1478238
  15.4629931   7.6175475  28.0784774  69.4651270  29.7357392  17.9520249
  68.7281466  29.6188211  17.3525059  69.6259069  30.6793380  17.9527688
  64.7349612  67.5029980  43.5045385  64.9278800  66.5833097  43.3223629
  65.2807586  67.7168738  44.2612410  57.5358017  65.0227831  18.8560385
  56.8723662  65.5792140  19.2640490  57.8906854  65.5556606  18.1444735
  76.0565853  22.5355744   7.7001083  76.9029188  22.1655726   7.4490130
  75.6472635  21.8557024   8.2353264  14.2712339  43.5785961  57.7088547
  14.8400148  44.1402245  57.1822739  13.8616213  42.9903984  57.0744419
  52.2145383  62.5930100  63.1794262  51.7497127  63.3808558  62.8975296
  51.9844358  62.4969189  64.1035748  29.4074663  32.6408672  22.5494003
  30.1178297  32.0800519  22.8610253  29.6679243  32.8862500  21.6616035
  20.1593304  13.4737253  29.0381598  20.9360743  12.9204834  29.1207528
  19.9439752  13.7200594  29.9377012   1.7796454   5.2138358  31.2875319
   2.2734579   4.3962610  31.3503671   2.3709616   5.8785522  31.6406989
  52.5812531  10.7749808  51.9529438  51.9507647  11.2392068  52.5035906
  53.1695175  10.3443420  52.5732040  51.6301505  67.7080046  41.2042332
  51.2479036  66.8331038  41.2725735  51.1595647  68.2266175  41.8567848
   3.3564695   9.9107856  13.7692213   4.2752585   9.6532398  13.6935806
   2.8668436   9.1129816  13.5691941   0.3615094  52.1121566  52.4185658
   0.1617337  53.0476372  52.3840046  -0.1512526  51.7848818  53.1576157
   4.4962153  46.5712070  34.3094730   4.7258028  47.4798632  34.5040727
   4.4366964  46.5384197  33.3546877   4.7115358  45.5526686  64.5748138
   4.2548689  45.1242304  65.2987814   5.5122694  45.8993196  64.9683809
  75.8052921  13.8088024  27.5843620  75.5340815  13.0942678  27.0080662
  75.9389257  14.5526791  26.9969773  62.9162025   9.7930306  45.3918123
  62.7607346   9.2082542  46.1334991  63.4278870   9.2682314  44.7761869
  25.2500510  21.9509435  63.3328390  25.2854991  22.4731445  62.5314140
  24.7189856  21.1895823  63.0993176  76.4052677   7.6457006  52.8022289
  76.4876032   7.0494318  52.0579720  76.2592173   8.5046816  52.4059296
  63.3631516  19.0116286  47.9756212  63.6188507  19.8528183  48.3541059
  63.1639481  18.4594512  48.7316990  15.9632747  72.8989549  42.9308176
  15.0385968  73.0610557  42.7439260  16.0396449  71.9450482  42.9522991
  40.6716824  10.2394819  52.9548359  40.7660723  10.6982279  53.7896252
  41.5483236   9.9054909  52.7646255  39.0977351  59.6718519  32.4631214
  39.6742599  58.9241223  32.3057938  38.4139268  59.3300228  33.0391359
  46.0082567  27.4475891  64.7722289  45.1569522  27.5668580  65.1932833
  45.8851350  26.6967052  64.1914991  66.6649342  38.7553859  14.4135439
  67.4832201  39.2519522  14.4213462  66.2954807  38.9161587  13.5452771
   3.1859049   7.1792871  29.2111468   3.7821611   7.8888440  29.4503903
   2.3132166   7.5666344  29.2790318  59.8651855  54.2638343  64.5982122
  60.5906837  53.7290661  64.2758512  60.0438087  54.3717449  65.5323839
  53.1318140   5.4803735   6.1957091  52.4358416   5.5261558   5.5401528
  52.7075624   5.1106614   6.9700187  47.3517466  15.2100492  37.5236964
  47.5991869  14.3060935  37.7182913  47.4783993  15.2949131  36.5787172
  26.3282220  74.9175393  62.4714994  25.6366651  74.3040911  62.2231865
  26.0707633  75.7455803  62.0661688  70.7045014  22.5057267   1.3150114
  71.4077266  22.5073742   0.6656260  69.9969180  22.0119785   0.9005541
  65.8496428   1.3503024  54.7142029  65.9298849   1.6102365  53.7964725
  66.1193991   0.4319963  54.7275066  36.4391088   9.7449070  39.2575693
  35.9738922  10.3542066  39.8307681  35.7479978   9.3143350  38.7543750
  77.3131943  41.4632511  49.1518593  76.4158773  41.7501879  49.3213415
  77.7202702  42.2033024  48.7014771  63.8523261  54.1626423  13.6352086
  64.0546195  54.9900620  14.0718842  63.2484405  54.4038909  12.9328179
  28.4827456  28.4578943  46.4420557  28.3762964  27.5100327  46.3616943
  27.6026186  28.8098907  46.3089657  79.0699911  10.8185637  17.2934639
  78.8946915  11.7098033  16.9914818  79.8106194  10.9101117  17.8928995
  68.5006523  34.8956776  37.8592730  69.1079807  34.3295836  37.3829126
  68.7585783  35.7841253  37.6135802  35.9816933   4.2515546  46.0488033
  36.3604689   5.1103246  46.2366247  35.3364706   4.1173497  46.7430019
  76.4929915  60.6339067  61.8932801  76.4950133  60.9558982  60.9918651
  77.3145199  60.9557456  62.2644180  75.5021095   3.6865610  56.4067841
  76.0754251   3.2566679  55.7721710  76.0762215   3.8993874  57.1425343
  73.3750391  20.3251600   5.2160800  73.0990791  21.2142086   4.9932098
  74.2118073  20.4399347   5.6664979  23.0124156  71.4344626  20.6712389
  22.6546256  72.2690724  20.3685117  23.8589017  71.6621267  21.0557628
  65.0782299  31.9995737  30.9527946  64.7020340  32.3619699  31.7549014
  64.6229315  32.4577808  30.2464104  78.8275750  49.0497683   8.6932844
  78.8495381  48.5500239   7.8771967  78.9098580  49.9626504   8.4174103
  72.8905487  57.6591009  60.8943054  73.6905718  57.3728687  60.4535493
  73.0859566  57.5698751  61.8270895  75.2249606  52.5091349   1.5129942
  75.6143411  52.7197062   2.3616833  75.6325419  51.6803657   1.2614864
  68.4897518  13.2450914  18.0512071  69.3688488  13.5986042  17.9153764
  67.9895163  13.5496020  17.2940600   1.4684710  40.4854012  23.2415771
   2.3288378  40.7250261  22.8972149   0.9733233  41.3045788  23.2402658
  50.5362844  21.5109611  58.1933069  51.4381981  21.2942719  57.9570341
  50.0341749  20.7288980  57.9641914  65.7991838  21.9994068  35.6435084
  65.6297636  21.1431408  35.2506471  65.2685738  22.0066357  36.4401460
  76.7202091  28.9006305  13.3673048  77.2421217  29.1455626  14.1314042
  75.8780146  29.3347073  13.5033727  66.3196182  28.1603312  60.0999737
  66.4694262  29.0869617  60.2874374  67.0497465  27.7091479  60.5237389
  51.5233898  17.1506953  31.4969945  51.4915943  17.6431620  30.6768131
  50.6080151  17.0745981  31.7663121  69.7493458  37.7713561  28.7404394
  70.1184893  38.5182309  28.2691216  69.7076845  38.0602622  29.6520472
  65.7491446  18.9347911  64.8629904  66.1960506  18.1566525  65.1961660
  65.0954628  18.5928428  64.2530727  77.3787117  39.5381212  29.7909641
  77.9422426  38.9029765  29.3490887  77.9276705  39.9034262  30.4848146
  79.5985746  27.6557207  31.6471314  80.0566292  26.8447018  31.8677306
  79.4306135  27.5878859  30.7072258  42.4832122  73.5477394  14.5672059
  42.5047128  73.4264858  15.5164516  42.8427188  72.7341280  14.2136168
  73.4112358   9.4763881  30.4950047  74.3354321   9.2301786  30.4566145
  73.4212208  10.4239440  30.6301737  21.9609468  73.5168955   0.3063578
  21.0573976  73.4351188   0.0011632  22.2432964  74.3756134  -0.0084636
  33.7250924  13.9592397   5.3659105  34.2732525  13.2082772   5.5935276
  33.7287402  14.5054448   6.1519635  68.2806206   8.7477452  20.7343984
  68.5177565   9.6399194  20.4813695  69.0088987   8.2093447  20.4246092
  76.8701601  16.5757585  31.7859077  76.6475534  16.7901266  30.8799696
  76.4785862  15.7145190  31.9313979  50.3656149  14.2282450   6.7872477
  50.9706736  14.5585251   6.1231309  50.5510807  13.2904005   6.8350202
  22.5089376  61.2071948  30.2692699  22.5175540  62.1123986  29.9582028
  21.6111200  60.9110098  30.1195216  54.0355746  55.3452830  23.2918000
  53.9654605  56.2962704  23.2085037  53.2171361  55.0116675  22.9242516
  38.7207842   8.2717395  37.9150963  37.9573131   8.5495096  38.4212470
  38.8158512   8.9415652  37.2379518  56.0832453   9.6040457  52.1650839
  56.4648438   8.8146144  51.7811394  55.4747295   9.9241865  51.4991665
  66.6660833   9.0626359  30.6564879  65.8485889   8.9692539  31.1455846
  66.4104605   8.9563537  29.7401953  52.4260092  24.6024632   7.1833414
  52.1208143  24.2593384   8.0231941  52.7850580  25.4646254   7.3930794
  62.4660397  17.0710254  46.3364840  62.4820232  16.3890350  47.0079517
  62.7091885  17.8712559  46.8020344  51.4858055  12.1928668   4.2812744
  52.3291492  12.5661945   4.5374569  51.5398598  11.2747109   4.5464155
  67.6638508  34.2101979  44.8340845  67.9892683  33.6440444  45.5339479
  68.1717110  33.9549875  44.0639067  18.5073487  43.0355369   7.8464884
  18.9705006  43.7462352   7.4030584  19.1460101  42.6836328   8.4665722
  67.7797699   0.5678640  50.1736164  67.8645992   0.3477573  51.1012983
  68.6330414   0.9296383  49.9342966  33.5531728  70.7267501   9.6611857
  33.7051646  71.1560943   8.8192862  34.3768089  70.2786331   9.8536664
  60.1841259   1.0578246  32.1672201  61.1129236   0.9372443  31.9696641
  60.1741648   1.6486666  32.9202414  60.9143066   4.5002341  17.3150456
  61.8495750   4.3172243  17.4045742  60.8543253   5.4553777  17.3333502
  75.3064410  66.0972213  36.7814255  76.1603515  66.2161534  37.1972728
  75.2551238  66.8006741  36.1343145  60.4339600   8.7814099  57.0734406
  61.0239267   8.8562936  57.8234863  59.9633646   7.9608411  57.2198629
  56.3422839  65.3948378  31.7865324  56.2698238  65.7821607  30.9141994
  56.4401023  66.1442326  32.3739576  69.0797329  32.7317333  10.5676758
  69.1781855  33.2232380  11.3831270  69.7106695  32.0157433  10.6419075
  73.7132025  20.2431154  58.0522776  74.0902710  19.5111561  58.5404253
  74.4496870  20.6091094  57.5625181  45.3778712  67.4619376  26.4979792
  45.0607078  68.0199330  27.2081065  46.0056512  68.0088674  26.0257578
  47.9270840  27.5377488   2.7056280  48.2078266  27.3744082   1.8052202
  48.3597326  28.3568978   2.9465467  18.9829461  24.8673056  12.2353691
  19.0446059  25.5020808  11.5215820  19.8608605  24.4909941  12.2977394
   6.2783846  25.7558656  47.4360895   5.7147535  25.8794618  48.1998205
   6.0267672  26.4583302  46.8365335  38.7879848   7.9178089  12.6187718
  39.2830515   8.5762244  12.1313012  39.2057538   7.0871449  12.3914015
   3.6155686  72.6999492  58.2830691   3.6060604  72.7018708  59.2402202
   4.0167078  71.8629140  58.0492103  41.1737506  24.4866897  50.9443074
  41.5059774  25.1621438  51.5355903  40.3183286  24.2527152  51.3044983
  50.1844501  15.7732058  35.3272414  50.6830359  16.2452674  35.9941792
  50.0228930  14.9124408  35.7135201  65.0255156  38.4469938  53.4579706
  65.9327030  38.5692883  53.7377644  64.8169327  37.5469518  53.7082720
  20.1743857  66.5460895  32.6867384  20.1852576  67.4911784  32.8381342
  19.7597663  66.1829160  33.4693140  58.3049154  19.4919050  23.6657715
  58.8829994  20.2256179  23.8748598  57.7941513  19.7957015  22.9153991
  43.4466617  61.9048004  28.1412125  43.8464801  61.0879724  28.4398222
  42.5518291  61.8711035  28.4793997   5.8708128  24.7479033  37.3961139
   5.8025297  25.6474304  37.7161503   5.0053724  24.5557857  37.0350957
  20.4577033  69.9059104  17.5105852  20.6334273  69.4605397  18.3394426
  20.5935304  70.8335470  17.7036470  68.4509516  41.2643099  18.7149930
  67.9153013  40.5390358  18.3936119  69.2547560  40.8485556  19.0268838
  67.4133968  31.4251471  49.1596079  66.4897776  31.1856747  49.0834045
  67.8721952  30.5885744  49.2362928  48.4011173  21.1251521  36.4047575
  49.3310213  20.9458494  36.5439034  47.9746819  20.8108687  37.2020078
   0.9261736  17.8209782  42.6006699   1.6821322  18.3138514  42.2815466
   0.3618464  18.4815276  43.0024767  78.7524986  17.2374237   7.7140337
  78.8924026  17.8341258   6.9787753  77.9487705  17.5518072   8.1280512
  49.2771594  19.1734744  57.4913156  48.6050670  19.3770553  56.8408680
  49.1568200  18.2421256  57.6766211  49.7018862  17.6441848  49.6014357
  50.6088877  17.7757680  49.8775911  49.6128845  16.6949832  49.5158386
  10.0824897  40.1322054  28.4043306   9.2980401  40.6114890  28.1375689
  10.7684581  40.4497568  27.8171057  37.3920321  16.0962415  22.7970982
  37.2243834  15.2039480  23.1003141  37.6946616  16.5613556  23.5770440
  43.1848209  71.4071779  12.8759921  43.9354531  70.8250760  12.7579355
  42.4785630  70.9904258  12.3822784  63.3036900   6.1126584  53.9582062
  62.7346420   6.8743479  54.0688753  63.3442593   5.7155734  54.8282099
  68.9987183  24.7615290  27.6784134  68.5268068  24.1076899  27.1626401
  68.8886690  25.5771494  27.1896553  67.5467634  58.0417437  60.1719013
  67.6218415  58.9717740  60.3855350  68.3328390  57.6454443  60.5477521
  44.7615480  10.7574749  44.8385477  44.9043608   9.8535657  44.5578623
  43.8286734  10.9103966  44.6882153  51.6714780  54.1258996  22.6001835
  50.8311240  54.4273489  22.9453921  51.5433662  54.0938990  21.6521358
  46.0872746   4.6677274  21.2290406  45.7214117   3.8805425  20.8256578
  45.4333925   4.9310377  21.8766069  36.3610475  52.8718226  26.7825794
  36.9999330  53.5150092  26.4753866  36.0789792  52.4166243  25.9891891
  53.1817532  15.4046738  38.8534498  52.4938488  15.8642280  39.3349338
  52.7308226  14.6739054  38.4305239  58.5239284  65.0746803  36.4351153
  59.2224948  65.4935746  36.9378734  57.7169292  65.3549527  36.8668914
  57.1185653  53.5184877  17.7794743  57.5093906  53.9574735  18.5349703
  57.2162692  54.1443198  17.0618272  43.2228725  73.3018509  34.5703840
  44.1206281  73.1007481  34.8346400  43.1042640  74.2219860  34.8059988
  61.8910122  32.1622372  35.6677365  62.5157690  31.8731999  36.3328457
  61.1436701  32.4905038  36.1676931  71.4251662  61.9104737  61.3079437
  71.4195204  62.8665704  61.3535696  72.1917916  61.6508287  61.8189221
  30.7404487  71.8485307  50.7964182  29.8913257  72.2767242  50.6874466
  30.5590694  70.9186598  50.6597710  65.4500103   8.3406740   5.4088778
  65.0145340   9.0037209   5.9445662  66.2124634   8.0787521   5.9249157
  35.7518935  11.1924136  46.5263128  36.5621543  11.5250599  46.1402369
  35.8820701  11.2818444  47.4703932  58.5796595  22.0793819  41.6991091
  58.7096357  21.2590051  42.1748400  57.9421473  21.8632150  41.0186052
  24.1463598  39.3938375  19.5597458  24.7019419  39.4970560  20.3323412
  24.3338808  38.5090423  19.2463636  72.7934933  23.0044293  11.5458786
  72.9768467  23.3778071  12.4079692  73.6390591  23.0108714  11.0973132
  12.6250776  27.1481848  52.5258589  13.2275995  26.4764118  52.2066116
  11.8702539  26.6577578  52.8513765   2.4417814  14.0449536  34.0222549
   1.8059668  14.7578859  34.0830350   3.2837614  14.4844317  33.9032435
  76.2594700  32.5210404  37.9023194  77.0297337  33.0095148  38.1926918
  76.6164112  31.7787290  37.4146724  71.6078520   4.2754194  42.3438883
  71.5431690   3.7153545  43.1174326  72.0216894   5.0774544  42.6628065
  73.9864349   8.8192445  65.0371647  73.6891174   9.3258148  64.2813730
  74.9401522   8.8062704  64.9566317   5.3947100  45.1916695  40.4431725
   4.8592886  44.4624090  40.7557917   5.7112822  45.6155777  41.2408638
  56.8690078  73.4485765   6.4501452  57.4219768  72.7680643   6.8340147
  56.0284583  73.3553836   6.8985182  14.7132556  47.9689525   6.7940277
  13.9120404  48.4919809   6.8211025  14.5002238  47.2340571   6.2188906
  69.5218992  48.5604095  11.9957912  70.0747919  47.9091930  11.5639770
  69.7825718  48.5235405  12.9160762  71.0728598  47.5107193  39.2012501
  70.6704903  47.2454119  38.3742404  71.9822693  47.2209263  39.1289711
  72.5218153  43.7788153  35.0453663  73.2962132  43.8707638  34.4903088
  72.5684071  42.8812742  35.3747296   6.9692453   5.4366302   3.7653410
   7.6839766   5.2650064   3.1522036   6.4369425   4.6414566   3.7413225
   4.0311750   8.1272924  39.1439295   3.4680208   7.5567991  38.6208367
   4.6910605   8.4435540  38.5268664  47.9322847  65.3441286  27.2857285
  48.2125982  66.1601019  26.8711805  48.5567221  65.2109623  27.9988766
  64.1838789  31.3448954  37.1668172  64.3328142  30.7247186  36.4530730
  65.0411224  31.4436793  37.5810719  60.8274031  34.1785836  26.7725873
  61.7439747  33.9066243  26.7260408  60.3313017  33.3648372  26.6835141
   5.4478010  51.3957882  37.2045326   4.6786818  51.1268520  37.7068996
   5.0903925  51.7467022  36.3888431  40.5775833   1.4083487   0.8405298
  40.9648227   0.5337053   0.8048004  41.3264703   2.0034677   0.8054346
   5.2683608  35.9393995  29.6679491   4.9283378  35.5897759  30.4915899
   5.9706418  36.5338602  29.9318594  75.8885670  44.7770786  22.7693892
  75.9729767  44.0241194  23.3543324  76.0740423  45.5340576  23.3250976
  76.2003326  26.8381000  56.1272478  76.3436508  27.3525882  56.9215965
  75.4318428  26.3024974  56.3241911  77.6019859  30.5703068  15.1587629
  78.4953833  30.9068871  15.2278972  77.1025991  31.0843682  15.7932627
  13.3006796  43.6379719  35.2936935  13.0606398  44.1179037  36.0863352
  12.4989351  43.6225271  34.7710133  56.1189032   5.1141286  45.3628302
  55.7746983   4.4605142  44.7541094  57.0222044   4.8405957  45.5223846
  64.5835924  20.4181910  23.4290910  64.1438818  20.5897021  24.2618418
  65.0081444  21.2469172  23.2072759  49.1794936  68.5490852  55.1494884
  49.1013496  69.3227296  54.5912743  49.7993486  68.8074987  55.8315659
  68.5254955  19.5671785  35.9547663  68.8857698  20.3266287  35.4968691
  68.6587238  19.7614706  36.8825221  31.3730749  72.0161486  41.6320801
  31.7044004  71.1704969  41.3298798  32.1094450  72.6168156  41.5171909
  21.0597293  34.1392599   2.1596378  21.7386596  33.8062976   2.7465147
  21.4309613  34.9428760   1.7954630  62.6583481  41.4040232  42.8077507
  63.3252287  41.4804220  42.1253538  61.8739033  41.7926216  42.4206161
  64.7973680  26.0026360  36.6084456  64.3809032  25.7739973  37.4394178
  65.5705690  26.5081406  36.8591523  48.7822199  12.8857219  24.8372889
  49.5818806  12.5497270  25.2421093  48.4563684  13.5387588  25.4566407
  79.5690107  65.6759548  45.6080770  80.3172016  66.0354471  46.0847425
  79.1153765  66.4436722  45.2601433  67.0382071  41.6062212  53.8078403
  67.3420906  42.5029135  53.9486694  66.0971308  41.6933060  53.6561012
  39.7974229  25.5165410  54.2857742  39.8710728  25.0584197  55.1229906
  39.5009398  24.8455620  53.6708593  52.9960537  36.2914753  13.7629569
  52.6774549  35.8689260  12.9653490  53.1938839  35.5662751  14.3555617
  79.5117569  11.1813569  41.9939518  79.9381781  11.7080283  41.3179207
  78.9795399  11.8073094  42.4850321  60.1438332  40.7988739  41.6417170
  59.4069004  41.0379124  41.0795593  60.8306170  40.5261803  41.0332775
  61.1633110  10.5996931  38.8239241  60.7431650  10.8982420  39.6305084
  60.8403683  11.1978877  38.1500530  51.5453450  74.2314847  56.2147188
  51.3698070  74.9890908  56.7727995  51.9958608  73.6111154  56.7877913
  25.4626020  27.3304701  14.0235960  25.6443914  26.7962766  13.2504082
  24.5683512  27.0960784  14.2717957   2.3356852  31.9984555  40.7319880
   2.7153524  32.3182964  39.9135852   1.5426096  32.5215840  40.8486414
  73.3596992  58.9139509  34.2178988  74.2214489  58.5484457  34.0178204
  73.1132841  58.5058498  35.0479388  28.1602224  38.4780240  27.3465919
  27.2259172  38.4599328  27.5539231  28.5187754  37.7089143  27.7894688
  74.0896320  34.3428445  45.8367300  74.9335718  33.9967585  46.1269379
  73.6991835  34.7158933  46.6270542  16.0849222  18.1344402  20.1387835
  16.5355715  18.3856750  20.9450293  15.7868895  18.9627600  19.7628999
  79.0210533  47.9161596  33.2027149  78.3211327  47.3150730  32.9476905
  79.4243097  47.5038815  33.9666772  76.0091782  23.4714556  31.2889957
  76.1906433  22.9687166  30.4949188  75.7198763  22.8176975  31.9254994
  37.4395880  47.4361467   6.5968317  36.7472967  47.0560694   6.0559869
  37.2994455  48.3810806   6.5360588  66.2158172  70.1548599  29.0248656
  66.3899581  69.2885291  28.6569285  66.8833797  70.7192754  28.6349630
  10.1890565  73.1513118  29.1238308   9.9247266  72.4035557  29.6597600
  10.5843545  73.7632026  29.7447658  29.9348196  47.6652384  14.4911218
  28.9902720  47.5238609  14.4272590  30.0619825  48.0443954  15.3607774
  75.2213573   0.0701388  55.7819748  75.8524990   0.6645069  55.3762484
  75.1379442   0.3869335  56.6813707  55.9193373  35.5235505  46.1754084
  56.3004112  34.7772455  46.6380596  55.0209951  35.2537417  45.9845829
  78.9130259  33.6783195  38.4600568  79.4398308  33.3554220  37.7290010
  79.3184471  34.5122886  38.6974573  55.4984760   5.7136810  12.0819283
  54.7564793   6.1214918  12.5284314  55.3100967   4.7756869  12.1121347
  60.4350471  23.7944698  14.0611196  60.1931429  24.5742846  14.5607221
  60.2568293  24.0287256  13.1502986  14.3202719  12.6940274  57.7979851
  14.6305880  12.1640122  57.0638037  13.4628805  13.0137098  57.5170755
   4.7184691  49.9372387  25.4384136   5.3502783  50.2719116  24.8019862
   3.9290842  49.7658587  24.9248624   5.0778421  40.9941387  25.7528305
   5.3268942  41.3571167  24.9028563   4.4763884  40.2801418  25.5414224
  20.4452261  49.3736369  52.1117192  20.8098158  48.8083428  51.4307290
  19.9976382  48.7728304  52.7074784  52.3540990  67.4179666  48.5032368
  52.5024669  67.2420101  47.5741196  52.0003049  66.5983849  48.8487053
  14.6373877  15.1451552  59.6126938  15.4296049  14.9459422  60.1116276
  14.5290598  14.3964374  59.0262461  14.8096005  47.6202558   0.6318039
  15.1006142  47.3591881   1.5055269  14.0483682  48.1786417   0.7898039
  74.7194147   5.4682887  34.2878842  75.5607271   5.2977866  33.8643765
  74.1119242   5.6158203  33.5630274   4.9186930  55.4010028  62.0186737
   4.9531493  56.3419456  61.8464222   4.9227461  55.3319735  62.9733729
  48.7341928  15.5830586  56.2286377  49.5272064  15.0603318  56.3474560
  48.0634069  14.9473476  55.9793425  67.0874882  41.2392712  58.2630205
  66.2976551  41.1615086  58.7981272  66.9520044  42.0362091  57.7504158
  61.4033937  46.7052412  37.9780126  61.4883327  47.1750259  38.8076639
  60.4633474  46.7057848  37.7976131   8.4718260  23.5788965  30.3322244
   8.7495741  24.4938135  30.2873492   8.6794027  23.2229280  29.4682622
  52.5178640  66.4597826   7.4590528  53.2466666  66.6670470   6.8741447
  52.8289382  65.7160084   7.9750603  63.3557796  24.5977020  63.9819622
  64.0409851  25.2601576  63.8932037  63.5554409  24.1556692  64.8071718
  11.4065203  23.0319309  19.1940880  11.7378935  23.6968303  19.7976887
  10.5176577  23.3194470  18.9855266  58.9697838  48.5313463  51.2107134
  59.1825914  47.7065325  50.7741022  59.3357563  48.4381390  52.0902634
   6.0882108  59.3330978   1.5505308   5.9699170  60.1139568   1.0097021
   7.0120589  59.1061066   1.4446301  38.5754371   8.9642590   7.3991323
  39.3930507   8.7030154   7.8227985  38.2325625   9.6660554   7.9524410
  14.0607771  32.5665116  23.1990385  13.3876356  33.1256485  23.5869551
  14.4810518  32.1431160  23.9475942  63.4779453  21.7305064  25.5401206
  63.6067295  22.6777816  25.4920030  62.8204441  21.6126990  26.2257171
  16.3372485  72.5436818  34.6911979  16.1364000  71.8483527  35.3176260
  15.6209390  73.1706427  34.7914743   3.9909872  42.6392937  49.1083813
   3.8390860  42.1093655  49.8908997   4.7591623  43.1685400  49.3229246
  10.4320368  45.9749174  40.4326010  11.1934027  45.4415798  40.6608534
   9.7587141  45.3395128  40.1894426  69.0162468  32.1065855  51.2453079
  69.5620489  31.3518500  51.4660025  68.6487579  31.8937492  50.3874731
  13.8675801  40.9213324   0.7345003  13.0425803  41.0420297   1.2046522
  14.1468636  40.0351282   0.9644503  56.5324974   5.6191903  64.6106291
  56.8780041   4.7347417  64.7314835  56.8344259   6.1015248  65.3803205
   5.1303324   0.3982717  58.9081001   4.6536287  -0.1673605  59.5155907
   4.9483904   1.2865058  59.2149734  12.8358666  71.4777301  36.9903559
  12.3922841  70.6331681  37.0689577  12.1480672  72.0850657  36.7177576
  66.7201376  43.1106567  25.3920484  66.9704914  43.0654001  26.3148212
  66.8174839  42.2133923  25.0731897  47.7662913  60.4763441  38.6095881
  47.4950664  59.6135383  38.9230132  46.9515769  60.9746151  38.5447550
  40.2035491  25.2923893   5.6503243  40.5593459  25.3311716   6.5380949
  39.5007007  24.6446572   5.7020611  78.1727886  33.6948276  42.6826859
  78.7369680  33.0167031  43.0542803  78.6044025  33.9442158  41.8655252
   3.1704347  39.8993018  12.7129025   3.4801499  40.5432679  12.0760244
   2.2172896  39.9163029  12.6265472   3.6332640  29.6127748  62.0179224
   3.6537394  28.8934565  62.6491070   4.5251497  29.9602962  62.0218134
   8.5504739  21.2878727  26.8975061   8.9557616  20.9237610  27.6845259
   7.6512544  21.4844237  27.1602053  65.8901072  28.9551377  48.5886097
  65.4455376  28.8710976  49.4321299  65.8207941  28.0859637  48.1936884
  11.0317549   7.9572994  51.0031605  11.3198885   8.8398200  50.7699919
  10.8399805   7.5384480  50.1641035  30.5797068   1.5912826  26.7687058
  29.7212283   1.9932039  26.9017649  31.2002150   2.2300346  27.1196961
  54.5945215  18.0964887  38.6254692  53.8750315  18.6358094  38.9536452
  54.3431520  17.2002530  38.8486433  59.9683761   3.5601812   3.9320940
  59.2636108   4.1876989   4.0925592  60.7150364   4.0998417   3.6722797
  71.9964027  37.3113394  34.3466926  72.7282000  37.4032259  34.9568272
  71.4246511  36.6610193  34.7546339  10.7650026  42.3300791  30.7563496
  11.5251478  42.9051590  30.6686544  10.3433260  42.3578262  29.8974848
  59.8413229   7.2755826  44.2806244  59.2755604   7.4294680  43.5240126
  60.0445461   8.1511438  44.6097517  67.8265142  26.0708499  11.3126779
  68.0029249  26.0919499  12.2532463  67.4848461  26.9425178  11.1134577
  21.4255254  69.9857633  27.2565389  21.7861430  69.1003482  27.2093558
  20.6571643  69.9621438  26.6861916  58.0303065  70.0141459  33.5292578
  58.4836356  70.8399813  33.3597755  57.7151076  70.0943135  34.4295073
  23.8656172   4.3727922   9.6808922  24.1762384   3.7039852   9.0706104
  24.5969233   4.9856609   9.7571331  49.7400427  25.6830144   9.6251726
  49.2414904  25.5865145  10.4365706  50.3752232  24.9672866   9.6477789
  60.2076626  15.0324082  45.5661488  60.9003639  15.4773939  46.0543966
  59.4193888  15.1671064  46.0921860  78.0622578  36.5460491  53.0237675
  77.9969645  37.2832179  53.6308527  78.5502386  35.8797574  53.5076714
  67.5934839  29.0413713  34.8086596  67.3481035  29.9663782  34.7892070
  67.0917606  28.6757493  35.5372381  71.5706682   0.5539190  25.9547472
  70.8714962   0.9467519  26.4773083  72.2912979   0.4309493  26.5726495
  14.5267042  26.8623066   7.8812933  15.1755556  26.8985367   8.5840803
  14.6608767  26.0058951   7.4753523  58.7747955  27.5147104  29.7451758
  58.4468126  27.1730638  30.5770016  58.1722879  27.1653843  29.0885258
  78.2160711   4.5860374  57.8512096  78.9434719   3.9645132  57.8800726
  78.2337093   4.9341455  56.9597292   8.4812665   4.0120131  12.8361076
   8.7783313   4.5767170  12.1226019   8.9038300   3.1699663  12.6669163
  53.0500984  48.6401701  13.5535371  52.8760767  47.9861021  12.8766787
  53.1074333  48.1357050  14.3649924  78.4067011  56.5695143  64.7538996
  78.4200478  57.5224876  64.6650457  78.2648849  56.2479115  63.8635683
  68.9630175  43.7786150  59.0410709  68.2558441  43.3778715  58.5355568
  69.7645283  43.4572887  58.6280727   7.4698481   1.1860628  44.7746944
   7.1008810   1.5422967  45.5829000   7.1259626   1.7528301  44.0842199
  66.6833496  31.5791988  34.5966339  67.2663736  31.9694757  33.9454818
  65.8043718  31.8282533  34.3109798  34.2340183  18.7630332  65.4034853
  33.4624696  18.1992412  65.3479528  34.2384410  19.2450750  64.5765352
  66.0834265  43.4275341   0.3312359  65.6405878  43.6589909   1.1476638
  65.7880688  42.5367641   0.1427521  19.5816263  45.1482105  29.6585536
  20.3101763  45.3431559  30.2480054  18.8786730  44.8515558  30.2365541
   4.8688730  13.7178981  27.7128124   4.9063334  13.2889235  26.8579388
   4.1342005  14.3274963  27.6429057   4.6762690  23.0015159   3.3038396
   5.3884920  22.8551245   2.6813212   5.0573381  23.5677457   3.9749557
   3.2547697  38.9994287  48.7085295   3.5158094  38.1505680  48.3514214
   2.4254259  38.8269567  49.1542578  32.1975724  69.3083547  29.4410777
  31.8863504  69.6800904  28.6157393  31.8865554  68.4031813  29.4284439
  74.2573881   1.3876364  47.7103186  73.3456755   1.4189088  47.4204350
  74.2671251   1.8903750  48.5248089  68.3440399  43.0770779   2.0550247
  67.8418779  43.4484339   1.3296533  67.6877403  42.8744459   2.7216884
  64.3396823  64.1355567  49.8455954  63.5875384  64.6762364  49.6043968
  65.0880782  64.7302120  49.7953463   3.5455736  21.2305236  56.5905762
   3.1579050  20.4320931  56.9489765   2.8353437  21.8719006  56.6114950
   7.8386244  44.5163393  47.4562407   7.2035822  45.1259804  47.0803547
   8.6825022  44.8050976  47.1087885  48.8288753  68.8610731  36.1038375
  48.5389106  69.6674072  35.6772470  48.6527507  69.0052925  37.0335770
  78.9795208  30.6978035  62.5653791  79.5773792  31.3194656  62.9805136
  78.8204956  30.0339031  63.2363367  10.4273352  36.0183358  12.2869611
   9.7616896  36.5718031  11.8785238   9.9433931  35.4912996  12.9227829
  64.8405130  56.4468788   1.3883299  65.5723055  55.8991049   1.1043257
  64.1239198  55.8302747   1.5384096  76.5971851  30.2521253  53.6321163
  76.7351151  30.9728718  53.0175161  75.6712818  30.3118563  53.8674021
  54.6344709  11.3824785  24.2964268  55.3609467  10.9877670  23.8140726
  54.9901772  12.2040319  24.6351790  75.5806701  61.3834827  39.9340844
  75.4375426  61.2867611  38.9926004  74.7022502  61.4842718  40.3007746
  13.0415933  50.1158999   9.1826338  12.9944102  51.0700713   9.2423243
  12.8154628  49.9213468   8.2731003  58.3326674  13.6564195  25.5616498
  58.5908794  13.6697423  26.4832664  58.7793016  12.8915024  25.1988125
  63.7991428  43.4291124  33.2766318  63.1030416  43.7324667  33.8594294
  63.4651279  42.6101685  32.9105711  40.2758822  14.7097206  52.4036598
  39.4697889  14.6590173  51.8899679  39.9843821  14.6489704  53.3133698
  28.7111982  15.2097690  52.7860260  28.7847933  15.2385485  53.7399578
  27.7723440  15.2859521  52.6158237  24.1720836  46.6082339   4.4339508
  24.7966544  47.1170734   4.9508900  23.5334842  47.2523116   4.1280264
  16.7476496  40.1349401  53.2319355  17.0027193  39.3950772  53.7830830
  17.0216974  39.8824835  52.3502350  75.9139490  34.9370217  34.6814632
  75.9885216  34.2673254  34.0016270  76.7793655  34.9612641  35.0897431
  75.3703547  18.0419219  22.9539680  76.3178635  18.1777287  22.9493165
  75.2024984  17.4985158  22.1840549  59.6440952  68.2094054  32.0980525
  58.9912288  68.7946646  32.4820638  59.6330325  67.4356603  32.6614594
   2.5600783  59.8993348  12.3701471   2.7633922  59.1928433  12.9831451
   2.2299735  60.6080340  12.9224199  67.7950160  73.7030492  29.1672230
  68.1899993  74.5736416  29.2150927  67.3284881  73.6057243  29.9973512
  70.8417606  31.7823577  46.9907999  70.7500505  30.8414960  46.8404579
  70.8580160  32.1646452  46.1134052   3.9668592  48.0642176  52.9037380
   4.1211065  47.7677965  52.0067596   3.1438097  48.5506821  52.8570318
  43.3489768  25.6854869  55.4411232  42.6007669  26.2414600  55.6586182
  43.5346906  25.8822299  54.5229548  38.7294642  68.4097956   3.1585354
  38.6570136  67.8315996   3.9179224  39.5283572  68.1241344   2.7153582
  10.7527384  32.7388787  42.6454639  10.9885534  32.5186348  41.7442846
  10.5399450  33.6716652  42.6162148  55.3572051  74.6584807  43.0761623
  54.9163215  75.1510164  42.3838711  55.6456058  75.3260364  43.6985970
   7.4077829  54.8144722  54.8952198   7.7034697  53.9429665  54.6320105
   6.6473421  54.6510410  55.4531145  64.4665337  65.4011774  57.7043486
  64.2096901  66.3230848  57.6854134  64.9500227  65.3040504  58.5247374
   7.0276960  20.0678134  45.5494452   7.2872099  20.1686311  46.4652586
   6.0720095  20.0206494  45.5751133  61.9846630  38.9833069  52.1132565
  61.3316345  39.1127944  51.4254904  62.7541685  38.6484003  51.6528988
  58.0950022  30.7607841  35.9310389  57.2453690  31.2004972  35.8994174
  58.5524082  31.0668921  35.1478982  74.2440462  31.3438845  39.4115615
  73.6461735  30.8606768  38.8412237  74.9548578  31.6211152  38.8335276
  79.0444422  50.4133081  41.3092136  79.0676498  50.5900097  40.3687477
  79.9310112  50.1202488  41.5198040   3.1160959  43.6887550  32.1785140
   2.8431448  43.2815647  33.0006623   4.0238413  43.9513588  32.3310828
  21.7788934   4.9144703   2.4540609  22.3813152   5.4235035   2.9964632
  22.3316955   4.2527300   2.0384354  62.4518935  68.8782053   0.8592043
  63.3971088  69.0195249   0.9123023  62.2613113  68.8830905  -0.0788180
  74.7423331  74.8771461  30.9351730  74.6686999  73.9919248  30.5785322
  74.4987266  74.7852946  31.8562889  54.5187061  72.1146207  36.9944239
  53.6397426  71.7447864  37.0774269  54.3753020  73.0577876  36.9162869
   5.2667746  18.5556144  55.6458384   4.8913941  18.4212655  54.7756260
   4.5857748  19.0213889  56.1311453  22.2312181  72.6829271  26.6365552
  21.8925397  71.8473487  26.9580126  21.4771096  73.2719942  26.6600370
  63.3858442   6.8863404   4.2663416  64.2160273   7.3561138   4.3459761
  63.0858135   6.7755967   5.1685327   4.1957220  -0.1870943  28.5596180
   4.6034750  -0.4104974  27.7229238   4.5394739   0.6812949  28.7692881
   7.4699244  10.8909905  34.6119690   8.2997545  11.1832297  34.9890637
   7.2281298  11.5847695  33.9984226  10.0759920  28.5270452   5.3974777
  10.6043371  27.7955103   5.0781852  10.6717238  29.0272307   5.9552872
  18.9029249  73.1295061  24.7291780  18.9851793  73.0058670  23.7835670
  18.2810339  73.8510609  24.8231888  61.2147284  39.8895144  37.2415686
  60.6437683  40.6577778  37.2378063  60.7445478  39.2442560  37.7695870
   7.7038511  50.9828520  26.3830733   7.5744185  51.3334799  27.2642875
   8.2490477  51.6352797  25.9433913   7.2335657  28.1275129  20.5497718
   7.9944548  27.9065681  21.0868478   6.4912828  28.0717015  21.1515546
  55.3746939  24.2005420  34.8982835  55.2226019  24.5267224  34.0113187
  55.9437847  23.4401083  34.7795296   6.9390886  73.8284195  12.2657299
   7.5820200  73.1739217  11.9927752   7.1069638  73.9541178  13.1996727
  48.7357394  56.3845604  21.4644885  48.0538957  55.8004527  21.1326170
  49.1346757  55.9005492  22.1875477  70.6007512  36.2182491  15.8537960
  69.7258301  36.0153859  16.1848438  71.0600920  36.5933912  16.6051304
  22.0025286  17.6026666  37.0096231  22.3731646  18.1880128  36.3491440
  22.7605471  17.2837055  37.4994230  50.2864520  71.7756452   6.8833894
  50.6527440  72.4569138   6.3195342  50.3196923  72.1498992   7.7637649
  53.9199448  38.2956028   3.6571220  54.6272326  38.5884738   4.2317539
  53.9955330  38.8516903   2.8816965  60.4675198  25.4421735  35.8584189
  59.7787428  25.6175661  36.4995575  60.9770203  26.2518859  35.8266878
  59.2559910  45.6858253  50.8212948  59.0044737  44.8685360  51.2514210
  60.0165510  45.4522085  50.2891302  30.2915415  55.0874233  19.9333239
  30.1987299  55.9070921  19.4477654  31.1632475  54.7681856  19.6999729
  47.5148678   1.9811501  58.5541058  47.3807478   1.6962247  57.6501894
  46.7300510   1.6874684  59.0167570  77.1654749  27.6547194  53.3788204
  77.3432779  27.4167085  54.2887497  76.8373966  28.5527086  53.4258604
   7.2929701  61.6029739  31.8050718   7.3741659  60.7398462  32.2108459
   7.7894529  62.1855164  32.3798656  13.4743199  69.3649286  64.4498349
  14.0964541  69.2409629  63.7330302  12.7174744  69.7840923  64.0402941
  62.3690128  26.1543107  28.3330703  62.3238420  26.1539721  29.2892027
  63.0785704  26.7628336  28.1270242  15.7039151  45.8856559  55.7522064
  16.5818104  46.2214297  55.9332645  15.6428894  45.8775056  54.7969883
  70.3520727  29.0988731  30.4568958  69.6566677  28.5368299  30.7985806
  69.9026012  29.7046924  29.8676682   6.9738039  35.5207515  43.2614183
   7.0174536  34.5656538  43.2153893   6.1496195  35.7439780  42.8288603
  61.3592291  30.3294492   4.6966475  62.0344782  29.6537113   4.6362409
  61.7313862  31.0817480   4.2364508  58.9155070  74.8506949  61.9687319
  58.1875293  74.5044579  61.4525986  58.6179034  74.7858504  62.8761768
  64.5073310  47.9639292  64.0368176  63.6601857  48.2543659  63.6988449
  64.9932996  47.6877975  63.2597589  51.5049943  10.5813938  21.6558355
  52.3906892  10.2337557  21.5513128  50.9504607   9.8049742  21.7326159
  78.1155816  36.0050016  35.8195204  78.9890471  36.2972837  36.0800261
  77.9271737  36.4963203  35.0199312  11.9024777  65.5857182  56.4698458
  12.2904408  65.5636597  57.3446226  12.5805235  65.9738827  55.9168434
  27.2029662  74.0288544  26.4156318  27.9391551  73.5800409  26.8313503
  26.4894485  73.9564848  27.0495772  56.2659609   2.1550137  13.1137699
  55.4363866   2.4755293  13.4677595  56.0131159   1.6005140  12.3756451
  66.3323823  38.6381680  11.6502899  66.2766936  39.1882997  10.8689493
  66.9340888  37.9350430  11.4057631   6.3991475  32.5850063   5.1897663
   6.9585943  32.0303398   4.6460766   5.6575775  32.8035885   4.6253866
  57.3031378  33.9086491   2.3202843  57.7406770  34.4378811   2.9871458
  56.7852834  34.5372587   1.8173880  71.9954649   3.4388309  18.2222933
  72.1216562   3.7766129  17.3356051  72.7783993   2.9152208  18.3928103
  61.1975081  68.1234621   4.1183084  62.0417483  67.7388548   4.3540377
  61.0795386  67.8954195   3.1961817  31.0418405  51.4836465  11.6653294
  30.9461044  50.5312787  11.6731924  31.0029422  51.7359029  12.5878710
  49.0707266  20.8072144  16.0371107  49.6787629  20.2957636  16.5709108
  48.2030177  20.5434423  16.3432783  19.8614573  45.7763386  60.4252291
  19.1381574  45.3290272  60.8645248  19.5013177  46.6278934  60.1774740
  10.3780723  27.7527308  25.9414673  10.0537837  27.1333289  26.5952349
  11.1677814  27.3401666  25.5916357   9.2115140  28.5490465  62.7846432
   9.6382552  29.2282319  63.3069706   8.8117778  29.0233254  62.0555973
   3.0208850   4.3969875  18.1656736   2.7145219   5.1548677  17.6676840
   3.8646316   4.1763359  17.7711672  18.1423318  46.7765188  56.1941814
  18.8840330  46.2231016  56.4388084  18.4358454  47.6677608  56.3833094
   5.4587753  65.0051712  30.3360170   4.5825084  64.6620320  30.5110640
   5.8375032  64.3872021  29.7107882   5.0644111  43.7274652   4.5923466
   4.1838526  43.9730936   4.8761028   5.1215911  42.7893740   4.7738642
  49.8097356   7.0131023  55.6568336  50.3403623   7.3813541  54.9503994
  49.2403252   6.3779456  55.2225685  70.7274351  42.5511646  57.1957970
  70.2648786  41.7131567  57.2000313  70.5505631  42.9179955  56.3295507
  43.9742227  64.5135044   9.5508856  43.4604223  65.2890895   9.7760719
  43.8274200  63.9093469  10.2786726  28.0230491  35.6664092   9.3205399
  27.5633494  35.3897222   8.5278601  28.9084975  35.8757062   9.0232033
  79.4309743  14.1760833  19.1119766  80.1339610  13.6779029  18.6950147
  79.0314372  14.6711166  18.3967519  20.5200577  28.7507701  46.8994999
  20.1530290  28.1680083  47.5642633  20.6215405  28.1971145  46.1252928
  72.5153110  38.3857465  58.0713320  71.7343232  37.8462982  58.1949615
  72.4389270  38.7161803  57.1762276  27.5206254  40.4133786   2.8877586
  28.3257000  40.0733894   3.2782644  26.9344333  40.5536960   3.6313480
  15.2472543  10.5520445   9.5566744  14.9946594  10.3377253  10.4547256
  15.3274536   9.7033173   9.1213984  78.6728905  69.4044565  22.2636312
  78.2150220  70.1088880  21.8049711  79.5944928  69.6618770  22.2388166
  58.6132422  17.3053509  -0.3418356  58.7718847  16.4928108   0.1386160
  58.2606861  17.9066044   0.3142351  37.7989379  12.3740250   3.6257786
  38.5380343  11.9106155   3.2318014  37.3500076  11.7089992   4.1477293
  79.5748344   8.5454374  19.3092340  78.8931552   8.2602077  19.9176687
  80.2928296   8.8345295  19.8723787  50.1427634  68.6247634  33.6858648
  49.7175963  68.5188745  34.5368952  49.6310623  68.0750106  33.0924315
  75.2388468  23.7203699  10.3625053  75.3407827  24.6536976  10.1761145
  75.3127018  23.2959610   9.5077223   8.2983279  35.8615732  48.6249733
   7.4090052  36.1592770  48.8165665   8.8603443  36.4350080  49.1460657
  27.8831875  58.3211015  19.2261595  27.5524129  57.9451727  20.0419420
  28.6722229  58.7974261  19.4845575  75.0153247  32.6968342  48.7802977
  75.9086791  32.6332050  48.4424967  74.8473731  31.8415552  49.1759295
  65.3474096  39.1187978  43.6557531  66.0259453  38.6683154  44.1586304
  64.5426050  38.6419773  43.8586426  68.1387356  28.5099578  53.9095783
  68.5615328  29.3682289  53.8804865  68.7109033  27.9434371  53.3919811
  34.9112844  27.2886324  62.5335026  34.3082905  27.7522159  61.9523621
  35.7025027  27.1657443  62.0090008  67.2143205  46.8672614  16.3277811
  66.7280133  47.6617418  16.1074633  66.8819411  46.6140609  17.1889681
  49.7907734  46.4970541  64.8127556  50.2629852  47.2502470  64.4578695
  48.9240551  46.5460348  64.4094753  40.5514355  70.4158996  11.9360918
  39.9028583  70.9232710  12.4241013  40.6126423  70.8571647  11.0888762
  15.0481271   4.1229444   0.1675314  15.3959322   4.4991261  -0.6410175
  15.8242941   3.9054352   0.6837505   2.6166785  20.9024477  51.0238934
   2.2162771  21.7209435  50.7306767   1.8975601  20.4141593  51.4247370
  42.2236538  57.5302029  57.6534700  43.0206537  57.1135759  57.9812670
  42.5181198  58.3739376  57.3104954  52.5849633   8.4416586  29.6430964
  52.1246760   7.9917913  28.9345831  51.9276783   8.5385424  30.3321642
  66.3497098  71.0129975  16.8354029  65.4531296  70.8971261  17.1499628
  66.8966039  70.8404444  17.6017946  27.8016821   1.9608028  41.2845421
  28.1857166   2.3174007  42.0855331  27.1651910   1.3149125  41.5910339
  61.7133793  27.1017652  25.1886744  62.2679618  27.6585728  25.7351393
  60.8233300  27.4109131  25.3573984  34.7780044  69.8586796  27.8094572
  34.6393742  69.0888523  28.3611673  33.8957818  70.1669525  27.6023764
  16.5456879  58.4386873  59.0506935  15.6708574  58.4931803  58.6660719
  16.6175890  59.2232037  59.5943737  48.4615341  14.3657309  14.9488253
  47.8802636  14.6767288  14.2548222  47.9194918  13.7702137  15.4662985
  80.0414240  42.0055914  61.8103075  79.6432781  41.8783998  60.9491825
  79.5125716  42.6902485  62.2199345  64.7979458  60.9354066  32.3479837
  64.3841918  60.1147364  32.6154608  65.6288870  60.9506129  32.8228945
  39.4044280  45.7828140  62.4936390  39.4753885  45.4086065  61.6154766
  39.5943427  45.0517321  63.0815887  12.8299566  40.8300509  50.9327311
  13.2823296  39.9920306  51.0292238  13.4205003  41.4684580  51.3326353
  10.9993923  56.1900425  50.7025433  11.0545516  56.0855436  51.6524220
  11.8921196  56.4060926  50.4331160  61.9939622  32.7043110   3.2254309
  62.9259005  32.4950033   3.2879776  61.8704245  32.9779869   2.3165459
  71.5307466  28.9906502  62.9541492  70.9819547  29.7727227  62.8956556
  71.9782719  28.9483333  62.1090698  62.3846880  57.2305250  47.2397041
  62.6274839  56.8767071  46.3840771  61.9584790  56.5004206  47.6886177
  33.2416667  71.3278841  13.9799017  33.8485707  70.5902480  13.9183134
  32.9930516  71.3569950  14.9037928  56.9398636  15.9845596  28.8925928
  57.1759906  15.0602680  28.9710897  56.9195932  16.1473328  27.9495520
  46.1362620  54.8970615  11.9566578  45.2993245  54.4532202  12.0936722
  45.9148748  55.8282636  11.9475931  78.8081487  66.2149809   4.3542618
  78.4126981  65.3866218   4.6256870  79.5060857  66.3673161   4.9913734
  40.8102801  21.9404798  10.7769770  40.6599143  21.8759685  11.7200893
  41.7580786  22.0439344  10.6920761  23.3692256   3.1992870   0.8602947
  24.3204895   3.1994396   0.9667391  23.2137576   2.6435429   0.0966162
  71.5983340  17.6673067  61.8333054  71.1892596  18.4088099  62.2794676
  72.4041143  18.0262613  61.4616823  63.2093914  50.0579022  24.8067659
  62.2565968  49.9667834  24.7963137  63.4800895  49.6490692  25.6288523
  24.8646355  50.0727844  61.4123011  25.1207042  49.7346735  62.2704029
  25.2612805  50.9428930  61.3696098  52.8243646  41.5405136   3.8440937
  53.3826762  42.2801310   4.0838617  53.2887664  41.1133152   3.1243319
  72.2222093   6.8775040  12.8113312  72.8115025   6.9387394  13.5631413
  72.0552543   5.9400612  12.7136034  12.8877056  50.5847263  59.3497944
  12.8449202  51.5394449  59.4037628  13.0520034  50.3011131  60.2491283
   0.8585047  16.1224943  45.0390524   0.7734036  16.7823845  44.3509096
   1.0114240  16.6275698  45.8376402  35.7554473  72.5068902  35.5575937
  35.6256916  71.7391180  35.0008863  34.9787505  73.0457567  35.4072660
  41.9990683  29.4778657  62.6717520  41.3358641  28.8216710  62.8857613
  41.5643072  30.0649190  62.0532131  77.8420606  32.4082666   2.8590340
  77.8374949  33.3654314   2.8661675  77.7721038  32.1615368   3.7812370
  56.7707356  68.3374154  52.7913237  55.9344758  68.1962447  53.2351351
  57.3624824  67.6968764  53.1860065  77.5251706  53.0407761  31.5633673
  77.6301415  52.2900759  32.1478838  78.2398732  53.6313819  31.8013090
   9.2052233  59.9771547  52.7256441   9.5360202  60.2045012  51.8566656
   8.2636291  59.8592806  52.6001930  69.1279140  32.4995666  26.0376257
  69.9758199  32.8173548  25.7273096  69.2090324  31.5459448  26.0214895
  21.8065763  41.0637951  54.9464035  21.2170529  40.5902147  55.5332708
  21.7933512  40.5576849  54.1340542  34.7246303  35.8030677   8.3182711
  35.3162988  36.5549460   8.2892984  34.2483290  35.8410035   7.4888557
  77.8020938  73.8767432  15.2945513  77.1253617  74.2840646  15.8352465
  78.3390601  73.3831476  15.9144396  74.4490877  17.6029497  33.5697645
  74.1527763  16.7713409  33.1998152  73.6663762  18.1538826  33.5779375
   3.3218789  18.0805737  22.0853704   2.6709413  17.3814827  22.0238680
   4.1347527  17.6785809  21.7789835  39.4773021   4.2960125   8.2586950
  39.0638247   4.8084360   7.5639338  40.1467088   3.7798410   7.8095907
  60.2123316  71.0924505  18.3762545  60.0705965  70.4070781  19.0292543
  61.1202152  71.3653253  18.5086340  62.5420745  73.6510085   6.5697855
  61.8852003  73.5225724   7.2540754  62.1056230  74.2007087   5.9189600
  78.5876035  64.7212790   7.5590557  79.2681931  64.9958109   6.9445127
  77.7660202  64.8923563   7.0986599  33.5293128  67.2859286  13.7779564
  34.3986793  67.6824688  13.8344378  33.5269053  66.8331812  12.9345984
   2.9400873  28.0296427  13.3504004   3.4432435  28.7934643  13.6326117
   2.0588326  28.3683306  13.1925529  39.8052962   0.5287273  55.5714798
  39.5162769   0.5127818  54.6590948  40.2099617   1.3894231  55.6795263
  34.2390361  52.8147799  32.0967192  34.9593642  53.0264288  32.6904863
  34.5684662  52.0860582  31.5707201  66.8947537  69.6831249  34.9248499
  66.3611825  70.2900981  35.4377932  67.7748092  70.0588392  34.9487585
  63.4096590   4.4425589   0.1472277  63.9605454   4.7870689   0.8501286
  63.0588535   5.2209574  -0.2855116  55.6449540  67.1650170   7.7147955
  55.4828317  66.2426208   7.5169653  56.5903313  67.2172521   7.8553862
  70.2139266  68.2044052   3.0144304  70.2858575  68.4125541   2.0829100
  70.6068118  68.9557026   3.4587616  48.7153673  61.8962812  62.0745420
  47.8802443  61.4324522  62.1350479  49.0286493  61.9443130  62.9777479
   0.8735295  40.9099388  51.6887951   0.9058715  41.8357897  51.4479828
   0.3867641  40.4942179  50.9771299  16.7457116  53.5923004  54.0230608
  16.7668402  54.4768524  54.3882370  17.5180483  53.1628275  54.3908691
  38.2626970  60.7803820  19.3249792  38.8945670  60.1050852  19.0781015
  38.7851663  61.5779899  19.4091124  68.9310876  12.9207235   6.1228270
  69.0155557  12.4105459   6.9283146  68.8573948  13.8275438   6.4202875
  71.6021875  27.3129850  18.9605516  71.7086914  26.3641458  19.0283197
  70.6662419  27.4383694  18.8039774  67.4225600  30.5926429  11.7106527
  66.6074927  31.0910808  11.7694944  67.9936869  31.1312662  11.1629957
  57.9306546  24.6651178   4.2900604  57.3730722  23.9258915   4.5327086
  57.7436072  25.3329092   4.9498314  35.6331129  37.6323649   4.0594620
  36.1095913  38.4566930   4.1578621  35.7852580  37.1680461   4.8825592
   1.2409289  71.9201730   8.0758423   0.6809647  71.1963986   7.7950949
   0.8524044  72.2185348   8.8981909  18.6449659  30.6238270  56.9460297
  17.8985310  30.0913334  57.2208357  18.4976637  31.4743495  57.3597288
  21.8886733  24.9046087  57.7588129  21.6668844  24.0127468  57.4911833
  21.0665154  25.2671027  58.0887890  71.5077820   9.8635775   5.2376265
  71.9923058   9.4232851   4.5393318  71.7246285   9.3692356   6.0280937
  37.0594311  12.1106410  57.4822521  36.5564299  11.7164779  58.1948900
  37.6633716  11.4214599  57.2056341   6.9154203  34.1149950  57.6732349
   5.9812069  34.0990520  57.4653339   6.9478148  34.1220975  58.6298609
   5.6798577   3.3524948  13.9993423   5.8717537   2.4540525  13.7306208
   6.4618683   3.8476616  13.7554068  28.9735269   2.2050029   4.7891850
  28.3245229   2.8895384   4.9518007  28.7236166   1.4931923   5.3783363
  32.5279064  68.9652895  48.9735025  32.7433141  68.1297611  48.5591120
  31.5719517  69.0063285  48.9470858  65.8791581   5.8818155   0.9925932
  66.0369387   6.8248659   0.9478849  66.2701848   5.6126934   1.8238014
  52.6313694  11.2379463  60.9881067  52.8623708  11.2798889  60.0601482
  51.9654925  10.5521495  61.0384083  42.0379248  12.8175646   3.2498783
  41.2432686  12.4883753   3.6698622  42.7305236  12.6610285   3.8917774
  -0.1606942  18.5852724   5.0698895   0.2759599  19.4325930   5.1571554
   0.5382442  17.9422337   5.1891274  24.0462255  14.7598463  -0.0145012
  23.2182646  14.3572670  -0.2764946  23.7942218  15.6040007   0.3598351
  51.7836683   9.9963385  18.1874365  51.7091082   9.1898256  18.6975473
  50.9059012  10.3773218  18.2120699  25.0757742  26.7736011  19.2077822
  25.7773924  27.1922070  19.7065157  25.1114320  27.1913677  18.3473009
  25.0139570  24.4636398   7.3146671  24.1197109  24.6273142   7.0150560
  25.5681324  24.8603445   6.6425461  56.5425876  54.4087893   2.0787710
  57.4169344  54.7753435   2.2106213  55.9789738  54.9183088   2.6609701
  48.7896141  15.1101929  29.3072313  48.5271919  15.9030443  29.7749418
  49.7292867  15.2185541  29.1605848   3.1256151  34.9364382  20.9027952
   3.5874486  34.2496830  21.3837427   3.3388519  34.7705799  19.9845118
  71.3422759  68.1796144  15.7211298  70.9075768  68.6479925  16.4337915
  70.6267865  67.7863883  15.2214521  53.4731722  72.6857758  54.4645929
  52.9644012  73.1864357  55.1023388  52.8249931  72.1468496  54.0110970
  42.3854446  66.4787436  54.5362329  42.3594141  67.3724079  54.8781633
  41.5212488  66.1199093  54.7378063  43.2000394  74.1515015  11.6795296
  43.3697589  73.2976769  12.0775360  42.3142774  74.0782856  11.3241476
  40.3087886   3.1478841  47.8543997  41.1392732   3.5412986  47.5865364
  39.7910936   3.1103809  47.0501518  57.6377113  67.4129842  13.1484503
  57.5150450  66.6929291  13.7670797  56.7497213  67.6648139  12.8948969
  32.3650384  64.6186209  61.5373755  32.7633667  65.4879808  61.5795755
  32.0784569  64.5303440  60.6283569  73.8290921  28.8245445  51.9197935
  74.2867985  27.9975039  52.0705980  73.2267967  28.9033133  52.6595682
  54.4489759  53.0621344   0.4378885  54.6475327  53.0868154  -0.4981667
  55.2564037  53.3530432   0.8617491  47.3302419  66.2122582  11.3920778
  46.8728359  66.9056223  11.8677420  48.0081494  66.6699194  10.8948654
  63.8581422  47.7842432   4.2154449  64.6053758  47.2168547   4.0258545
  63.8353041  47.8390032   5.1708073  67.8226693  69.8152875  38.4613222
  67.9604848  70.3255294  39.2593760  68.6315520  69.9282383  37.9621405
  66.7912228  56.5787350   8.1979889  65.8621557  56.8063449   8.1624407
  67.2326787  57.3045348   7.7568954   6.7263627  28.4526163   0.2402920
   5.7707190  28.4653860   0.2933163   6.9266486  27.6795965  -0.2874952
  13.7705373   2.8944736  65.1151461  13.6597585   2.1883183  64.4785112
  13.9614105   3.6677795  64.5843023   7.1968858  69.4105552   9.9553341
   7.4666182  68.9939808   9.1368336   6.5208737  68.8314985  10.3073639
  49.8048818  61.9682413  19.4110483  49.6271783  61.9419390  20.3512377
  50.7570908  62.0438486  19.3492884  48.1550360  51.3277817  63.6689234
  48.6780167  51.2823677  62.8685141  48.2191992  50.4507732  64.0470409
   8.1142640  44.5426756  40.1590246   8.0722713  43.8839251  40.8522219
   7.2649431  44.9826628  40.1949781  73.7112484  66.9426632  60.4666328
  74.3638566  66.2629890  60.2981615  74.0775106  67.4525452  61.1891985
  49.8617268  39.6054173  49.1492510  50.1747656  39.3812108  50.0255919
  48.9093828  39.5294213  49.2083883  51.7208785   8.1584316  16.2018866
  51.2789376   7.5439507  16.7878431  51.7679679   8.9737469  16.7011637
  78.7075844  23.4695583  12.4394936  78.0669180  22.7907854  12.2272629
  78.6101380  23.6045700  13.3821005  70.6107929  21.1235386  34.7009558
  70.7739261  22.0365005  34.9378580  70.3897706  21.1534601  33.7701029
   7.5383663   2.8318745   6.7385715   7.4437189   1.9659692   7.1354145
   8.2591319   2.7327829   6.1165518  72.0036152  31.7528110   8.1951803
  72.7227500  32.3680788   8.3384317  71.8404499  31.7903286   7.2527355
  62.5769678   9.3524700  35.3054899  62.9010180   8.4527212  35.2645296
  61.6348997   9.2748457  35.1547808   1.7613601  22.3992640  18.5167688
   2.2591257  23.0902153  18.9538664   2.3652053  21.6576296  18.4769625
  53.6646135   6.2592132  64.0075827  54.6217306   6.2635429  64.0193892
  53.4130509   6.4582546  64.9094296  77.7295318  26.2987762   9.4008488
  78.0211321  26.0103804  10.2657360  78.5149017  26.2526375   8.8555998
  25.4790640  62.6989222  48.8533926  24.5771480  62.9558659  48.6616707
  25.8566475  62.4938345  47.9980564  67.8909381  51.8444513  41.4905161
  67.7371915  51.3763260  42.3111528  68.0035098  51.1532687  40.8379549
  66.5733865  12.2419935  44.0684313  66.8275455  11.4591032  44.5570177
  66.5513745  11.9574839  43.1547541  29.6709537  41.6793066  15.2198690
  30.3740120  41.8936115  14.6066660  29.9728918  40.8862692  15.6627649
  65.7579422  52.7459145  56.9082880  65.9495544  53.6691856  56.7437029
  66.3811302  52.2703505  56.3590050   6.0921915  57.8106164  17.8131289
   6.2691171  58.7106703  18.0866808   6.4230330  57.2723268  18.5321707
  61.7225936  72.9478746  24.0177626  61.2407568  72.1825605  24.3313784
  61.9137517  73.4513575  24.8090834  27.6525784  47.4888754  62.5656414
  26.8257236  47.8134298  62.9223061  28.3177400  48.0676317  62.9382420
  75.0515309  15.9600645   7.6604265  74.5865360  15.2859598   7.1648544
  75.7500234  15.4863554   8.1120199  47.3942485   4.6000868   6.5251059
  48.1399670   4.1193920   6.1658472  47.6820788   5.5128771   6.5393776
  77.7706066  16.8473679  14.4108004  76.9940105  16.4108139  14.7608656
  78.4982815  16.2772947  14.6592754  76.6153923  37.5582033  47.9687017
  77.2026625  37.3910624  48.7058634  76.9746104  38.3397490  47.5487226
   9.8377275  15.6903845   1.1152262   9.3490457  14.8720747   1.2035030
  10.0941229  15.7179886   0.1934141  65.3737632  70.5991030  57.1083260
  65.3088144  70.7874823  56.1720943  65.9116367  71.3091183  57.4587536
  53.5544329  10.8197647   6.9253105  53.7231515   9.8783117   6.8874306
  54.0190305  11.1150366   7.7083773  25.4516935  31.0481792  15.2812761
  24.5419883  30.7575708  15.3462404  25.7400322  30.7422310  14.4213385
  66.1797300  11.1761618  53.1752872  66.2723294  11.7014110  52.3804474
  65.8930412  10.3178966  52.8631592  20.1656007  31.2097221   3.7488121
  20.7652521  31.8381697   3.3466858  20.6872892  30.7813984   4.4274944
   5.9007114  68.8636494  54.6729088   5.5070603  68.4352350  55.4329967
   6.0029811  68.1626844  54.0291548  28.4021634  56.3696622   3.5047668
  28.3687899  56.2769817   4.4568867  28.0060846  55.5644129   3.1717104
  71.7988506  37.2036653  18.2128996  72.5664106  37.5512892  18.6670393
  71.2250546  36.8950134  18.9141363  65.4414740  21.7862946  14.1858858
  65.8575836  21.4687973  13.3844656  64.8238328  22.4536377  13.8868851
  68.4998575   1.4884245  13.3135021  67.6023450   1.4743435  13.6459244
  68.8434663   0.6179678  13.5146702  36.8268958  26.8525463  12.3887009
  37.7635625  26.7780167  12.5712723  36.5118042  25.9487301  12.3805660
  75.4116757  67.9112815   8.9322180  75.8766206  67.8725599   9.7680134
  75.6956799  68.7360691   8.5381407  59.5871010  42.1450430  12.4680418
  60.3839949  42.6752478  12.4764914  59.1237560  42.4216467  11.6774506
  68.9059046  18.4721142   6.2943357  68.8238993  17.9114061   7.0657724
  68.4313884  19.2702490   6.5268177   3.9513445  31.6715103  26.0008234
   3.8587594  31.1487728  26.7973227   3.4472561  32.4661594  26.1759085
  58.1948812  42.0106222  10.0893253  58.4211428  41.1504398   9.7355980
  58.2132442  42.5939678   9.3306440  56.6521287  39.4818693   4.2453856
  56.8879131  40.0742107   4.9593634  56.8803591  38.6112505   4.5712084
  47.2926727  11.7616468  17.3068899  46.8237034  11.0182529  17.6859182
  46.6753212  12.1404177  16.6810793   2.0529484  51.1869722  32.8047937
   2.4275613  50.7688814  33.5801023   2.0109391  52.1162325  33.0304903
   2.3004698   2.5938707  32.2695059   2.0804739   1.6658646  32.3509687
   1.7618680   3.0267435  32.9318995   8.3594149  46.7668533  58.4002590
   9.2701250  46.4736557  58.3706713   8.4134007  47.6924801  58.6380148
  26.7862487  74.9128507   9.6651978  26.0424276  74.6851777   9.1074127
  27.0343791  74.0877246  10.0821251  76.8453804   9.5182806  18.6515802
  76.4903250   9.4748598  17.7637285  77.7946845   9.5310217  18.5295481
  23.0027532  37.9286056  15.9692472  23.9540577  37.9035431  15.8662027
  22.7624273  38.8303095  15.7561583  12.7279210  30.3951031  28.3871740
  13.5621071  30.7708937  28.6685080  12.0681619  30.8742052  28.8885874
  67.4870077  35.2790123  32.6196093  67.4640515  36.2250334  32.4755663
  66.7182329  34.9473768  32.1556753  34.5726109  56.3640070  59.7386694
  33.6444044  56.1594915  59.8519802  34.5910549  57.3051786  59.5652056
  75.2266581  71.1567162  34.6804232  75.9079106  71.2302612  35.3487963
  74.4874032  71.6494702  35.0366873  77.0103200  68.6113309  13.6491913
  77.9394133  68.4205960  13.7781805  76.9070561  69.5140098  13.9504236
  19.8089242  50.3178978  61.8953609  19.3071747  51.0391951  62.2751188
  20.2064157  50.6908321  61.1084986   1.9939851   7.5911623  13.2425684
   1.9108295   7.5613457  12.2894568   1.1018800   7.7393061  13.5563082
  11.2138223  44.6139437  33.2730669  11.6040444  44.7387987  32.4079889
  10.4928875  44.0020281  33.1245703  22.0945811  67.7170992  52.5270033
  22.6828742  68.1965399  53.1103373  22.6094604  67.5731850  51.7330122
  71.0479114   9.7454619  36.5948701  71.6528306  10.4866850  36.6247654
  70.2247194  10.1205933  36.2820411  72.7913979   6.4662510  49.1237635
  72.1296230   6.8232494  49.7160810  73.2020941   7.2366339  48.7312407
  70.7530883  18.7018066  20.9271330  70.3304949  18.8768393  21.7679781
  70.0791898  18.2643085  20.4068560  72.3396733  37.2781521  11.7046970
  72.7571192  37.3786169  12.5601954  71.4854565  36.8923384  11.8988413
  27.6212692  24.6131950  33.0536837  27.6628208  25.4863602  33.4436792
  28.2855272  24.6267849  32.3646254  54.9216302  11.0992725  62.3216820
  54.0586288  11.2178237  61.9249344  55.2303608  10.2611358  61.9775438
  76.1026922   8.8472277  24.2680639  75.3500930   9.0845686  23.7263197
  76.8202868   9.3821436  23.9287180  62.7713785  11.6695410  57.2016806
  63.1987193  11.2048965  56.4821524  62.6062706  10.9934479  57.8588480
  13.0239677  46.2764936  10.7183403  12.9917788  45.9214979  11.6066975
  12.6477146  45.5871111  10.1711506  61.5413673   5.6168373  60.5889416
  62.0896871   5.4518230  61.3559771  62.0109780   5.2022941  59.8651648
   2.7390766  66.8267542  32.0290274   2.7241444  66.9320780  31.0777563
   1.8251180  66.9264894  32.2954172   0.8845122  62.0695828   5.7087654
   1.7844684  62.2585438   5.4430527   0.9657390  61.7138075   6.5936750
  11.1109185  44.9489313  19.7816557  11.4714002  45.6541449  19.2440981
  11.8722391  44.4255930  20.0321096   4.0041336  72.3465395  61.5210056
   3.3977202  71.7925072  62.0124722   4.7352988  71.7679739  61.3044691
  27.7011664   1.4042581   2.2765869  28.2561810   1.2802232   3.0465263
  27.1477611   0.6236375   2.2519917  38.0896354  64.4605446  48.9694071
  38.2921052  64.3301010  48.0430031  38.6951947  63.8804293  49.4309139
  55.8409341  44.0418632  61.4062834  56.3360246  44.0457637  62.2254896
  56.0773738  43.2142551  60.9874725  36.6014337  17.5184113   4.0355152
  36.8522072  17.0798212   4.8485273  36.2887144  18.3790689   4.3142790
  14.2857170  24.0065294  20.4584211  15.1902151  24.2311102  20.6767649
  14.3050956  23.8202625  19.5197195  58.6143056  26.7613369  49.8995203
  57.8480187  26.1904770  49.8433584  58.2690784  27.5948959  50.2192587
   9.1817641  19.2775541   3.6591524   9.5138263  18.4380203   3.3411211
   8.2512521  19.1214806   3.8204617  56.2106037  70.9255695  51.0466528
  56.4038801  69.9977589  51.1809444  55.2545929  70.9732580  51.0448790
   6.4477205  31.3681417  17.1593184   5.8138036  30.7121998  16.8692774
   6.2563014  32.1389156  16.6249937  53.6866982  11.5009511   0.2623981
  53.2032759  12.1693242   0.7480043  53.5904534  11.7551435  -0.6553989
  32.1989329  23.9727886  53.6425686  33.1553407  23.9409549  53.6649942
  31.9233091  23.1082351  53.9472342  62.8603307  47.0355415  52.2549534
  62.7883998  46.4427757  53.0030727  63.2525030  47.8305244  52.6161098
  21.1328141  42.7628333  65.3249121  21.6633670  43.2301624  64.6796608
  20.8497588  41.9684226  64.8721123  58.2346137  15.0706107  43.1789207
  57.5570329  14.4837100  43.5145807  58.1803663  15.8445270  43.7395859
  19.8015864  59.3823462  50.7219505  20.2714785  60.0912135  50.2826977
  18.8853319  59.5159607  50.4793501  10.4612584  33.3375172  26.1784929
  10.2683122  32.5244938  26.6453928  10.5762024  33.0687808  25.2670092
  54.4783750  10.2618563  30.4775667  53.7336079   9.7512829  30.1599669
  55.2321282   9.6833032  30.3619576  27.7815848  22.3044191   1.2424034
  27.2674361  22.9323326   1.7499537  28.1227739  22.8131960   0.5068964
   3.8462599  56.5179859  19.5944017   4.7571714  56.6078161  19.8744101
   3.3927996  56.1703287  20.3623480  17.0789647  59.6365452  50.5749512
  16.8179107  60.1751757  49.8279810  16.8985665  58.7384367  50.2973032
  74.7187743  11.4687347  49.0444517  75.4814560  11.5939522  48.4797668
  74.2797509  12.3193157  49.0461016  64.0383275  55.4161762   8.5982508
  64.0556772  56.3720106   8.6463207  63.2896192  55.1627611   9.1381115
  77.9139592  45.4161835  26.1755133  78.7378460  45.7536030  25.8239627
  77.2416917  45.9807873  25.7940602   3.2421884  23.7314343  36.9140744
   2.3030517  23.9069533  36.9727850   3.3019623  22.9058909  36.4333081
  61.1156693  29.7311282  44.5250559  61.8194762  30.1313829  45.0356293
  60.3342024  29.8415828  45.0666666  26.1491537  23.5599637  38.6921334
  26.1111140  24.0366292  39.5213318  27.0555449  23.2584834  38.6305332
  21.7109075  33.8436643  62.7392924  21.9207129  32.9127297  62.8139521
  21.6924468  34.1582597  63.6431291   5.2234334  13.4232831  45.6613493
   5.5044919  13.1274796  44.7954750   5.7928860  14.1674447  45.8567429
   6.9282627  19.7683817  12.1166700   6.2907505  20.4094702  12.4310202
   6.7401910  18.9766270  12.6206488  21.2512016  22.2838306  56.9829178
  21.7839217  21.7184949  56.4236021  20.5249548  22.5587249  56.4232492
  27.7693343   0.2144837  49.2711639  26.9935131  -0.3460879  49.2807722
  27.8617167   0.5111245  50.1765347  73.3985003  70.7733094  57.9544210
  73.4269364  69.8227685  57.8453541  72.8611668  71.0821252  57.2249413
  68.4652582   3.9580828   7.5168795  67.7590957   3.6961513   6.9261498
  68.0177382   4.2430645   8.3135885  32.3674893  10.0063443  42.7064228
  32.7806401   9.2347598  42.3188734  31.4928532   9.7091544  42.9572582
  69.1567138  33.4756732  60.4334545  69.5564214  33.8594818  59.6529675
  69.8584298  32.9626918  60.8342981  14.5700836  65.9350491  40.7094622
  15.4512179  65.7875586  41.0530949  14.3706119  65.1412964  40.2130795
  16.4268255  52.4854183  60.6251526  15.8870089  53.2436085  60.8487082
  16.7266262  52.1476460  61.4691114  20.9011436   6.8290180  34.5612717
  21.4187980   6.0251987  34.6075296  20.1814389   6.6861194  35.1759577
   3.6754338  73.1826497  41.8716526   2.7556412  73.4351780  41.9519186
   3.6744206  72.2329902  41.9915581  44.6634574  74.7963117   0.5158037
  44.9248405  73.9210437   0.8018393  44.7986157  75.3499364   1.2848705
  66.6221999  23.8921760   3.5251135  67.0908474  23.0777048   3.3427996
  65.8398198  23.8464962   2.9755396  19.3269801  38.3254051  43.9353466
  19.5418143  37.5637197  44.4737816  18.6491549  38.7853098  44.4305944
  32.8585543  43.5478984  21.3352293  33.3491571  44.2986958  21.6696543
  33.3280660  42.7852462  21.6730875  31.1279988   0.2559012  21.7094183
  30.8308172   0.9842316  22.2548079  30.4888391  -0.4386837  21.8683505
  70.4419644  69.8018311  17.6753038  69.5415242  69.9248837  17.9757971
  70.9249337  70.5332159  18.0600733  57.5031956  47.0528583   5.8544153
  58.3151181  47.3003499   5.4119677  57.1389897  46.3528042   5.3126520
  77.1301373  71.6571095  45.1597118  76.4088925  71.8983265  45.7409620
  77.4041899  70.7920497  45.4643393  23.5058165  11.3913429  62.5388193
  23.1063557  10.6057787  62.1652555  22.7635813  11.9362140  62.8004169
  25.0187325   4.4003007  57.5651646  25.9746242   4.4182062  57.5184679
  24.7314644   4.8266777  56.7577505  20.3865218  31.8771124  32.5318289
  20.7865834  31.0354376  32.7503824  20.6724977  32.4666214  33.2296300
   9.8557127  73.6218405  32.6831150   9.0015250  73.9859533  32.9155350
  10.1518428  74.1569328  31.9467640  19.9995883  35.0241457   4.5899385
  20.8209927  35.1689220   5.0595850  20.2659519  34.8690428   3.6837238
  44.4937630  73.5643099   7.2868008  43.8939019  73.0759715   6.7229551
  43.9414139  74.2190217   7.7139944  37.0805573   8.4355825  54.9241352
  37.6468897   8.3580887  54.1563511  37.4511862   9.1638565  55.4226160
  53.6352634  25.4723239  64.3756294  52.8016138  25.1321268  64.7004795
  53.9934254  25.9702587  65.1104832  71.2355998   3.6171108   7.0222849
  71.6910997   3.3183533   6.2352032  70.3801301   3.9092833   6.7075867
  78.3595148  21.6558081   0.1807732  78.3040109  20.7812363   0.5658382
  79.1476885  21.6290718  -0.3617245   0.7704846  41.7248635   7.3373693
   1.6438310  42.0923187   7.4732822   0.9232633  40.9223522   6.8385023
  66.5081540   7.1275318  46.2067795  67.1323136   7.1554089  46.9319582
  66.9213859   6.5591884  45.5568123   7.6524514  15.5733407  40.6374121
   7.6775658  16.1040890  41.4335966   8.5617417  15.3094971  40.4966640
  37.9634571  19.6164978  56.2345457  37.3723769  19.0021896  56.6698408
  38.7916708  19.1419971  56.1628485  77.6580595  48.4264898  47.3299599
  77.0567453  48.4860229  48.0723286  77.3948028  49.1414928  46.7505646
   9.3029745  46.2258999  12.7298922   8.3728571  46.3937120  12.8813929
   9.7545774  46.8434470  13.3051485  16.4334552  73.1482727  56.1086941
  16.9133966  72.6881458  56.7972946  15.5177467  73.1030371  56.3837624
   3.4844926  11.4823544  60.8728600   3.2478565  12.3981047  61.0199547
   2.8492326  10.9850955  61.3880396   2.7382469  18.9800650   6.8438715
   2.3056793  19.6202618   6.2788338   2.8060007  18.1919771   6.3048309
  79.6171084   5.9332186  17.3994535  79.7201338   5.5209642  16.5417475
  79.6170130   6.8725306  17.2152609   2.6730466  11.2918001  11.5308947
   3.4103012  11.8248039  11.2332434   2.9643202  10.9249359  12.3656363
  15.9064567  58.9790392  62.4843836  16.1844921  58.1711054  62.0529079
  16.5355790  59.6371365  62.1888447  11.5099971  64.7550653   2.0685524
  12.3814122  64.3978714   2.2396654  11.5456550  65.0476407   1.1578602
   9.8201747  40.2130000  17.7208895   9.7411747  41.1668615  17.7091021
  10.6124719  40.0445678  18.2309145  78.0164060   1.5271559  58.5014439
  78.7156164   1.8983239  57.9633284  78.1775788   1.8765494  59.3779039
  57.2843162  43.5760927  63.6931324  56.6774121  43.1529951  64.3004942
  57.9120913  44.0274620  64.2573977  11.7222548  32.8058481  36.3529515
  11.4902592  32.0680189  35.7890201  11.7064238  33.5660005  35.7714462
  10.0657809  14.9557412  64.3809271   9.5265746  14.9070132  63.5915518
   9.7315782  14.2565751  64.9428034  35.6753577  51.7523299   4.3065113
  35.5607612  52.6964806   4.1984362  34.9900825  51.4970289   4.9241299
  18.7195456  35.2329993  59.9399900  18.7354386  34.5501041  60.6105375
  19.2048430  34.8582625  59.2049456  15.2182496   4.6673256  21.4319420
  15.2770424   3.7216437  21.2960720  15.3697813   4.7844324  22.3697877
   4.2408359  31.0801673  42.5889587   5.0488377  31.4181495  42.2027779
   3.5417929  31.5126824  42.0985508  51.2583319  58.5302775  15.4973185
  51.1669652  59.4718402  15.3512299  51.6500058  58.4598665  16.3678741
  76.6189158  74.4025517  45.1885033  77.2873101  73.7557840  44.9622869
  75.7970989  74.0113878  44.8921251   6.4529617  50.2674447   0.3100342
   7.2286864  50.3068267   0.8694405   6.7074259  50.7348763  -0.4855686
   1.3654521  26.6174603  62.3279381   2.1090844  26.0217953  62.4197435
   0.7170583  26.2888646  62.9507113  78.7359605  11.3480663  63.6810064
  78.1274215  10.6400383  63.4698009  78.7674593  11.3594317  64.6376228
  59.8573382  75.2747058   8.5198349  60.0967868  74.3571066   8.3897966
  58.9635976  75.2429722   8.8610834  45.9338808  17.4010956  63.3027363
  46.3471556  16.6552925  63.7377214  45.3427839  17.0068491  62.6613235
  68.9505282  17.1422708  58.9322376  68.1539145  17.6726377  58.9135313
  69.6571973  17.7654719  58.7635040  46.4333184  20.3852330   0.4502338
  46.3689049  21.1530446  -0.1176983  45.8407541  19.7452413   0.0558895
  67.3106721  44.2867470  53.8263750  67.0029000  44.2403841  52.9211903
  67.9493204  44.9997377  53.8259840  65.8473411  10.5918938  16.6066259
  65.5064598  10.7648235  17.4841970  66.7696968  10.8433681  16.6541094
   7.2958775  27.0147930  15.1147360   6.5030582  26.5777193  14.8038715
   7.0177777  27.4845623  15.9009928  37.3053439  44.7131454   4.6809811
  37.9181869  45.3661041   4.3428988  37.8606124  44.0661805   5.1161188
  60.4333767  22.8620630   4.9459642  59.8561797  23.3731371   4.3786186
  60.1189247  23.0419022   5.8319706  19.2434919  32.5702477  60.8128119
  19.1295946  32.1901774  61.6839075  19.9812460  32.0902014  60.4366398
   1.7275500   7.3154646  34.9986071   1.6377425   7.9245621  35.7315344
   1.2554836   7.7349907  34.2793173  73.5752735  27.4885964  28.3688354
  73.3232805  26.6766334  27.9290080  72.8212360  28.0669951  28.2543230
  33.4472807  62.0803015  38.0790949  33.7462385  62.5969749  38.8273621
  34.1466852  61.4433150  37.9331040  78.2423719  56.6790979  39.7793436
  77.6864155  56.9269686  39.0406251  77.8464087  57.1149938  40.5339527
  34.9743636  66.6560124   8.7284941  34.8884542  66.5747474   7.7786297
  35.8937670  66.4555644   8.9038509  77.9151208  48.5778570  51.6701984
  78.5952644  48.0488634  51.2533045  77.4566287  48.9960814  50.9414291
   1.2693524  36.0157871  49.5727634   1.9902343  35.8783102  50.1873064
   1.6700138  35.9213853  48.7085962   9.7640343  64.0790413  11.8476004
   8.9651962  64.2862700  12.3325199  10.4372425  63.9894317  12.5221342
  37.8761669  53.8418709  13.6513895  38.4758754  53.3190750  13.1191629
  37.3676808  53.1967817  14.1428465  72.9552443  61.1315607   8.0823940
  73.4240086  61.9636701   8.0184740  72.2647746  61.1943172   7.4224371
   7.8508329   2.9266840  37.7340693   7.5577140   3.5253149  37.0470804
   7.4483967   2.0879560  37.5086397  76.4544724  71.4915918  17.5681299
  75.5332636  71.2403296  17.5012297  76.9333028  70.7434462  17.2114271
   1.3805714  41.5843678  26.8958163   1.3584569  42.3773575  26.3601756
   0.6580070  41.6927958  27.5141811  60.0658798  30.1767945  63.6187220
  60.6438303  30.5062556  62.9304934  60.1873922  29.2275333  63.5994577
  67.6086179  51.2239885  54.3669939  67.9310862  50.3516674  54.5934963
  68.2900039  51.5927362  53.8048840  29.9949503   8.3179706  42.7861595
  30.1769662   7.3793375  42.8316545  29.2359161   8.4426433  43.3558559
  68.7187532   4.0672356  14.0773005  68.9529684   4.3527847  14.9603838
  68.7175825   3.1113296  14.1270966  48.0023511  67.9422926  17.8164000
  47.3956712  68.6657833  17.6591295  48.7031896  68.0743097  17.1779341
  44.9966621   5.6904709  58.1260872  45.7428980   5.8977640  58.6885786
  44.5743370   6.5347296  57.9676533  11.5399027  22.2221971  52.2845125
  10.6605244  22.5468922  52.0908689  11.9139385  22.0179677  51.4274120
  17.4826169  41.5830231  61.4965153  17.3656273  41.1383629  62.3360538
  16.6365683  41.4931440  61.0579300  72.6737817  72.0100843  50.5576849
  71.9634266  72.6254277  50.3760767  72.8661819  72.1339287  51.4871359
  62.5557835  35.8729629   7.3565758  63.1214125  36.4168219   7.9047668
  63.1618769  35.3471665   6.8346394  74.8803352  53.0982338  23.8740820
  75.2723717  53.9622294  24.0007681  74.1569113  53.0693244  24.5002169
  19.3508506  22.6047897  48.5281706  20.1084876  22.0510864  48.7169266
  18.8602436  22.1210194  47.8637123  34.9183281  66.4938544  18.4423155
  34.7405113  66.9122671  19.2846674  34.5996065  65.5974959  18.5481161
   4.7156504  29.1345644  53.5351419   4.5830181  29.7432923  54.2618418
   4.4428957  29.6245646  52.7594233   5.3012443  59.5181131  54.3627548
   5.8481205  58.9619541  53.8079166   4.4041738  59.2621088  54.1483736
  65.8144215  15.0830638  38.1439662  66.5282443  15.4582798  38.6596251
  65.6819657  14.2115116  38.5169077   8.5156852   9.7621709  51.7627048
   8.7643689   9.6906972  52.6842690   9.2517507  10.2142978  51.3503742
  32.2483625  68.1398915   9.6357817  31.8306412  68.0079459  10.4868549
  32.5390162  69.0517782   9.6504301  49.7880419  65.0514148   1.2489695
  49.5167620  64.2235039   1.6454596  48.9696963  65.4646109   0.9736246
  17.9764044  29.5482254  46.8914175  18.9247477  29.4374490  46.8235493
  17.7109921  28.9290524  47.5714207  15.5124497   1.1513504  59.9829054
  15.1615560   0.2714593  60.1203728  14.7428346   1.7204034  59.9930191
   0.1140139   5.7561314  55.7034445   0.2369388   5.0494987  55.0695753
   0.0507466   6.5482551  55.1698065  21.7662334  12.8274733   6.0814852
  22.5643110  12.7698761   6.6068262  21.4708185  11.9211679   5.9944910
  63.6418151  64.3927811  19.8200029  64.0936040  63.8891219  20.4970831
  63.3364104  63.7346600  19.1956324  38.9972615  17.8793144  49.5511436
  38.3510470  17.2643340  49.8981857  38.5342431  18.7161255  49.5112419
  52.2512831  64.5031243  39.0061665  51.4105328  64.0469198  39.0414953
  52.0261173  65.4020684  38.7665153  25.1576527  61.9420414  51.7704725
  25.2983339  61.8679409  50.8265686  25.9528001  62.3616760  52.0989227
  73.0265490  16.1874545  26.3244438  73.7647584  16.3899243  26.8991470
  73.4250579  15.7704639  25.5605435  59.0279785   4.1752324  50.9234142
  59.1980473   5.1098859  50.8062363  58.5809008   3.9105049  50.1195049
  16.0666513  39.8970652  29.7870541  15.7018459  39.8594880  30.6712127
  15.6983078  40.6959295  29.4097304  71.3720081  41.0780048  48.6625051
  70.8344302  40.3664064  48.3148384  72.2497049  40.7026386  48.7330866
   8.8245404  36.1882639  32.4202394   8.2143158  36.5925312  31.8034530
   9.2299610  35.4768300  31.9245291  18.8073444  30.7721496  62.9052830
  18.0184770  31.0134602  63.3907604  18.4909868  30.2088952  62.1989584
  10.3752398  33.0173659  11.2777853  10.6493139  33.9214039  11.4321578
  10.1262248  32.9970479  10.3537667  53.9087947  47.9947113   4.6120686
  53.7601669  47.8008126   5.5375666  54.5493205  48.7060069   4.6162361
  48.0818947  64.9106650  63.0172539  48.1856092  64.0220564  62.6768875
  47.2024687  64.9213128  63.3950472  72.9617901  64.1442471  56.9088793
  72.2660049  64.5895176  57.3924541  73.2200606  63.4174090  57.4756575
  61.9726427  59.9524449  15.0404734  62.8532060  60.2726530  14.8447508
  61.4099462  60.3958415  14.4056505   8.7744450   3.7838512   0.4676622
   9.4393921   3.3657843  -0.0794130   8.0387401   3.1715446   0.4604334
  -0.1632953  13.0415445  12.5498528   0.2752042  12.3177343  12.1025890
   0.3018927  13.8236195  12.2528786  33.6585760   9.5174617  62.4424982
  34.0693521   9.0033031  61.7474174  34.3649340  10.0656009  62.7843046
   7.4015421  15.5116296  49.4947386   7.3508263  15.0790405  50.3471041
   8.2901579  15.3321254  49.1875410   1.4404136  16.4671695  30.4295492
   1.4137340  17.4227250  30.3802109   2.3723599  16.2561834  30.4860544
  65.7551149  16.7097282  48.3632040  66.1069337  17.4385643  48.8743353
  66.4897612  16.1025047  48.2748604  23.9852643  52.4412441  59.4521570
  24.1240191  53.2684708  58.9909887  24.5389223  52.5050735  60.2303743
  15.9261405  44.7601223  63.5864782  16.0149682  45.6473398  63.9345980
  15.0358772  44.7282648  63.2362652   5.9715223  25.2258020  11.0178608
   6.9057941  25.0945812  11.1795706   5.8738184  26.1743265  10.9342855
  50.2781582  32.8629184  50.0848913  50.5076599  32.2425747  49.3929863
  50.6508064  33.6951303  49.7937107  17.1676250  58.9139937  10.8817476
  18.0759503  58.7277030  11.1193890  17.2062840  59.1512250   9.9552197
  37.8183182  56.4707481  12.5624889  38.7383898  56.5543567  12.3120779
  37.7883013  55.6823598  13.1045002  68.7237819  67.6657294   5.8579964
  69.1809733  68.1802629   5.1928181  68.7203725  68.2262586   6.6339010
  30.3073289  58.5536741   3.4774345  31.1049576  58.0539225   3.6514086
  29.6045835  57.9050563   3.5183662  22.8161025  33.7001157  54.7305346
  22.5408769  33.5396433  55.6331587  22.5869179  32.8964686  54.2637825
   2.2691631  63.0118322  32.8395677   2.1591780  62.9095173  31.8942285
   1.5541789  63.5913754  33.1025457  78.9206030  25.8617282  64.3087149
  78.3584252  26.4129925  64.8530436  79.1836572  25.1445580  64.8855162
  22.8312802  22.2354269  60.0206852  23.6923504  22.6514506  60.0620842
  22.6721787  22.1066999  59.0856218  73.4875568  67.4607788  42.8041172
  74.1941341  67.0602613  43.3106422  73.3810337  66.8863486  42.0458841
  44.1151746  66.2993764  16.4760965  43.2852681  66.3779448  16.0056490
  44.0146013  66.8720173  17.2364897  77.2095689   5.7402200  32.9933095
  77.6866953   5.7352602  32.1635151  77.7674249   6.2423497  33.5873580
  48.9594229  67.1980070   9.4659704  49.8508795  66.8576287   9.5413393
  49.0558727  68.0162786   8.9787716  24.9169135  19.5034242  32.7654147
  25.5091667  18.8879764  33.1974959  24.2921495  19.7527969  33.4463811
  29.7059512  25.9184575  51.1425972  29.6662259  26.1572719  52.0686769
  28.8039637  26.0048223  50.8340740  16.1832941  22.2659469  46.8621635
  15.3245103  21.8930769  47.0613813  16.3384998  22.8982329  47.5638437
  18.1128480  47.3888146  24.4523424  17.4729373  47.8703509  24.9766249
  18.9472581  47.8196179  24.6378130  31.6843064  48.0795358   2.0688766
  32.5669111  48.4499131   2.0767349  31.1060788  48.8397800   2.0063156
   8.8962466  10.8809769  47.8791237   9.1713393   9.9996299  48.1316805
   8.4323728  10.7589459  47.0507765   7.3411191   5.2762622  50.6266785
   7.7616483   5.7889676  49.9363756   7.8755230   5.4376727  51.4042330
  20.1466751   9.1182095  54.8132706  19.3533325   8.9055634  55.3048229
  19.8577058   9.1681767  53.9021015  24.7280383   1.3756338  52.0246029
  25.3291392   0.7855309  51.5699768  23.9845085   0.8223616  52.2639465
  75.2910240  74.7395941  56.8509340  74.4316657  74.4374544  57.1449518
  75.8626421  73.9797581  56.9610834  20.9711337  31.2711191  59.3450642
  20.9257698  30.4178381  58.9136887  21.8892121  31.3620019  59.6002150
  21.9281816  27.0914149  51.5640306  22.2569919  27.9860067  51.6524649
  21.4546847  26.9285321  52.3798132   8.4782862   7.6504284   5.0414700
   8.0125570   6.9104963   4.6518177   9.3949485   7.3752457   5.0567669
  49.7117745  71.8789532  40.4535961  49.0746711  72.5513418  40.2122974
  50.5613400  72.2694187  40.2486372  22.4548984  52.8175020  34.4383359
  21.6876268  53.3893728  34.4162083  22.4787474  52.4832964  35.3349805
  59.1488234  19.6555471  53.7407398  59.5915357  19.1420019  54.4163942
  59.6489492  19.4834721  52.9429340  73.4957328  15.6185823  14.4487661
  73.5021916  16.3507467  13.8322252  72.6362541  15.2139860  14.3311447
  43.0374098  39.7434974  59.3788815  42.3778486  39.0749860  59.1936684
  43.5487318  39.8054910  58.5720730  64.7120579  61.7286728  28.1743711
  64.2268641  61.9981335  28.9542479  64.2291577  60.9722923  27.8413099
  12.7690935  41.6436338  55.5550480  13.4157979  41.0251474  55.2152300
  12.9293144  42.4506283  55.0658417  53.1455760  19.7869879   9.3926186
  52.4541929  19.3749147   9.9107069  53.5143016  20.4535061   9.9723000
  47.4885276  11.0871845   9.1230864  47.7725676  10.1741034   9.0802235
  47.4359641  11.2779480  10.0596088   0.9426326  14.8084223  50.6640959
   0.5606693  14.6034348  49.8106861   1.8055516  15.1688707  50.4599428
  15.3560257  45.8724594  52.9932499  15.2973902  46.7818260  52.7002478
  14.4626021  45.5377674  52.9157448  53.0586631  28.5041243   0.1570744
  53.3556967  27.7232414   0.6242222  52.4561507  28.9323431   0.7652182
  13.0626261  50.6378126  54.1255808  13.2572532  50.1827860  54.9449110
  12.5169289  51.3794136  54.3872547  43.0343445  67.7598785  13.9131636
  42.4598785  68.2727455  14.4816584  42.4740763  67.4932002  13.1843227
  56.2107164   9.3214231   2.7293819  55.6627014   9.6812540   2.0319361
  57.0704117   9.2079693   2.3240656  50.1008661  64.5727609  35.0240702
  50.1251896  64.9406408  34.1407293  49.1684373  64.4766711  35.2179235
  73.9670721  31.6173816  33.4096932  73.1813804  32.0790100  33.7026429
  73.7114933  31.2113953  32.5813890  14.6447408  40.9523439  61.2027073
  14.1380274  41.5569448  60.6605530  14.6291935  41.3434172  62.0762300
  15.6622600  28.0745703  13.2819456  16.4062547  27.5902754  13.6399454
  14.9088049  27.5048262  13.4366554  22.1782994  38.6336350  58.4308052
  22.7902865  37.9097295  58.2979059  21.6315603  38.3533692  59.1648102
  44.4631705   7.9475265  27.1973986  44.8497537   7.3974520  27.8787226
  43.8224563   8.4873777  27.6602930  16.9587505  64.9517345  54.3287706
  16.2334001  64.3314409  54.4017982  16.5367448  65.8098555  54.2867088
  64.6032646  32.8938919   9.2972940  64.3300560  32.4230581   8.5099548
  63.9846197  33.6208397   9.3684286  10.2348971   3.5430419  57.3375940
   9.3225855   3.8234922  57.4101591  10.2732515   2.7229798  57.8297901
  45.1432583  15.4209286  16.2127298  45.5425093  15.0857073  17.0155043
  45.0263342  14.6467882  15.6620306   4.4403195  14.3711573  20.7826036
   4.8704791  15.1947123  21.0127253   5.0848055  13.6964518  20.9962362
  23.3816576  20.8811241   2.0447964  23.2403707  21.6328197   2.6203197
  23.6196947  21.2664896   1.2015528  45.4088219  74.6212314  13.7984795
  44.5889445  74.6949028  13.3100075  45.9382494  75.3566598  13.4901232
   1.1099696   2.1405798  15.2204985   0.7931733   1.3319975  15.6230730
   1.5779328   2.5908714  15.9236902   9.3741471  36.5789199  55.9038973
   8.4251106  36.5820336  55.7791901   9.5005929  36.9218302  56.7885780
  22.4995518  14.5482659  62.2985697  22.5240088  15.5015361  62.2154474
  22.1111512  14.2461395  61.4775372  75.0304494  18.4902751  43.4971046
  75.9205190  18.2458127  43.2436371  74.6044782  18.7303567  42.6742172
  23.4921884   3.8856894   6.3118977  23.5967731   3.0945021   5.7833904
  22.8437757   4.4063765   5.8378977  12.8740358  33.6813551  20.7765955
  13.1803345  33.2736498  19.9665445  12.0534587  33.2307297  20.9761423
  50.7420641  31.1271292  -0.0570351  51.6827288  31.1859852  -0.2241236
  50.6564331  30.4220253   0.5846209  22.5453639  67.0351839  34.4714975
  21.9516587  66.5098381  35.0079274  23.3897376  66.5899801  34.5426416
  47.2823818  74.6734522  17.6669973  47.4716361  74.2423056  16.8336195
  47.3232348  75.6087421  17.4675077  66.3367727   1.2052828  23.3880419
  66.8206397   0.8522182  22.6414198  65.7744446   0.4844242  23.6715597
  57.2487026  13.0871874  28.9965433  57.8611252  12.3600155  28.8852304
  56.8869132  12.9634386  29.8740572  60.5212171   7.7826125  33.3742404
  60.3501685   7.2528846  34.1529346  61.1428602   7.2639663  32.8635526
  17.6106794  65.0743435  41.0432142  18.3581330  64.4779371  41.0002798
  17.1922220  64.8740409  41.8804735  79.3965283  12.7863079   5.9760851
  79.1365591  13.7075096   5.9822744  78.6509791  12.3296505   5.5864042
  43.2618475  22.8403926  52.1457386  42.5235796  22.3972464  52.5638485
  42.8602552  23.5377455  51.6274214  13.9679861  20.8127314   9.9932856
  14.3482494  20.4261690  10.7820839  13.0700397  20.4817873   9.9733395
  79.0739575   7.7782684  12.9354853  78.5436574   7.6328331  13.7189812
  78.6002937   7.3248917  12.2381205  17.4212480  36.1366248  56.0335207
  17.0586705  36.4554620  56.8600273  18.2888925  35.8049846  56.2646914
  40.9652662  27.2001171  64.0096378  40.6183100  26.4837694  63.4779501
  40.8418703  26.9092822  64.9131966  62.8709731  10.5786282  13.3929819
  63.5121658  10.1273447  13.9420265  63.0582920  11.5085464  13.5209984
   1.4849471   1.7453879  54.1042137   2.4321054   1.6237235  54.1699457
   1.1508906   0.8875193  53.8421059  58.3989532  68.2164334   7.9075378
  58.7913902  67.5004099   8.4070772  58.9336117  68.2773779   7.1159214
   1.3928191  65.1579331  24.6479982   1.0589377  65.4023622  25.5111403
   0.6966369  64.6248911  24.2640299  35.8663858  69.0692853  10.3341764
  35.7880624  68.6774872   9.4643539  35.8057906  68.3282302  10.9370035
  17.7289009  19.2076355  25.1307768  17.3376894  19.6225363  25.8995718
  17.3677826  19.6912151  24.3878263   1.9976555  43.4325027  52.1775723
   2.2490355  42.5146341  52.2803116   2.6342839  43.9156008  52.7044058
  16.8832684  61.1596966  48.1919956  16.4868224  61.1803198  47.3210001
  16.8996704  62.0756626  48.4694338  38.2754500  73.7539934  11.4333910
  37.7195676  74.4143365  11.8471188  38.5310765  73.1730651  12.1499151
   4.2804479  16.9878441  30.1678175   4.2404604  17.8671413  29.7916979
   4.9939561  17.0318514  30.8043760  72.5264438  60.1878904   4.1738934
  72.8606732  60.4964326   3.3316797  72.7231868  59.2511557   4.1810173
  52.7346400   6.1008268   3.0686039  53.5037208   5.5938822   2.8083176
  52.0765963   5.8957916   2.4043983  11.1470544  48.1532812  50.9184074
  11.2555933  49.0579748  50.6251812  10.4212284  48.1888771  51.5414190
  70.1372464  70.1316594   5.4094643  70.9971078  70.1379274   5.8299726
  69.5871289  70.6671499   5.9811729  15.8501458   6.3909501  58.2500410
  15.2528429   6.0513234  57.5836229  15.7177997   7.3387372  58.2296610
  56.3887820   8.1352526   5.0769037  56.0464588   7.2564417   4.9133915
  56.3054627   8.5850292   4.2360729  64.5627931  12.2233730   8.0485958
  65.3986481  12.6727110   7.9234022  64.7992566  11.3821465   8.4393066
   6.9587087  23.8006979  18.1894392   7.0612097  22.8508717  18.1297964
   6.4520263  24.0361887  17.4122328  79.5572248   3.0292088   2.3393816
  78.8196746   3.4785562   1.9266647  80.0027218   3.7115055   2.8416103
   3.1079769  37.8019911  28.8849157   3.9249730  37.5274521  28.4685320
   3.0894589  38.7523895  28.7725538  62.4803670  66.7805981  40.8925247
  62.7994539  67.5983255  40.5107689  61.7847903  67.0514046  41.4917469
  54.1538532   8.1089599  45.6701851  53.7098081   7.5219352  45.0582552
  55.0160225   7.7134712  45.7985926  64.7702197  41.0600138  59.7173977
  64.0644256  41.6665173  59.9415302  64.4800797  40.2162743  60.0640392
  67.7301994   5.0036144  58.3161163  68.0502168   4.6227378  59.1338921
  67.2044686   4.3096584  57.9182959  75.9446850  14.8847538   1.5994400
  75.7516423  15.5129963   0.9035391  75.6339851  15.3098255   2.3988194
  23.9467971  71.5722869  34.5709795  23.9124258  72.2412370  33.8871950
  24.4589347  70.8615612  34.1852087   2.1293099  61.0087417  34.6214193
   2.4386580  60.4819130  33.8845438   1.8135364  61.8187331  34.2208761
  39.9332662  74.1354083  32.6562399  40.1678474  73.9808010  33.5712809
  38.9834757  74.0195535  32.6296038  43.5245594  62.6001554  14.7660536
  44.2472330  61.9786745  14.8540300  43.2552525  62.7833086  15.6661409
   9.2888379  46.9749641  61.4690161   8.4092540  47.3300123  61.3405418
   9.8731881  47.7106810  61.2860060  46.8796523  70.4508327   0.0804752
  47.2112258  69.6102761   0.3963131  47.5015338  71.0956191   0.4177422
  13.8840318  42.0741940  63.7735510  13.8463235  42.8280926  63.1849527
  13.4380448  42.3679829  64.5679188  63.1848041  61.8395805  48.2751751
  63.6871770  62.6458931  48.3922529  63.8419250  61.1437225  48.2896757
  11.8962717   2.9108959  29.4476027  12.0460987   3.8517624  29.5401186
  12.3815322   2.5185781  30.1734442  17.2668409  21.2562376   7.7252954
  17.2678184  22.0139652   8.3101744  17.1497106  20.5049807   8.3067841
  23.4690519  60.1234721  14.2965073  24.1976063  60.1302432  14.9173063
  23.8792782  59.9583410  13.4475798  32.5066280  15.6032854  17.3984045
  32.4280691  16.0590178  16.5603346  31.6443205  15.6963116  17.8033823
  21.1793565  23.2642513  25.3238005  21.1082983  22.3422247  25.0767225
  21.3927507  23.2464462  26.2567419   5.7414711  24.0761065  51.1642504
   5.3323936  24.2121458  52.0188713   5.4363126  24.8114610  50.6328678
  34.4120693  32.3547893  20.8274073  34.1509199  32.0955473  21.7110533
  34.1409874  33.2700497  20.7563585  53.8301538   8.8697201  21.0969538
  53.3841202   8.3322912  21.7515177  54.6640807   9.1018206  21.5055269
  39.1653486  66.9053076  22.8514666  40.0955386  66.9937109  23.0592150
  38.8328202  66.2853836  23.5005754  72.6810788  56.8825148  19.5084566
  73.0027770  55.9822153  19.4615168  71.8770598  56.8229674  20.0244421
  32.0223585  21.7545944  15.4649633  31.9458643  22.6948791  15.6269735
  32.5612870  21.4303022  16.1865038  76.2709060  58.2548243  49.3154711
  75.5136624  57.7765566  48.9777178  75.9018055  58.8734537  49.9457830
  34.8400195  73.4862875   5.5813164  35.4774643  74.1828202   5.7385963
  34.5901920  73.5930322   4.6634764  37.1666980  60.7493877  58.5344505
  36.6561484  60.2658176  57.8850365  38.0477977  60.3811359  58.4689903
  69.8958996  17.8486782  -0.1460415  69.8431769  17.3832851   0.6887430
  68.9999262  17.8388554  -0.4827410  65.3838141  60.9326886  41.5779776
  65.2671416  61.6485571  40.9533590  65.8514030  60.2584861  41.0849756
   6.5802829  71.2726925   4.2349810   5.6428925  71.3495015   4.0571159
   6.9821374  71.9591521   3.7025208   8.0586593  64.6060007  18.2491672
   8.0664580  65.2966623  17.5864780   8.9706366  64.3215768  18.3094275
  42.5105095  71.6729736  61.1742592  41.8425703  71.1356592  60.7483721
  43.2728148  71.0980892  61.2423134  65.0332514  26.1163259  15.7075596
  65.1051012  25.2859807  16.1782992  65.0303260  26.7820740  16.3953102
  26.1613130  22.2317797  26.5812010  25.5334711  21.8212896  25.9866041
  26.9225692  21.6517740  26.5633673   0.8757214  18.5005641  46.8344307
   1.2574381  18.3930719  47.7056170  -0.0636701  18.5915637  46.9940996
  40.2662134  67.2913551  62.9025555  40.0182867  66.9817829  63.7737226
  39.4404888  67.5603008  62.4999714  25.3706407  52.8161150  26.9332689
  25.7956123  53.2934004  26.2206453  25.3981590  53.4197145  27.6756567
  36.9607639  23.9847636  62.5994921  36.0888147  23.6014056  62.6942158
  36.8138766  24.7972202  62.1151686  19.6600723  29.4159990  16.2596125
  20.5519056  29.4311625  16.6069407  19.4104576  30.3381687  16.2002367
  35.7533288  69.5927238  54.9155760  35.6146932  69.3376637  54.0034628
  36.6221046  69.2528486  55.1299191  68.9255741   9.1230732   4.4252724
  69.0433565   8.1754595   4.4914526  69.7501817   9.4897800   4.7443050
   4.8081708  26.1716133  13.7159008   4.9866366  25.7388597  12.8809685
   4.1386103  26.8237406  13.5093636  45.7389016  70.4682063  11.4900965
  46.5228517  70.9544586  11.7454618  45.3721352  70.9702467  10.7623142
  76.5280530  27.8756261  59.4510269  75.6589654  28.2464886  59.2981195
  76.7239943  28.0924249  60.3625298   5.7448888  32.5659800  65.2225256
   6.2971437  31.9472551  64.7445917   4.8648077  32.1936369  65.1673126
  66.1869398  41.6932779   9.9695438  66.6402724  41.0314327   9.4473547
  66.7435375  42.4695688   9.9078840  74.2091582  54.0979528  57.5803137
  73.8882718  53.5503531  56.8637943  74.7241190  53.5024500  58.1247663
  60.2147689  19.9357277  10.7289738  61.0093924  20.0463539  11.2510532
  59.5869830  20.5458694  11.1160702  43.4367666   8.3097607  15.5770201
  43.7041405   8.1424528  16.4807695  43.9306960   9.0888315  15.3214449
  45.2345943  31.7899060  61.5211296  46.1570883  31.6862583  61.2876940
  44.8972845  30.8953071  61.5674782  57.6935643  34.2877298  19.6334356
  57.6770350  33.5183340  20.2026361  57.7594015  35.0293451  20.2350229
   1.3362527  60.5866861  48.5035181   1.4325505  61.3965750  49.0045547
   0.9386110  59.9703884  49.1185713  51.5043879  67.4645758  61.3632584
  50.5701113  67.6622915  61.2979555  51.8607235  67.7064943  60.5084324
  73.8499577  11.9335912  31.6032404  72.9174741  12.1422671  31.5470022
  73.9453776  11.4882301  32.4451345  12.5582242  29.4830614  37.0470327
  13.0054354  29.6003204  37.8851789  12.8910684  30.1920086  36.4967245
  20.5447388  61.0602903  61.7224407  20.7674217  61.0669279  60.7915258
  21.1466980  61.6911888  62.1172047  29.1593051  18.0111003  48.2028818
  28.9590049  18.7560701  47.6361942  28.5162807  17.3451948  47.9593229
  27.6305151  63.5735130  58.7343025  28.1452799  62.8056622  58.9826059
  27.8155184  63.6949635  57.8030348  79.3026875  37.9928702  14.5344872
  79.9470495  38.6835859  14.6892208  78.5452985  38.4495334  14.1683525
  17.9396629  42.3559666  54.5047235  17.4785960  42.6832199  53.7323570
  17.6264465  41.4573526  54.6077824  58.6921056  74.2548083  26.3489050
  59.4082864  74.8231219  26.0654634  58.9846762  73.3712433  26.1254114
  56.0399351  27.9393297   5.4252523  55.3532401  28.5819298   5.6034273
  56.4346963  28.2321506   4.6038813  73.6014357  39.2399841  19.0768904
  74.5116010  39.1355234  19.3542379  73.5447684  40.1475817  18.7780851
  40.1102543  51.8817425  61.3928747  40.4488850  52.1847057  60.5503941
  40.8112431  52.0736742  62.0157814  62.9793842  71.6873811  32.2357077
  63.3866532  70.9181856  31.8373388  62.2603019  71.3336037  32.7591604
  58.5371706   3.4629017  16.8866915  59.3744782   3.9168602  16.9819254
  58.6940148   2.5920206  17.2516531  54.5947742  37.2415924  60.0658894
  55.0509739  36.4321828  59.8357344  53.6670923  37.0336080  59.9546385
   0.7297166  73.7952805  60.5228233  -0.0451614  73.6655855  59.9760342
   0.3871202  74.1485786  61.3438177  75.1302293  63.0516720  59.2848969
  75.8595869  62.6734972  58.7937260  74.5396498  62.3149300  59.4419384
  26.2574172   7.6429629  53.3305216  26.9131708   8.3400649  53.3469820
  25.8399892   7.6864409  54.1908073  42.2162230  59.8691319  11.8206543
  42.4898930  59.3486928  11.0653585  42.9471178  59.8022460  12.4351067
   6.3095748  20.9693432  57.0809603   5.3645086  21.0064793  57.2282743
   6.4456397  20.1506901  56.6039610  56.5052310  36.0369945  63.5464191
  56.3575450  36.8026996  64.1015053  56.9671145  36.3809443  62.7818346
  62.5797460  19.0332228  29.1640276  62.6512048  19.6893078  29.8573393
  62.3497590  18.2248074  29.6220774  27.4543598  72.7926539  11.4818424
  27.4826739  71.8428658  11.5973133  28.3734880  73.0556344  11.4341301
   1.3705748  33.6223722  62.2250509   0.8392137  33.5641789  61.4310074
   1.0123330  34.3732119  62.6984787  75.9602547  42.5623035  35.2825809
  75.4280567  42.1016312  35.9312558  76.7851505  42.7421188  35.7336283
  53.9356899   7.0322704  55.5852318  54.8406696   7.2576380  55.8007479
  53.4221411   7.3799205  56.3143682  63.1699518  53.0761194  46.2580109
  64.0879587  53.3169556  46.3824797  62.6911882  53.6307955  46.8739223
  46.6100230  74.6308990  30.0452781  46.9582703  73.9530480  30.6244779
  46.1744424  75.2478528  30.6333852  19.8205757  40.3281790  15.6864542
  18.9243078  40.2952724  16.0208982  19.7204494  40.4923111  14.7487587
  63.8666239   8.6508518  42.8604883  64.6221116   9.1950947  42.6385111
  63.2452825   8.8015800  42.1481318   5.8600336  61.8187618  58.4457302
   6.1964148  61.1064434  58.9895010   6.6399115  62.2036886  58.0459118
  65.4857643  74.4797014   8.6475224  65.9112175  73.8380693   8.0787272
  64.8264535  73.9763664   9.1252226  78.3607450  19.8875719  17.4301619
  77.4318472  19.6667486  17.3622030  78.3891168  20.8386236  17.3256105
  75.9316197  26.2674814  14.2136806  76.0210124  27.1901470  14.4522757
  75.9906760  25.7981068  15.0458044  77.3593393   6.9892412  21.7961687
  77.2649780   6.8298679  20.8570570  76.4736715   6.8915659  22.1458620
   6.1279320  12.5048929  13.2046217   6.6099620  12.2739225  13.9986843
   6.5669679  12.0174175  12.5075954  43.2609606  42.3408365  63.2409191
  43.2474375  42.6259375  62.3272657  44.0438223  41.7943764  63.3097410
  39.7196746  24.9581099  56.8096495  39.7182631  24.1860056  57.3754072
  39.8063159  25.6965876  57.4124527  17.2462272  19.3986469   9.6594090
  17.4208116  18.4886414   9.8995012  17.6690435  19.9131113  10.3470034
  22.3888731  20.8042341   8.9151091  22.9293680  20.4218060   8.2238478
  21.6339397  21.1700159   8.4541220  45.4116340  59.8651765   9.9242682
  46.2582953  59.4448184   9.7736162  45.6319340  60.7326912  10.2635569
  67.2507897   8.4918600   1.5555758  67.2008327   9.0539843   0.7824320
  67.3537996   9.0999657   2.2875780  73.1311305  19.3244274  53.3539200
  72.5876315  19.1618354  52.5829458  72.5105317  19.3567474  54.0819597
  14.2007542  53.7391233  56.4996004  14.6845496  53.5535860  55.6947708
  14.7572339  54.3543673  56.9771338  57.8087521  23.2113218  60.9250593
  57.5988293  23.4501505  61.8279028  56.9903326  22.8608131  60.5735493
  45.8806038  67.2003508  59.7465944  46.1025763  66.8727255  58.8750362
  45.8760929  68.1527042  59.6504974  17.1209383   3.5331779   1.6765589
  17.4835825   2.6818567   1.9214672  17.8582096   4.1387373   1.7537207
   0.0741148  26.9830233  18.2769388  -0.3096414  27.2281176  17.4349779
   0.9517979  26.6699797  18.0580610  20.2930641   7.7386480   0.7343859
  19.3629265   7.8753382   0.9143585  20.3889847   7.9398113  -0.1965099
  71.2260230  12.9048641  55.3401041  71.9679673  13.5096080  55.3330135
  70.6980641  13.1646545  54.5851183  77.3722139  42.5463015  26.2905973
  77.2413030  43.4940153  26.3210291  77.8421488  42.3433357  27.0994276
  30.5424905  39.7981834  60.1319551  30.0452995  39.7840238  60.9497786
  31.0608888  40.6013775  60.1806879  62.2520211  39.5531374  18.9177889
  62.6292297  38.7218433  19.2057127  61.7346445  39.8530298  19.6651930
  57.6303966  20.4912765  33.1913280  57.9849608  20.2240093  32.3433375
  56.9767721  21.1573703  32.9784560  37.2467251   5.5891044  50.6962395
  36.3743760   5.8664043  50.4163313  37.6705654   6.3946445  50.9923887
  15.9311771  55.7511431  14.9455542  16.8208933  56.0846239  14.8296732
  15.3688478  56.5100676  14.7904676  58.4829290  73.2303904  17.9394812
  59.1019948  72.6089190  17.5563807  57.6324137  72.9701041  17.5857824
  35.9227943  12.6343733   1.6714043  35.3268528  13.2259422   2.1308989
  36.6168832  12.4536711   2.3052973  10.1567006  36.4676481  26.8170637
  10.0406003  35.8847481  27.5673765   9.3100643  36.4549690  26.3706583
  61.3547404  65.5109237  32.3183340  61.2667210  66.2044476  31.6644949
  62.2935970  65.4713176  32.5005716  75.7196131   2.3364883  32.9091066
  75.9267655   2.8427464  32.1235937  74.7862592   2.1401483  32.8282827
  76.3537963  59.8428057   5.3967422  77.2918065  59.8952244   5.5801147
  76.3029321  59.4980310   4.5052380   6.7437863  40.4449039  31.1195082
   6.6704035  41.3460642  30.8052534   7.4902296  40.4601723  31.7185205
  17.0991850  49.8073202  12.9430861  17.5670385  50.3307157  13.5937780
  16.7082262  50.4519564  12.3533243  62.3427919  17.7876240  18.9349455
  63.0225149  18.3533722  19.3011946  62.7806202  17.3143869  18.2274241
  68.6329508  54.8638725  63.5101652  67.7981186  55.2862406  63.7123632
  68.3955336  54.1108799  62.9689884  34.4985843  63.6451769  55.7921124
  33.8765121  63.3097458  56.4376688  33.9860010  64.2525291  55.2586222
  53.4544523  63.9350794  27.0240206  52.7561386  64.5724963  27.1733088
  53.1867845  63.1647729  27.5252337  18.9907121  33.2490974  21.5394396
  19.4038915  33.8764101  20.9461493  18.1606388  33.6595541  21.7817778
  42.5988817  62.4573612  55.2677584  42.3379135  62.0787191  54.4282627
  43.0511999  61.7459488  55.7211161  16.5312814  37.4756771  16.1728376
  16.4186430  37.7306086  17.0885653  16.6089010  36.5219503  16.1975378
  16.2382030  19.8765093   5.6932825  16.4537286  20.5091387   6.3785309
  16.1762380  19.0385681   6.1518044  50.0126409  24.9421745   5.2486652
  50.7896900  24.6743160   5.7392591  49.3799400  25.1944071   5.9212011
  45.1448488  18.0345779  17.1759600  45.8930683  17.8631836  17.7478308
  45.0852728  17.2575718  16.6201395  63.2167006  50.7974672  52.2108507
  62.8963423  50.6123352  53.0936432  63.8840199  51.4724064  52.3348570
  76.9313851  48.7081915  41.8942350  77.4656239  48.1235891  42.4318785
  77.4065748  49.5390993  41.8991179  23.8478279  46.7798615  61.2494278
  24.0341210  47.6494932  61.6033554  22.9870367  46.5565157  61.6035318
  74.4721434  57.3710585  54.9223518  75.1056460  58.0852795  54.9915934
  74.7690675  56.8596649  54.1696596  19.6333432  34.6759558  56.8739653
  19.5151961  34.1903973  56.0575628  20.2487636  34.1462183  57.3807859
   0.4304313  17.9121595  25.2107424   0.4056954  18.3129745  26.0796255
   0.2233910  18.6284977  24.6105474  58.5832182  11.7506081   1.6414827
  58.4022668  10.8876425   2.0140070  57.7207029  12.1527868   1.5387625
  27.3736000  71.4263344  62.4670410  26.7972064  71.4225435  63.2312346
  27.7323771  72.3134041  62.4420452  57.2468615  30.2559423  55.7478905
  56.6692495  30.7196307  56.3541842  58.1271839  30.4096627  56.0908699
  57.2564843  31.8903452  21.0780519  57.1791956  31.2444168  21.7802233
  57.7274320  31.4322144  20.3819555  27.9072380   9.6773010   5.6111568
  27.8225803   9.9825674   4.7078985  28.6687946  10.1463467   5.9521193
  45.0533314   7.6134879  45.7463169  45.8996232   7.1857364  45.6157494
  45.0881071   7.9442890  46.6438675   9.6392894  23.2535559  14.2779678
   9.8357248  24.1892343  14.3242640   8.6945629  23.2142359  14.1290421
   9.3396020  17.4991280  13.4168571   8.4576869  17.7579361  13.6842054
   9.3550014  16.5487772  13.5301203   6.7345583  44.7014809  57.2348976
   6.5944892  44.8277521  56.2964582   7.5320810  45.1948929  57.4265528
  74.3896666  30.3413635  12.4959702  73.9352956  29.7753006  11.8719906
  74.0138140  30.1113754  13.3457178  37.0322967  48.3166075  57.4040318
  37.0151639  48.1870222  56.4557981  37.1256638  49.2627811  57.5148153
  19.4975805  23.2186609  38.8261599  20.1965093  23.2167726  39.4801706
  19.9431133  23.0357700  37.9989428  15.9631760   5.1460178  49.1105652
  16.5039928   4.3563707  49.0964174  15.2345355   4.9269206  49.6913481
  60.0836714  56.6044532  18.9513487  59.7461922  56.0749756  18.2288546
  60.3309806  57.4348770  18.5445684  29.7891283  43.8264471  12.6557535
  30.3282976  44.4839769  12.2162241  30.3783893  43.4188753  13.2904858
  14.1069030  25.7501322  11.3537258  14.9113989  25.5249363  11.8209595
  13.5889339  24.9452978  11.3669819  44.0610790  69.4585371  57.5488424
  43.4532499  68.7385178  57.3804760  43.7153482  70.1888132  57.0356226
  16.7586327  61.8200159  41.8697262  17.3109567  62.3655081  42.4297333
  17.2781837  61.6877460  41.0767508  70.7305303  24.2230135  29.8583311
  69.9162176  24.5928865  29.5172686  71.3890627  24.4465071  29.2005915
  79.4411999  35.6535482  63.4284925  79.0701463  36.0719275  64.2053509
  79.0412794  36.1171293  62.6926994  39.4549322  59.3078709  58.5692835
  39.9693632  60.0754976  58.8189745  39.8794317  58.5780382  59.0202618
  51.6627438  27.1265323  58.3449793  51.1064346  26.5260703  58.8411665
  52.5531156  26.8107040  58.4989882  14.1296518  36.5744472  55.2038813
  13.9639759  36.4051962  54.2764473  13.6425364  35.8902025  55.6629658
   8.9336729  18.1475216   8.1565279   9.2663026  17.7010828   7.3778862
   8.8362193  17.4527412   8.8076920   2.3322313  54.2512703  61.7569637
   2.0010513  54.3512583  60.8644629   3.2845604  54.2518616  61.6605234
  13.6166000  68.6806494   7.7639908  13.7754249  68.2512670   6.9233698
  14.3501425  69.2871481   7.8655190  27.9446172  58.2067018  24.1802877
  27.3909807  57.8407103  24.8700518  28.8341856  57.9549795  24.4283575
  11.7320919  12.4620110  21.5127176  10.8683848  12.3356396  21.9054884
  12.0706796  13.2548433  21.9286531  57.7255686  64.7272514   3.7080235
  58.2256205  64.0974496   4.2271894  57.3892958  64.2169736   2.9713005
   6.5084243  17.4403578  13.6380476   6.3552928  16.7512661  12.9915661
   6.5123343  16.9832140  14.4790215  35.9112119  38.2264620  25.1181978
  36.0205126  37.2766596  25.0716871  34.9976301  38.3500916  25.3757185
  21.4345407  17.1416956  10.4612440  21.0765552  17.0316654  11.3421339
  21.0714864  16.4100939   9.9620575  16.1635971  36.1449295   3.7961573
  15.4262590  36.6381174   4.1557783  16.7086649  35.9408527   4.5560831
  34.3169713  66.9156170  62.0753479  33.9333081  67.7379465  62.3799944
  34.7878957  67.1525288  61.2763882   7.8689360  25.8976465   8.4954542
   7.0026684  25.5139023   8.3592648   7.8756499  26.6770893   7.9398865
  70.5352274  10.5391031  17.6718992  69.7584072  10.5938250  18.2284922
  70.6199029  11.4136797  17.2921938  79.2498031  17.7132708  11.5404028
  78.9503208  18.1298834  12.3484701  79.6896830  18.4136969  11.0585970
   4.7540776  73.0737637  10.9113211   5.5578486  73.1999014  11.4155716
   4.2281834  73.8508485  11.1005491   5.3482461  19.1705519   0.8537621
   6.0286903  18.5306889   0.6444544   4.6456885  18.6530262   1.2472195
  56.0931015  67.2341162  34.2073244  55.2498722  67.6851469  34.2492670
  56.7392635  67.9385191  34.1571707  23.6572123  65.0787354  57.9196930
  23.6925459  65.8180380  58.5266685  23.9996195  65.4278469  57.0968246
  44.9450591  45.5369383   9.2872709  45.0992408  44.6891790   8.8704199
  44.1133180  45.4292494   9.7486204   5.8467030  16.9354588  20.6437963
   6.4809274  17.6024300  20.9067530   5.9470343  16.8707376  19.6940798
  43.8955069  38.3094645  55.8247757  44.0920019  38.8720393  55.0756884
  43.0125284  38.5653710  56.0914087  32.5107860  16.9863230   5.4425091
  33.4591818  17.1063953   5.4911274  32.2772789  16.5828234   6.2785048
  11.2992906  40.9932714  10.4718012  10.8148884  41.0490662  11.2954945
  11.3254475  40.0574738  10.2722401  56.6655254  64.3272066  54.6232414
  56.8612242  64.2933989  53.6868668  56.6628551  63.4110737  54.9005938
  77.5010005  10.8231741  30.0280375  77.6797548  10.9609610  29.0978331
  78.1483451  11.3650804  30.4791636   2.7165293  24.3051439  33.7729830
   2.4052453  24.8654180  34.4839090   2.6449752  23.4159189  34.1199583
  72.3681262  55.9211832   8.5618538  71.7410830  56.2098127   9.2249817
  73.1985584  56.3143545   8.8302464  78.7113615  62.6009417  62.1260881
  79.2387938  63.1987953  61.5963554  79.2549175  62.4167061  62.8921413
  66.5001352   5.1257045  18.8802719  67.0743068   5.6313903  19.4554627
  66.4986022   4.2457063  19.2568767  63.5266915  19.7725588   6.4577717
  63.4930077  19.0931135   7.1311564  64.0787187  20.4571587   6.8356842
  11.0073542   6.7655998   5.2143520  11.4227509   6.3442188   4.4619459
  11.7270803   6.9325262   5.8229250  73.9796622  14.9390705  24.0676260
  74.6303780  15.3272922  23.4827495  74.1549952  13.9987953  24.0305567
  58.6160103  31.8386817  33.0982327  58.4421769  32.5688457  32.5042033
  57.8568188  31.2640429  33.0000091   4.9890837  53.8319206  59.8364878
   5.2424845  54.2911053  59.0357590   5.1892790  54.4491959  60.5401421
  20.2963876  18.4139210   6.7593521  19.5398855  18.0647427   7.2305340
  20.8178091  17.6422935   6.5381235   3.1253886  22.4050480  25.4825205
   2.6758074  23.2488733  25.5280108   2.7983403  22.0024734  24.6780294
  38.7820244  31.5070873  20.1902384  38.7032652  32.1716362  20.8746332
  37.9456472  31.5411144  19.7259707  57.5917101  57.5302076  65.0267792
  57.8357410  57.7430391  64.1260099  56.7249107  57.9205465  65.1386976
  10.0946116   6.4183622  -0.1195627  10.2620625   6.7277914   0.7706303
  10.8480262   5.8654409  -0.3266340   3.9292359  39.3574911   8.5243029
   4.3522095  38.7356811   7.9321236   3.6217665  38.8211161   9.2550510
  11.1015479  71.6325472  16.5111250  11.8905656  71.7782806  15.9891695
  10.5903212  72.4343227  16.4014238  45.6536217  68.1520413  12.4657005
  45.7406278  68.8333105  11.7989677  44.8380657  68.3640360  12.9197449
  24.8457002  27.8751427   6.7036146  25.3291321  27.8877836   7.5296730
  24.3369865  28.6859280   6.7113871  33.6791229   8.9536053  25.7807726
  33.2847547   8.5848528  24.9903769  34.6222257   8.8790089  25.6350702
  61.5229614  74.9748801  30.3069395  62.4416550  74.8119615  30.5206865
  61.4167865  74.6235131  29.4229120   8.2534837  13.5443026   0.8732790
   8.1332159  13.3780914  -0.0616795   7.4641490  13.1902653   1.2829632
  24.0072441  19.6584660  28.6106771  23.9526510  20.6137854  28.5858721
  24.8100853  19.4519335  28.1321138   3.0477357  15.0670582   3.7223476
   3.9935398  15.2082926   3.7640423   2.8049707  14.8071533   4.6110195
  53.0567217  20.2982903  57.0375156  52.5294733  19.8990858  56.3455057
  53.9322042  19.9318182  56.9131804  35.6764841  29.2573601   4.8047632
  35.2219152  28.5557180   4.3386120  36.3595009  28.8098103   5.3041786
  12.7799129  26.2967211  25.1767248  13.0167222  25.3694492  25.1945681
  13.2791280  26.6852814  25.8950800  45.3307342  26.9366556  12.6407808
  45.8277988  26.3789469  12.0423502  44.7781849  27.4691778  12.0686430
  57.4062236  15.4936511  57.1062660  57.3314746  14.5447547  57.0051146
  56.5055163  15.7930000  57.2301579  13.8842535  38.8832956  28.1563086
  13.5287428  38.5405117  28.9762777  14.6493053  39.3936497  28.4217543
   8.3499400  67.9195856  12.3155588   8.7518041  67.9855155  11.4493126
   9.0885703  67.8110527  12.9146236  29.7321367  23.3045107   2.9324812
  29.0355634  23.0780321   2.3162645  30.0392723  22.4619108   3.2670301
  50.4755867  28.6092192  21.9650930  50.6262028  29.0969473  22.7748293
  51.0082549  27.8194386  22.0585913  61.7676672  16.0481506  42.0762533
  61.5106151  16.6344076  42.7879042  62.3022458  15.3768116  42.5002283
  28.0664682  41.4338827  60.9750748  28.3310032  41.5865231  61.8822432
  28.5280943  42.1066427  60.4745436  26.0901165  37.6766687  13.2435125
  25.7528305  38.0834394  14.0416426  25.7384920  38.2141071  12.5337595
  50.4720879  60.9645367  38.5772967  49.5801973  60.6171083  38.5696983
  50.4085779  61.7764568  39.0802693  16.6806030   6.6440016   5.5770105
  16.1523056   6.1272579   4.9686426  17.5495338   6.2443357   5.5387634
  66.3581923  50.6423193  36.5564531  66.1337009  51.2059885  37.2968000
  66.7646888  51.2318045  35.9212393  57.5435925  63.4666777  49.0112972
  58.1406879  63.7329674  48.3121586  56.6745186  63.5063457  48.6120987
  61.1478265  71.7830013  -0.0838381  62.0136721  72.1034359  -0.3365475
  61.2334831  71.5687011   0.8451265  23.8394212   5.9196335   4.1559404
  24.3944025   6.3273960   3.4911388  24.3094253   6.0582739   4.9781984
  11.9407773  19.1492516   6.5813774  11.1273074  18.8476759   6.1769623
  12.5951886  18.5043865   6.3128227   0.4366552  10.8668160  54.4824266
   0.1395204   9.9720895  54.6479797   1.3615870  10.7736695  54.2542696
  49.0650368  20.4105973  54.2573643  49.1017246  19.4565189  54.1893959
  48.4105206  20.5774069  54.9356079  26.7773628  11.6978222  18.3651155
  26.9124508  11.1045986  19.1040796  26.9437456  11.1588531  17.5917810
  42.9283142  71.3702917  51.1325169  43.4052229  70.9729338  51.8611383
  42.9761028  72.3115349  51.2998915  21.8703651  17.2028070  16.0074896
  22.0067548  16.5225225  15.3480619  21.3975286  17.8941589  15.5441374
  39.3300581  50.8884817   3.2626719  38.6185503  50.3477198   3.6055511
  39.5880890  50.4566008   2.4483437  52.7110767  28.5159206  65.0020266
  51.8991089  28.3192086  64.5348549  53.3731318  28.5827327  64.3139505
  77.0335658  66.5260028  24.8150724  76.1049350  66.7206358  24.6886248
  77.4370940  67.3787163  24.9771875  32.4176454  11.1271625  14.2934460
  32.4325895  11.7306763  15.0362677  31.5742492  11.2886625  13.8705629
  46.7188628  67.7713441  51.2413496  47.2820385  67.0297478  51.4629358
  45.8370788  67.4802636  51.4736361  65.5254705  68.4270238  25.1229662
  66.2232097  69.0543460  25.3123278  64.8561366  68.9420317  24.6724218
  62.6211056   6.8071085  44.4535822  63.0877194   7.4667793  43.9404196
  61.6955730   6.9805008  44.2816633  66.8507365  44.0005255  62.4476147
  65.9807805  43.8441133  62.0802689  67.1080557  43.1576490  62.8212118
  72.7289772  47.2665548  64.2571735  72.6859426  48.2063198  64.4338560
  71.9324684  46.9118690  64.6521473  19.8412132  47.7048117  18.6603636
  20.7028722  47.4639803  19.0006250  19.3286514  47.9227739  19.4388289
  78.0548945  14.3178040  22.5560564  78.7713495  14.8563629  22.8920263
  78.4890977  13.5662895  22.1524138  13.7383795  69.1352177  49.3891525
  13.8271463  69.5159388  50.2628851  14.3144214  68.3708525  49.4013023
  16.4049697  55.7684088  57.3208141  16.4560974  56.3666964  58.0662441
  17.2842169  55.7812214  56.9426680  55.0810175  24.7678953  55.9707636
  54.2892159  25.2906424  56.0973352  55.7974526  25.3997475  56.0317320
  27.3603201  35.0703102  27.8287786  26.7784691  34.7189575  28.5027498
  26.7733288  35.4951626  27.2033304  69.6876097  51.1622143  45.5365229
  69.3403435  50.2882624  45.7149744  70.2957392  51.0342407  44.8084879
   1.3792586   8.3261114   0.2989000   1.4771867   8.1777006  -0.6416374
   2.1795988   8.7852913   0.5535311  29.8569043  71.8401484   4.6833122
  29.7103770  72.7558570   4.4461716  30.0103600  71.3980965   3.8482845
  10.9308409  24.9183517  16.4024347  11.1920380  24.9749809  15.4833025
  11.7511010  24.9955326  16.8897242  63.1703806  70.0663567  58.7667799
  62.3457241  70.4514122  58.4702969  63.8382816  70.4807425  58.2205057
  15.4901886  34.9282223  19.2876810  16.0812950  34.1805321  19.1994375
  14.6246433  34.5748049  19.0823549  42.9356766  36.1949730  58.0013990
  43.1692219  36.7998147  57.2972298  42.6059580  36.7583227  58.7015057
  56.7547043  48.6282097  15.4994005  57.0176204  48.6339842  14.5790380
  57.4016173  49.1817807  15.9367746   4.6924090  29.4048315  16.4134401
   4.5200181  29.7072273  15.5217737   3.8594007  29.5200258  16.8706697
   0.1844430  56.8869215  15.6930918  -0.5839920  56.3682371  15.9312243
   0.8888101  56.5354067  16.2376398  55.3265412   5.1748092  42.1937084
  54.3941410   5.3173835  42.3565912  55.6625898   6.0384090  41.9539213
  34.9830890  51.2311983  63.3719063  34.3770719  51.5239477  62.6912642
  35.8198214  51.6317940  63.1360435  13.1126356  41.7677980  41.3949675
  13.9742803  41.7987209  40.9792227  12.6960110  42.5923067  41.1442751
  45.6436682  64.2415285  39.4461489  45.9822893  64.9622917  38.9150476
  45.1769304  64.6709871  40.1630545  64.7945452  72.6984692  59.9450254
  65.2585936  71.8693399  60.0609350  63.9025068  72.4428844  59.7101307
  14.0264606  17.3185688  32.1392149  14.0509510  17.3013979  31.1824793
  13.1748438  16.9436556  32.3637671  20.3427505   2.3538261  20.2317900
  19.4781446   2.7638346  20.2559084  20.4015636   1.9701677  19.3568129
  58.2984193  11.3063247  47.6895714  58.1292732  11.6234405  48.5767365
  59.1633160  11.6538532  47.4718285  46.7118025  56.6639757  57.3517370
  46.6562033  57.5299835  56.9477892  45.8740854  56.5554571  57.8019428
  64.8676300   7.2686392  17.8043074  65.6218910   6.6796308  17.7846045
  65.0586700   7.8786808  18.5167593  32.9378938  47.5430876  16.9142050
  33.6375189  47.6181417  17.5631422  33.3492470  47.7970797  16.0880655
  17.9782343  24.4743544  18.7023920  18.1021785  24.2703491  17.7754301
  18.8350820  24.3169075  19.0989393  62.8608862  28.3984190   1.4580959
  62.2849306  28.6136681   0.7244915  62.9086575  27.4424273   1.4526028
  47.9842281  67.0468235  45.0220013  47.9894686  67.0409870  45.9791660
  48.6142302  67.7267456  44.7831774  51.0931206  60.2099991  59.7065878
  50.1812363  60.4845715  59.8030901  51.0419989  59.3564844  59.2763186
  79.6311076   9.0518672  59.1624928  79.2334779   8.5811527  58.4299946
  79.0936549   9.8376281  59.2622852  17.1829700  19.5613152  30.8575911
  16.6279268  19.4189363  30.0908560  16.6139602  20.0058466  31.4859575
  71.5919638  57.4687338  51.4938402  72.0458651  56.6497803  51.2950373
  70.6931067  57.2032785  51.6883135   8.3137354  50.7095242  49.5978832
   8.7665972  51.4399290  50.0193834   7.8111872  51.1149883  48.8912868
  12.0280902  15.6219871  60.1001644  11.8673198  14.8404701  60.6289530
  12.9622428  15.5842311  59.8948193   5.9641576  17.6556021  50.8116430
   5.9272623  16.7881065  50.4087538   5.5541014  18.2353931  50.1698298
   5.3590998  70.5417442  58.1303501   5.9338125  70.7967615  57.4086142
   5.4947504  69.5987272  58.2228184  30.7804203  18.3333736  50.4754538
  31.5401172  18.1373697  49.9271101  30.0762272  18.5149055  49.8530382
  32.7437639  61.1062437  32.4464602  32.2907066  60.4174238  31.9601435
  32.1640873  61.3003164  33.1830305   2.0673720   1.7540367  59.2605734
   2.9308907   1.7993982  59.6710682   1.4816205   2.1786554  59.8873329
  33.4384155  19.7574478   1.4449686  32.5577020  20.0111156   1.1688799
  33.9951276  19.9717813   0.6963963   1.7810559  42.4433809  14.0132803
   2.6709842  42.4526316  13.6608929   1.3228845  41.7861086  13.4895414
  48.6177635  67.0366764  61.5693283  47.9347372  67.0376682  60.8987331
  48.5350418  66.1829329  61.9941998  21.1999988  39.4343096   2.1047920
  21.4445734  40.2155930   1.6087955  21.4384269  39.6400743   3.0086988
  13.0995464  14.2147690  37.8845209  12.9817080  14.9491173  37.2819609
  12.2096157  13.9574533  38.1254381  28.9390628  20.0411041  46.3700628
  28.9019553  20.8295638  46.9115257  29.8238246  20.0428398  46.0047722
   3.3790993   2.1884638  38.7416834   2.5510001   2.3203307  38.2800669
   3.6457491   3.0674177  39.0110678  12.0960521  26.5769392  38.5153383
  12.8385925  27.1384245  38.2926172  11.7597985  26.2781626  37.6704115
  70.4747239   7.5979715  25.3091616  70.2711275   6.8891769  24.6989244
  71.4153960   7.5160414  25.4661745  65.8180904  59.9477911  51.5776777
  66.5144157  60.5959129  51.4714003  65.2859211  60.2840471  52.2987604
  23.0015611  48.5495001   7.7715439  22.6221895  47.9343611   8.3991665
  22.8108263  49.4131857   8.1374783  31.1770725  45.8997255   0.2646441
  31.9094276  46.0147959  -0.3408676  31.3237333  46.5563971   0.9454483
  61.9251966  70.8795357  48.3840752  61.0108805  70.9328032  48.1058264
  61.8796921  70.7028055  49.3237162  61.5501697  15.1857765  48.0485153
  61.8349607  14.3123062  47.7798605  61.4664085  15.1281936  49.0003014
  33.5537338  41.0050875  22.8728765  33.7347746  40.4056507  22.1489042
  32.6233196  41.2122160  22.7853865  69.4681358  53.5764414  19.9766726
  69.6973419  52.6544195  20.0931734  68.5359287  53.6202532  20.1895136
  77.0084468  43.5685736   3.9825434  77.9549351  43.6540895   4.0968937
  76.8992606  43.3254248   3.0632013  74.9229367   4.4813926  49.1091394
  75.4749329   4.5075805  48.3275700  74.1200908   4.9339778  48.8506174
  12.0615785   2.8591974  34.9273109  11.4903180   3.4338577  35.4368758
  11.7106025   2.9001672  34.0377212  67.1704033  29.5018106  16.3764757
  66.4025596  28.9387184  16.2786097  67.0424441  30.1958424  15.7298082
  35.8268690  30.7517487  16.1776823  35.0844669  31.3195377  16.3842863
  36.5751838  31.3461548  16.1234373  33.7795829  12.4751907  -0.0118690
  33.8043689  11.5418964  -0.2230030  34.4862795  12.5961405   0.6223101
  32.3831320  63.4260798  49.7378635  32.6156974  64.3249369  49.9706650
  32.7754450  63.2930088  48.8749504  47.5380182  26.8221241  14.2345375
  47.2620535  26.5606218  15.1130003  46.7369938  26.7876726  13.7116570
  38.5351177   3.6351449  52.3735571  38.8428183   3.1321151  51.6195631
  38.0624934   4.3746192  51.9914055  28.1679231  23.8132770  60.2680540
  27.9890735  23.1077773  60.8897591  28.6663765  24.4562824  60.7723522
  22.3449421  26.9312769  17.5029749  21.5829706  27.2620731  17.9785818
  22.6294088  26.1688477  18.0069727  36.6405487  58.4402853   1.7314381
  35.9845924  58.9402872   2.2171921  37.2580194  58.1427198   2.3995823
   1.2501406  21.4744287  27.4258513   1.9601774  21.6600138  26.8113226
   1.2298727  22.2359138  28.0054659  42.8261725  71.9961213   6.1387247
  42.9989211  71.2232326   6.6763443  41.8806044  71.9786571   5.9910053
  36.7905998   9.7561890   4.8638577  36.1135673   9.7224861   5.5396694
  36.3051843   9.8254400   4.0417809  28.3110857  21.6334825  12.5840372
  27.3985767  21.3522440  12.6508898  28.3512020  22.4404865  13.0972284
  35.6215167  57.5135088  62.5685215  35.5590749  57.7225542  61.6365194
  34.7220159  57.3178005  62.8308773  22.2673225  48.2514482  12.8396315
  21.4398527  48.5937696  12.5014919  22.0483398  47.9080301  13.7058586
  37.2345257   7.2071749  17.8214735  36.9719648   6.6701561  17.0738691
  37.3724031   8.0797487  17.4529261   9.1153836  33.9322239  30.6924719
   8.6729335  33.8828522  29.8451036   9.6523857  33.1406790  30.7287497
  24.0769243  59.5010763  31.7409414  23.7660980  59.4690424  32.6457018
  23.4626150  60.0858408  31.2972063  60.2704795  20.8340747  59.8956919
  59.4033153  20.7784088  60.2971363  60.5372150  19.9228294  59.7744131
  58.2345946  17.5097759  62.4788141  58.4069450  17.8470046  61.5997219
  57.6122530  18.1315334  62.8561020   5.8896565  10.1412016  38.3501143
   5.9417700  10.9237677  37.8013796   6.2303233  10.4212624  39.1996664
  16.4900112  20.4183441  22.2336382  17.0081949  21.0348898  21.7163366
  16.3571500  20.8613211  23.0716986  26.6112995   6.9604736   0.1127380
  26.8725919   6.1349731  -0.2953154  27.3051834   7.1449095   0.7457775
  26.7627811  50.1552778  33.3072943  26.0725355  50.4902178  33.8796610
  27.1945333  50.9395224  32.9685015  23.7829828  26.5603643   9.8086351
  24.5793438  26.9913536   9.4983381  23.6062288  26.9660812  10.6573862
  49.3159659   2.6260002  45.9204817  48.8797744   2.3178012  45.1261377
  49.9714048   3.2493503  45.6073284  47.4283791  62.4997950  56.9814491
  46.4942646  62.5244713  57.1889257  47.8641939  62.5576782  57.8317070
  18.3786654  68.5440254  55.3672075  18.5312045  68.0533409  54.5596266
  17.7589691  69.2295027  55.1175499  33.3356332  39.4349724  14.5498652
  32.5555515  39.7652822  14.9955076  33.2685566  39.7824245  13.6604780
  18.6595821  29.0289789  10.6020874  18.5776567  29.2025286  11.5398497
  19.0944957  28.1776958  10.5531496  44.7462527  17.1138008  41.9049597
  45.0373999  16.7061241  42.7205944  45.4238860  16.8863780  41.2683105
  43.8018560  14.9622208  12.7846998  43.7645340  14.8341566  11.8368429
  43.0807209  14.4335991  13.1263870  50.0183208  15.2216918  62.5871658
  49.1622718  15.0434883  62.9765987  49.8705609  15.1562507  61.6437054
  58.0857611  73.9703417  46.4089966  57.1618414  73.8059807  46.5976429
  58.1882143  74.9156523  46.5190887  77.2703853  16.5813833   4.1995186
  77.4430290  16.3629061   3.2837194  77.8515926  17.3193747   4.3833679
  14.2007017  57.9090219  14.6033901  14.8797655  58.5457712  14.3805689
  13.3776378  58.3687693  14.4377846  45.1710987  14.2163616   2.5567383
  44.8043203  13.6157995   1.9078726  45.4066801  13.6556393   3.2958788
  55.3072071  42.3820120   7.4704689  54.8876381  42.8207594   8.2105345
  54.5859909  41.9652468   6.9988865  19.1790008  35.0220829  13.5275263
  18.3132553  34.6554476  13.7072367  19.2960119  35.6982141  14.1948933
  18.7869835  37.7880102   2.7433533  19.1650247  37.1848494   3.3832878
  19.4823122  38.4234816   2.5732893  61.6397674  13.6518676  63.2838726
  61.6003855  14.5679958  63.5584354  62.5743397  13.4452922  63.2722092
   4.4813823  52.7050405  35.1200956   4.8762726  53.4911924  35.4972738
   3.5729122  52.7254110  35.4209227   9.0919876   6.0668760  62.7824110
   9.5920586   5.7244593  63.5233015   8.6485862   5.3007465  62.4181646
   2.5106525  29.7570187   7.7970213   2.3295974  30.4475695   7.1593756
   2.4165058  30.1857763   8.6476320  37.0124769   4.8089558   3.1050486
  36.0625934   4.7410065   3.0084032  37.1857500   5.7503134   3.1123919
  78.8499919  25.8635479  59.6959681  79.1189066  26.7246777  60.0159163
  77.9259887  25.7964283  59.9366850  20.5931997  19.2366701  21.7268652
  21.5015936  18.9891344  21.5542883  20.3632831  19.8221355  21.0053343
   9.8527407  29.3560940   1.2235159   8.9324522  29.5352369   1.4164061
  10.2680540  29.2844873   2.0829433  71.1839342  64.9433851  61.2436247
  71.5045881  64.7310638  62.1201706  71.8504953  65.5257988  60.8793163
  48.2082748  25.9665018   7.2373241  48.4925031  25.7141643   8.1158299
  47.7741241  26.8108135   7.3593372  14.0383863  50.9759813  15.5657381
  14.2075729  50.2285295  14.9922079  14.5150327  51.7008978  15.1613420
  22.8955762  74.1923140  14.4447512  23.8252608  74.0728663  14.2507214
  22.7511804  75.1342558  14.3545908   4.6838712  22.3105675   7.4069733
   5.4449391  21.8269640   7.0858282   3.9985609  21.6480499   7.4944395
  35.8226967  42.8123957  18.7275881  35.9542942  41.9104439  18.4353727
  35.5426597  43.2805449  17.9410452  50.7719524  56.5392481   2.4117178
  50.3641541  55.7116305   2.6666349  50.8619769  56.4789711   1.4606709
  18.4880209  19.0991550   4.4597477  19.2435407  19.2579943   5.0256008
  17.7303838  19.2919975   5.0120443  57.6442941   2.2103746  58.5408878
  58.0543025   3.0729444  58.4768534  58.3789785   1.5974433  58.5688829
  54.9051857  68.7793261  19.0208715  54.7383022  68.6673361  18.0850119
  55.1558399  69.6987062  19.1111273  12.0725283  70.2331734  42.9601812
  12.9347071  69.8308945  42.8550386  12.0061621  70.8511066  42.2321796
  11.3721633  26.2545353   5.0799412  10.9962725  26.0165268   4.2324204
  11.1689472  25.5122047   5.6490463  59.5251846  28.9769369   7.1462101
  59.6979332  28.5848623   6.2902540  58.7755203  29.5535284   6.9986481
  65.2667792   8.8834483  52.4327183  64.7577222   8.1829364  52.0248175
  66.0125478   8.4359844  52.8325129  48.4633112  42.1345234   8.6175215
  48.8327026  41.9674826   7.7504122  49.2239189  42.1828699   9.1966289
  30.4971354  13.2049663  55.5911207  29.7379942  13.7876422  55.6118536
  30.3764929  12.6825340  54.7981930  16.7804686  11.7105014  27.7371383
  17.2128550  11.8929107  28.5714054  16.4273993  12.5560768  27.4604368
  15.3873539  67.3698240  14.1027016  15.8017397  67.4081331  14.9647039
  16.0155916  66.8983179  13.5556883  46.6491222  54.3981558   9.4670862
  46.3595962  54.4760233  10.3761190  46.9140911  55.2850538   9.2233080
  19.8831446   6.0284622  50.7357216  19.7456302   6.1766155  51.6713381
  20.6493868   5.4563053  50.6939077  20.4895544  33.7530714   7.2931952
  19.8850345  33.4582048   6.6121382  20.0424099  34.4913059   7.7070898
  60.4111433  65.3664207  50.9892321  60.8437586  65.2422667  51.8340158
  59.6668863  64.7648764  51.0105753  21.4686791   1.3389261  22.8963399
  21.3758056   2.2186143  23.2620597  21.3381068   1.4557464  21.9553113
  71.8307383  73.6096643   6.6372675  70.8768781  73.5538982   6.6945213
  72.0165952  73.5782002   5.6988091  15.1952362  14.6983772   9.2536253
  14.8337459  14.3335777  10.0613827  15.8499479  14.0586000   8.9738602
  71.9196971  60.9830005  58.4190607  71.3887389  60.2231033  58.6575365
  71.8734963  61.5569503  59.1837025  28.6648655  26.7800194  10.1820892
  29.5352602  26.5657574  10.5178494  28.4952068  26.1150986   9.5147604
  74.6161492  12.8928287  13.1124806  74.1448911  12.6943977  13.9216614
  75.1483519  13.6589725  13.3269835  61.1512995  65.7272577  59.5493221
  62.0151806  66.1390972  59.5674038  60.5641603  66.4158773  59.2373848
  76.4507103  19.5464712   1.8277782  76.9682121  18.7416559   1.8541473
  75.5447292  19.2518145   1.9204897  30.4008197  36.3294989   8.1848091
  31.2131643  35.8528238   8.3554405  30.6113481  37.2413021   8.3861202
  37.4480200  52.0852661  62.5793982  37.1940207  52.0301628  61.6581631
  38.3458900  51.7541838  62.6005077   4.5445268  73.1277941   1.3591713
   3.7602822  72.5821589   1.3002152   4.2094724  74.0175985   1.4697069
  10.1858461  59.1786718  55.3292322   9.7677952  58.3651781  55.0469303
   9.8280728  59.8471212  54.7449350  27.2478866  12.0752197  31.9529051
  28.0448484  12.3311096  32.4172396  26.6263437  12.7792555  32.1379751
  45.8127022  26.4370686   9.2190212  46.3015508  27.1716267   8.8479609
  45.4454422  25.9855085   8.4591240  67.3428614  11.2979514  56.4029026
  67.6206477  10.4717357  56.7984295  66.6098483  11.0576732  55.8361673
  42.9445942   5.6799133  40.4693604  42.9806609   6.1857803  39.6575546
  42.1502312   5.9858425  40.9071112  21.8106508  36.6534382   1.7512506
  22.7449083  36.8599373   1.7236990  21.3862276  37.4892717   1.9448561
  27.8038311  30.3916937   7.5758022  28.4645271  29.9587255   8.1164116
  26.9907188  30.3007132   8.0725950  26.8807983  40.0579554   5.8445543
  26.0544491  40.4085594   5.5122036  26.6528177  39.6656757   6.6873926
  56.7381191  60.4778242  48.8618279  55.9403324  60.9731388  49.0473938
  57.2368526  60.5124521  49.6780968  73.3340724  69.2730282  10.5479568
  74.0762170  68.9659999  10.0272030  72.9703648  68.4783577  10.9384007
  68.7436858  24.0250307  13.4307951  68.0383697  24.6397501  13.2286066
  68.7811115  23.4448963  12.6703543  22.6011324  15.7159191  12.9779905
  22.0267963  15.2417952  13.5793013  23.2049370  15.0502401  12.6485628
  69.9800301  72.2836781  47.4585629  69.8578453  72.8698587  48.2053518
  70.5212975  71.5714645  47.7991724  44.4051504  58.8206959  62.0175838
  44.0877485  58.6988783  62.9123735  44.3710613  57.9460526  61.6302013
  53.0876398   8.9319998   4.0406031  53.3307790   8.0263477   3.8484854
  53.5890007   9.1532570   4.8254055  78.7492338   5.9125381  48.2157034
  78.4422651   6.8011719  48.3955187  79.6967044   6.0025125  48.1135363
  63.2622059  14.2802627  54.4532681  63.7006195  15.0254543  54.0425301
  62.8535922  13.8118083  53.7253761  16.0499811  33.9855152  22.0242399
  15.2453756  33.5065895  22.2228998  15.9677601  34.2187696  21.0995382
  39.2796826  68.4579897  57.7692699  39.1924787  69.4074726  57.6849079
  38.4063077  68.1188917  57.5731611  75.9247437  17.2326666  17.7137846
  76.3827530  17.5048452  18.5090059  75.0256076  17.5359350  17.8395456
  32.1378978  24.3010814  39.6265364  31.5723489  24.9559982  40.0357676
  31.6112305  23.9426143  38.9121437  74.0273698   6.2780292  37.4466348
  73.8383468   7.2132881  37.5227189  74.9533685   6.2013347  37.6765943
  11.6881530  28.9948470  50.4142523  12.5710694  29.1690452  50.0881386
  11.7986409  28.2694251  51.0288954  16.2332646  73.1727646  26.7433161
  17.1572415  72.9910778  26.9150442  16.2382571  73.9918135  26.2479681
  14.0096108  20.3321655  61.6699839  13.6135976  19.4626148  61.7272806
  14.0863482  20.4989726  60.7305622  46.8270206  14.4416433  12.8970474
  45.8737659  14.5037752  12.9576725  47.0065975  14.4241911  11.9570059
  54.2811497  19.1908080  44.4258833  54.1794308  18.4984786  45.0790071
  53.4234007  19.2512615  44.0053558  69.7227366   0.8290107  35.0350690
  70.6787761   0.8563287  34.9966049  69.5018704   1.2986572  35.8393598
  74.8916149  67.8547573  19.4418287  74.1753387  67.8162336  20.0756216
  74.4766569  67.6677656  18.5997653   5.5958590  59.6980572  50.0511026
   6.3713774  59.7648621  49.4940233   5.8413729  60.1496410  50.8585835
  70.5952072  67.4162102  43.4750366  71.3604259  67.9729795  43.3312416
  70.4671049  66.9650078  42.6406240  52.0631504  70.2487040  48.1379366
  51.1218309  70.3176022  48.2972956  52.2850943  69.3543386  48.3969498
  26.6393678   1.5242774  36.7519426  27.2572104   1.8832357  37.3888516
  27.1589248   1.4008148  35.9575605  36.8898868  16.2888390   1.4464468
  37.6992464  15.7955891   1.5801424  36.3189840  16.0110146   2.1627707
   0.1106581  60.1873207  58.4878254   0.7567152  60.8872652  58.3933735
   0.4166636  59.6786594  59.2387295  42.9949140  18.2171589  20.8243746
  42.4958896  18.8432508  21.3489813  42.7432251  18.4075743  19.9207014
  48.7405825  43.3416868  63.7807697  49.2881394  43.4804929  64.5535224
  48.1227708  44.0727455  63.7905407   7.2172683   0.4435147  11.1226416
   7.1912593   0.1631162  10.2078009   7.6600045   1.2918848  11.1006308
   3.5435218  16.2123084  49.0592670   3.8044548  16.7400551  48.3045292
   2.7546889  16.6415823  49.3904781  27.8791960  70.4440727  36.4847112
  26.9266065  70.5038725  36.4123774  28.0284937  69.9948179  37.3166418
  78.9504608  12.2293031  20.9831786  78.0714706  12.3684108  20.6306767
  79.5154653  12.7812707  20.4425001  68.2935956  19.4731975  30.2920127
  67.7226594  18.7262321  30.1122785  69.1784957  19.1088748  30.2707362
  70.9419534   9.9324477  50.8685780  70.8765683   9.0634829  51.2646294
  71.7851302  10.2703869  51.1703777  29.6159768  10.9281456  17.0824838
  30.0214386  11.5334165  16.4616144  28.7869883  10.6830740  16.6714501
  41.5881300   9.1463023  40.9447861  40.6327200   9.0966111  40.9138632
  41.7932415  10.0213051  40.6153440  29.3817616  13.4180140  18.4678626
  28.4524775  13.6011088  18.6062109  29.4174957  12.4770296  18.2960951
  13.6317460  21.2460374   6.4755959  12.9192035  20.6343769   6.6610188
  14.3288009  20.6990491   6.1134428   3.3322284  22.8504896  30.1426673
   2.5810158  23.1618762  29.6377420   3.5841849  23.5990071  30.6834722
  66.0981615  70.3191169  48.5043859  65.8292444  69.4246094  48.2951689
  65.5652912  70.8697801  47.9307556  62.1430375  73.7797532  36.9906998
  62.6156350  74.4232038  36.4626336  62.7231528  73.6056725  37.7319121
  18.3083248  13.6318338  44.8463392  17.4379957  14.0026605  44.7005701
  18.9118659  14.3249953  44.5789480  32.8597188  28.1502151  54.5088339
  32.1108317  27.6184344  54.2393732  33.2702565  28.4195447  53.6871624
  41.5011660  12.1095538  48.9346886  40.7530323  11.6051006  49.2541456
  41.7024985  12.7164996  49.6469498  21.8117809   2.2153373  32.7983904
  21.1609244   2.8448167  32.4879527  22.3616266   2.0427376  32.0341206
  53.6751773  64.5880358   3.2031107  53.1664735  63.7776666   3.1756493
  54.0464012  64.6676867   2.3244296  79.5357584  44.4962780   1.4296717
  78.7195276  44.1615777   1.8011183  79.5539616  45.4189365   1.6838354
  31.3528967  26.8165541  35.8781648  32.2261643  27.2001123  35.7974315
  31.0198808  27.1522069  36.7104340  66.8066402  73.0613473  57.6964474
  65.9926625  73.3996539  58.0695724  66.7319437  73.2382141  56.7586994
  35.6232452   6.8321723  30.0401616  36.3452721   7.3436981  29.6751237
  34.8895526   7.4458289  30.0769114  66.1034186  40.2079766  25.4159784
  66.6213437  39.4085615  25.5104303  65.5993779  40.2641194  26.2277794
  69.3507698   2.8608441  36.9420505  68.4162894   3.0677748  36.9546103
  69.5969394   2.8085566  37.8655744  14.0048885   0.5776192  34.0296197
  14.7806776   0.0169197  34.0287733  13.6314762   0.4685243  34.9042010
  51.5965167   3.9142337  44.3202448  52.2170416   3.1855908  44.3364429
  51.6656843   4.2680633  43.4335375  69.0186325   0.6733477  45.2501392
  69.1929844   1.5008023  45.6986427  68.0678562   0.5722144  45.2951622
  19.9253225  26.6500378  45.1558828  19.9625111  26.0806465  45.9244156
  20.4935980  26.2238169  44.5142984  34.6457171   0.9968338  47.3238325
  34.0301752   1.0228532  46.5912628  35.4157424   1.4686520  47.0065355
  12.3607242  26.2387037  44.5750761  13.2195950  26.4636540  44.9328041
  11.7370415  26.5917015  45.2096176  47.7010393  26.9527435  54.7762060
  48.6323452  27.0945120  54.9459219  47.6812649  26.2784243  54.0971375
  56.9791664  62.2873860  35.5188847  56.0976456  62.6142888  35.3391981
  57.2193910  62.6920240  36.3524246  41.3273318  21.4893602   2.2686857
  41.3221653  20.5992912   1.9165749  40.4254170  21.6402732   2.5515408
  20.3891151  74.4944779  62.6151705  20.9605376  75.1973260  62.3058033
  20.1334970  74.7643643  63.4972429   8.4034741  13.5983074  30.6418490
   9.0267003  13.0248857  30.1957464   8.1834126  14.2650652  29.9912810
  20.7613921  27.3353148  31.4856815  20.3967118  27.4436092  32.3640394
  21.4178610  26.6454268  31.5822816  21.1370482  21.8674444   4.1720528
  20.4459889  21.9350265   3.5131878  21.6297029  22.6837121   4.0870136
  72.9494039   3.6491713  57.0361233  73.8980177   3.5284391  56.9938469
  72.7908680   4.4673228  56.5652418  36.8240388  51.9125281  15.2337927
  35.9248526  51.6863917  14.9959749  37.3284526  51.1218308  15.0424952
  67.7036806  58.4652012  32.5878453  68.4442146  58.6230796  33.1734347
  66.9311841  58.6081653  33.1346941  51.5947533   0.4259904  22.6088929
  52.5340509   0.4345243  22.4248242  51.1890554   0.7338594  21.7984247
   3.3148548  38.0488992  40.1875305   2.6591030  38.0220962  39.4907498
   4.1516602  37.9534078  39.7327018  76.2745354  43.4688044  44.6606350
  75.9041095  42.6219988  44.9095011  76.5246919  43.8741207  45.4909182
  13.1151295  26.5272570  56.6539240  13.1230807  26.3750553  57.5989151
  13.3606923  25.6839585  56.2734318  16.6947865  31.2866068  49.2485952
  16.3452435  31.0185719  48.3987665  17.5806308  31.5944552  49.0569162
   7.0370430  23.2418942  61.1954737   7.5087023  23.5577869  61.9661760
   7.6299036  23.4150672  60.4642010  77.5434096   5.8597110  19.2392820
  78.3173783   5.8896087  18.6768717  76.8069966   5.8025359  18.6304659
   7.9070359  19.7976720  51.3640022   7.0955896  19.3017685  51.4729357
   7.7473927  20.3536844  50.6013823  50.0606290  27.6973438  55.8179855
  50.7648817  27.6470613  55.1716661  50.5120412  27.7553415  56.6600657
  11.8514264  39.5009661  40.3211069  12.3496807  40.2113438  40.7252550
  11.5455317  39.8653293  39.4905066  30.4125755  67.6686196  63.2777929
  29.7699229  67.0390200  62.9509354  30.5639903  67.4067413  64.1859388
  24.4833096  63.9890378  42.4783516  24.8545488  63.1965284  42.8660917
  25.2136000  64.3896930  42.0067739  26.6592630  66.3282942  37.2312093
  26.5430768  65.4564374  37.6088309  25.9739502  66.8586652  37.6377606
   0.2113891  51.1894411  57.4465286   0.8202744  51.8767518  57.7168882
  -0.5993008  51.3900870  57.9142409   1.9167916  63.7928538  40.0270128
   1.5589039  64.2936354  39.2939591   1.3426320  64.0028577  40.7635355
  65.2768810  18.5976862   0.3368467  64.6219809  19.1224431   0.7972473
  65.1391371  18.8006614  -0.5883890  12.3518610   2.0465073  10.1296592
  12.7847087   1.8913703  10.9691870  12.4913454   1.2387472   9.6353924
  23.2961130   6.5162325  37.9376316  22.6612210   7.1007425  37.5235176
  22.8450537   6.1839288  38.7137461  76.3739546  61.2931495  24.0210986
  76.7132815  60.6084054  23.4447193  76.6211470  61.0095744  24.9012756
  33.5622025  11.4195514  37.9035425  33.9951944  12.0115364  38.5186052
  33.0607557  10.8223307  38.4586191   3.8195181  13.8784224  14.2714733
   4.6335315  13.5263067  13.9114374   3.8421130  14.8091513  14.0490717
  49.5875168   8.3770108  36.7592072  49.2824411   7.5391346  37.1072340
  50.4719067   8.1963259  36.4407134   1.0203902  65.6037097   6.1439592
   1.7987744  65.0482791   6.1009955   1.3555996  66.4677130   6.3834655
  29.9448212  73.6610789  55.8639145  29.6994765  74.2452217  55.1464081
  29.8449619  72.7809671  55.5010605   8.8700669  55.1179330  21.6200757
   9.8021285  55.1844828  21.4125609   8.6246006  55.9982627  21.9046783
  18.3950579   5.4061055  58.0992889  18.2693279   5.1601672  59.0157700
  17.7641845   6.1106890  57.9516649  14.3374789  13.3214831  53.5985136
  13.5231972  12.8263652  53.6881495  14.8978615  12.9899335  54.3001413
   9.9438220   3.5069695  47.2211742   9.0394580   3.8184479  47.1845865
  10.0762153   3.0572978  46.3866091  66.8841222  14.2703772   4.4051680
  66.9330529  13.3690977   4.7238082  66.1541513  14.6563005   4.8893559
  62.3191650  18.4442566  23.2046217  61.6855104  18.9534222  23.7100500
  62.9485472  19.0920030  22.8875441  58.2375641  72.7547761  14.7420311
  57.4023526  72.4932196  15.1296413  58.3029630  72.2351344  13.9408278
  51.0608347  73.9076160   1.6090197  51.5976770  73.1269811   1.4724821
  51.6924055  74.6235846   1.6778893  42.3678398  13.5596311  34.8828816
  42.6935959  14.4562483  34.8041844  41.6621256  13.6168694  35.5270243
   8.9627641  49.1401863  35.5013132   9.1435152  50.0801563  35.4977965
   9.7942066  48.7354755  35.2540350  42.3573542  13.4330988  54.7520494
  42.6881266  14.0971696  54.1472101  42.5503445  13.7837040  55.6215715
  46.8043184  14.6091449  53.2478380  45.9450865  14.6914065  52.8340912
  47.2992563  15.3616118  52.9237032   6.3667004  67.1164959  62.0397091
   5.4689257  67.4400531  62.1141720   6.2978046  66.3467323  61.4749575
  68.4036716  57.0699995  25.2313018  67.9489334  57.6919334  24.6632838
  67.7019890  56.5940755  25.6755638   2.4319474   2.1898393  49.3504906
   2.0237480   2.6254714  48.6022758   2.8535020   1.4161375  48.9764500
  26.6251564  45.4360580  35.0423408  26.1051273  46.1515188  35.4082966
  27.4907041  45.8185053  34.8981380  32.5772037  71.2052225   2.6089853
  32.7588554  70.7151435   1.8070740  31.6577305  71.0198592   2.7998775
   7.7007215  59.9046998  28.1531119   7.8630297  59.5863693  29.0411186
   8.5393207  60.2716141  27.8731894  46.0226257  49.1543912  18.2082457
  45.8254321  50.0900327  18.1644148  46.8456180  49.1055976  18.6945910
  39.9972081  14.0364814  58.7540722  39.8284650  14.8933232  58.3621788
  39.2743373  13.9073920  59.3680954  32.8689432   9.9843711  53.8024473
  33.3986020   9.2153621  53.5919333  32.9418421  10.0725484  54.7527885
  45.8203046  67.7527641  33.0905557  46.2212817  66.8867080  33.0170894
  46.4663236  68.3487396  32.7114701  67.6036366  55.8732395  45.6133604
  68.4862443  55.5210464  45.7282400  67.1910890  55.7700532  46.4709091
  38.1907892  14.2515218  60.9179735  37.2962022  13.9233506  61.0088158
  38.0849600  15.1697791  60.6693077   2.8591260  56.8821716  48.5247087
   2.7723363  56.0694981  48.0264521   3.0314600  57.5517368  47.8627300
  67.0284465  30.9737086  63.2145023  66.8739680  30.6742334  62.3185778
  67.1948389  31.9123530  63.1279516  61.2716165  25.3292465  41.4061928
  61.4858464  24.5974088  40.8276176  61.2806467  26.0970187  40.8346367
  29.8978494  42.4248322   2.3762125  29.6593513  43.0236958   1.6686005
  29.3690859  41.6430275   2.2167677  42.9091740   6.7426324  44.1724205
  42.6042843   7.6199412  43.9409018  43.6987543   6.8928933  44.6922398
  14.1554923  38.8930158  24.5205301  14.3930800  39.5571266  25.1676363
  13.6585815  38.2423476  25.0164598   8.9808936  38.1754178  19.4634336
   8.8870080  37.5198106  18.7723440   9.0906139  39.0030117  18.9951605
  72.5113566   8.5262822   2.8303141  72.3228724   7.7721404   2.2717661
  73.3840306   8.3513068   3.1825298  42.4554682  37.3791432  60.4786968
  42.1450758  36.6098523  60.9562731  42.8894186  37.9144835  61.1430216
  64.6406499  25.2644491  30.7269382  65.1355520  25.3951812  31.5357709
  63.9282039  25.9017944  30.7764030  69.9760314  73.8107264  49.5291567
  70.8165737  74.2537003  49.4129992  69.6673794  74.1036806  50.3865623
  19.5471025  20.6467319  40.6076717  19.8558021  20.4642224  39.7201896
  18.7041974  21.0828853  40.4831123  37.8874071  27.3792254   5.2966827
  37.9937060  27.8349655   6.1316914  38.6122473  26.7545913   5.2707666
  63.6180003  68.7653803  47.4108982  63.0672653  69.5027809  47.6738882
  63.0969318  68.2982164  46.7578506  50.5852222   9.0957624  61.3536119
  51.0325480   8.3675653  60.9224939  49.8448229   9.2950153  60.7806063
  74.4446929  39.9580096   9.3138212  74.7188886  39.4570145  10.0819677
  75.2204116  40.4614918   9.0668386  34.4310188   2.2347420  59.5467949
  33.5588598   2.5967279  59.3901539  34.2767048   1.4690056  60.1000309
  73.0318556  14.5576012  38.0589938  73.4076754  15.0084150  37.3028469
  73.7671277  14.0797424  38.4427357   5.7713085  26.3416028  25.3095984
   6.3080168  26.3345051  24.5170546   5.6715739  27.2693634  25.5230212
  48.9641571   1.2346707  53.3467770  48.5339403   1.4044905  52.5087404
  49.3995047   0.3908191  53.2258558  31.6681600   1.9604464  59.1118670
  31.0364795   1.5542848  59.7053671  31.5550375   1.4921790  58.2847261
  13.7585795   4.9260390  47.0825863  14.2911136   4.1307208  47.0929956
  14.2863238   5.5737841  47.5496483  13.0057204  20.0816202  31.3223386
  13.0397749  20.9535408  31.7158151  12.2519803  19.6612799  31.7363691
  72.2639950  51.6739242  40.8901453  73.1843861  51.7677014  40.6445408
  71.8777438  51.1609666  40.1802731  28.8691998  14.6200025  49.6878052
  28.8128066  15.1546788  50.4797506  28.6807656  15.2289760  48.9737511
  15.5325830  22.6890707  51.1139679  15.7247806  21.8692327  51.5691137
  15.4525757  23.3380437  51.8130112  40.4225016  14.6860170  62.4898577
  41.2125111  14.4107330  62.0247364  39.7037315  14.4398963  61.9075918
  72.6290932   3.6958748  15.3298182  72.7215996   3.4265285  14.4159645
  72.6096728   4.6523100  15.2968210  20.1530385  16.7998421  41.3576031
  20.1909494  17.4541283  42.0552444  20.1978970  17.3094666  40.5485916
  44.1863968  11.3225509  61.6274571  44.7666873  11.1689569  60.8818680
  44.6740093  10.9929897  62.3823452  54.6376799  53.3089583  64.8065948
  54.8962599  54.0916913  65.2931118  54.3192266  53.6425989  63.9678431
  17.6192546  10.6029916  45.3762245  18.1892669  11.3716245  45.3990650
  16.9698071  10.8063471  44.7031021  14.8120277  62.6922720  56.2599039
  14.6323316  63.0727284  55.4001379  15.6622665  62.2642117  56.1594296
  63.8029194   6.3115716  29.3730927  64.1377735   5.4152572  29.3461919
  63.3420086   6.4201260  28.5412216  67.1037670  55.3162782  56.5076303
  68.0033882  55.3496843  56.8328953  66.7205437  56.1510401  56.7769718
  26.2660003   3.0668467  44.1391802  25.6500816   2.6598954  43.5298634
  25.7190394   3.6137611  44.7030544  47.4962457  72.1141862   6.3832754
  48.4388693  72.2336720   6.4991039  47.0992811  72.7496527   6.9789547
   5.7514626  11.8318856  49.4006634   6.2739259  11.9368958  48.6055326
   5.4731137  10.9161818  49.3851662  17.0367353  72.0193066  18.0609155
  16.2207763  72.4563940  18.3046424  17.5953834  72.1070306  18.8332152
  10.5067265  10.5465484  58.2895708  10.9960485  11.2130344  57.8072929
   9.7039497  10.4250908  57.7825880  70.5343278  52.4733721   6.5232891
  69.8176225  51.9889210   6.9330114  70.3467734  53.3910273   6.7206854
  43.6754322  11.7352188  32.9088426  43.3020496  12.3210251  33.5673618
  43.2393074  10.8965647  33.0594635  76.7664154  58.9076417  40.9010315
  76.1393054  59.5221703  40.5198288  77.3440011  59.4543891  41.4336634
  22.3558784  28.7733769  39.1695690  22.4496484  27.9583931  39.6627641
  22.3059034  28.4954548  38.2549691  24.7448039   8.6734307  37.4713039
  24.2484522   7.8617072  37.5760508  25.0915194   8.6288685  36.5802169
  25.5210888  51.6008102   9.0986961  25.4978070  51.9233488   9.9996180
  24.8671778  52.1272765   8.6388439  68.0187837  30.2045536  42.4101830
  68.8552466  30.0366545  42.8442001  67.3927704  29.6476531  42.8730011
  56.8811066  62.3642872  12.5855202  56.5232189  61.7540477  11.9407267
  56.2079342  63.0386757  12.6764626  66.0488752  46.2326437   3.6709637
  66.6223899  46.3556105   2.9145330  66.6450110  46.0404306   4.3947786
  16.1342473  62.5990556   9.0675348  16.2638743  62.8698801   8.1586403
  16.0481258  61.6467451   9.0237326  22.5867073  38.4063080  23.1590837
  23.3267431  37.8549644  23.4132475  22.9378225  39.2967560  23.1663412
  73.8129767  69.1856294  53.7832975  74.3999346  68.4310805  53.7346506
  74.3981131  69.9422370  53.8206053   1.5449558   9.7542912  39.6623206
   2.3382373   9.2187929  39.6489835   1.8071000  10.5596483  40.1083183
  34.3125629  26.6252351  40.0493526  34.2654967  26.6101599  41.0052776
  33.5828233  27.1842098  39.7824097  75.4173079  13.5479760  39.4859266
  74.9080354  12.9362833  40.0176287  76.1140630  13.0126333  39.1062260
  15.6684394   2.7320344  46.4398479  16.1475582   2.5626142  45.6286955
  15.0846381   1.9794519  46.5348434  65.4638624   2.2880752  49.3301964
  65.6208754   1.4950714  48.8176298  64.5268726   2.4562651  49.2302418
  33.3426531  38.9002866   7.2111553  34.2731775  39.1120204   7.2854847
  33.3249040  38.0490778   6.7737097   5.6676471  34.2957401  52.6588297
   6.0489148  34.9723840  53.2183123   5.5648720  34.7194314  51.8066835
  43.1997919  13.1664729  42.7801132  43.8289309  13.7226737  43.2395220
  43.7407064  12.5472796  42.2899675  71.2723956   5.0038773  38.5411072
  71.7809764   5.7000089  38.9570141  71.9279060   4.3715197  38.2467222
  19.2764771   8.8918436  47.4013519  18.8925934   8.8535428  46.5253401
  19.6984982   9.7500920  47.4406004  27.5692844   9.8934108  52.7526331
  27.1866536  10.6095040  53.2596207  28.4778881   9.8480022  53.0503082
   8.1993143  62.4957209  56.9929981   8.9724080  61.9494813  57.1350574
   8.5078852  63.3900337  57.1386719  17.7550094  69.6557574  58.0801201
  18.0129687  68.9316230  57.5097561  18.1828277  70.4234691  57.7008820
  16.4947629  23.7005568  48.9968061  17.4040318  23.6539030  49.2922449
  15.9787691  23.4952855  49.7764492  37.7396727  15.2923000  36.5553546
  38.0596685  14.8254585  37.3272967  37.1937156  15.9943748  36.9092679
  19.5387232  28.0986404  37.1490335  19.7134840  27.2737813  37.6021314
  18.7379873  28.4301591  37.5554204  22.0976615  32.7555275  57.1614647
  22.8992152  32.2344112  57.1147442  21.5482235  32.2935772  57.7946758
  12.9462016  16.3025475  29.5650887  12.0456612  16.2378395  29.2471743
  13.2739151  17.1206009  29.1914272  58.3414268  36.2567377  53.6015654
  57.8618097  35.5200601  53.9803886  57.7836657  36.5634704  52.8866911
  68.0735477  62.4335842  44.1563177  68.8256415  62.6168947  44.7193336
  67.5253161  61.8435626  44.6735716  68.3268436  63.2959645  59.8566818
  68.0953630  63.6900537  60.6977177  68.6424764  62.4206178  60.0811291
  20.3159063  74.3959255  42.0666170  20.6794946  73.6643531  41.5677834
  19.8665826  74.9317057  41.4129496  10.1609898  24.4010139  50.7739210
  10.1581180  23.4563327  50.6196499   9.5926714  24.7569704  50.0908804
  33.3644700  25.0142908  44.4379759  34.0332556  25.5859256  44.0608931
  32.9293990  24.6226549  43.6806345  60.2451666  60.7442282  10.9021706
  60.4818471  61.1132525  10.0512690  61.0820158  60.6161879  11.3488478
   8.1772208   7.9664665  10.1937050   8.5509896   8.1169373   9.3254370
   7.3286509   7.5583178  10.0217289  19.5333211  73.7902126  27.2707200
  19.3389289  73.6593812  26.3426423  19.0741365  73.0771301  27.7144480
  58.9670302  70.1002877  38.4310651  59.6938308  70.4622080  37.9241061
  58.4341784  69.6343278  37.7867198  24.3369961  15.2385235  45.3849602
  24.7342038  14.5390284  45.9037685  23.4561443  14.9199283  45.1878977
   6.7185611  31.0301661  35.9882236   6.0295463  31.6192317  35.6808281
   7.2672784  31.5764618  36.5509868  56.2255001  14.8923790  41.2064266
  56.7074442  14.1484380  40.8451605  56.6947174  15.1139176  42.0107841
  45.8982869  67.2653793   8.2939142  46.8009956  67.3025988   8.6100811
  45.4482014  66.6988252   8.9205450  21.5085030  24.7047162  50.1490498
  21.7453671  25.5219293  50.5875587  20.9005809  24.2768288  50.7520247
  27.6510768  41.9797389  19.7518724  27.6014231  42.4827354  20.5647367
  28.5852982  41.8086253  19.6327776  31.3983297  20.3659558  45.2724934
  31.6755033  19.5196211  44.9216080  31.9005823  20.4660559  46.0811710
  68.2751198  48.7555807  46.2617779  68.0184360  47.8694861  46.0064650
  68.7473353  48.6399453  47.0863199  69.6639243  53.4944105  48.6797714
  68.7941495  53.8921785  48.6409855  70.0360987  53.6471558  47.8112173
  28.8592958  22.3965049  47.7087831  28.3986831  22.1349764  48.5060692
  29.2000341  23.2693529  47.9043961   9.0811293  54.1829794  42.1407843
   9.4045322  53.3327525  41.8428659   9.8259298  54.7742193  42.0315075
  73.6819728  48.7498830   1.7080158  74.2730077  48.9036881   2.4450726
  73.4189160  47.8340505   1.7990154  74.6100173   1.0836557  21.6302800
  74.8973701   0.5640323  22.3810482  74.4033209   1.9426554  21.9985557
  12.9472248  39.5213573  64.1876650  12.9103725  39.3074434  63.2554007
  13.1132953  40.4637568  64.2107773  65.3178453  20.2724195  53.9043427
  65.4171038  20.4150343  54.8456430  65.3595066  19.3217897  53.8004208
   6.4819461   0.7414927  51.0117292   7.2709668   0.6455992  51.5451002
   6.7893106   1.1442862  50.1996231  52.1216829  40.2463173  -0.0348240
  51.4111455  40.8872245  -0.0594336  51.6903575  39.4185639   0.1773399
  16.2026680  18.4172666  49.8442841  15.7988966  17.7489126  50.3979111
  15.6770778  19.2028809  49.9952698  46.0438490   4.3224603  24.5965791
  45.1647615   4.2038622  24.2368984  46.5258360   3.5459656  24.3120098
  59.2036963   7.5002271  59.8199797  59.1530275   6.5495390  59.9192619
  59.8357534   7.7769756  60.4834127  76.6194454   1.6254455   8.2184166
  77.1055451   2.4117380   7.9700512  76.5604940   1.1151868   7.4107069
   9.0408476  53.8315986  10.7897228   8.6392255  53.1773447  10.2179855
   8.3208330  54.4154070  11.0284275  29.7806191  26.6788459  43.4663868
  28.8568401  26.4851499  43.3071899  29.9506736  26.3317204  44.3420696
   6.2687500  68.7568139   7.1157736   5.6846483  68.0001281   7.0659203
   5.6905134  69.4929837   7.3155970  27.0463705   5.1223081  52.4030399
  26.5530467   5.6969613  52.9883909  27.8836226   5.5691665  52.2783041
  49.0155035   3.1050306   1.4210123  49.5841807   3.8706070   1.3389486
  48.2197857   3.3457809   0.9465593  10.6900144  45.0775766  44.5579910
  10.8337426  45.5721140  45.3648424  11.0251427  44.2019463  44.7508383
  41.4576264  69.5897602   0.2404160  40.8564110  69.6153687  -0.5039745
  41.4595528  70.4855822   0.5776590  36.4364386  19.5736206  49.2149878
  36.3201189  18.7697589  48.7085199  36.1309052  19.3492591  50.0939322
   3.6725220  14.3820000  30.6969213   3.6994970  14.2911029  31.6494131
   4.2402634  15.1300192  30.5115318  28.1205435  34.6402033  17.2631639
  27.8618181  34.2720251  16.4183325  28.9492233  34.2077042  17.4692339
  19.9644732  27.0851731  49.0357685  20.4083586  26.2464547  49.1612720
  19.8344982  27.4223638  49.9221325  25.8664274   0.0298174  41.3683081
  25.2113819   0.3374578  41.9948101  25.5581784   0.3526533  40.5215549
  38.7864494  13.9422476  50.3742790  38.8348937  13.0562127  50.7332039
  38.0650544  13.9070940  49.7461176  34.2459869  19.5060682  61.8514967
  34.4879270  20.2393055  61.2857580  34.9444079  19.4670773  62.5048828
   8.2131810  51.3032578  12.0879549   8.2816787  52.2419523  11.9136185
   9.0827365  50.9580086  11.8856997  21.8656325  23.0359888  52.9433775
  22.4782228  23.7560272  53.0934048  21.0114908  23.4607458  52.8642988
  60.8120997  72.8019951  11.8943924  60.2855904  73.5555552  11.6276211
  60.5543955  72.1043705  11.2917847  27.9881120  23.2355642  53.6515570
  28.0090356  24.1833615  53.5193634  27.1535540  23.0734468  54.0913963
  15.2099156  37.3437929  39.0880728  14.5536518  37.3585892  39.7847295
  14.7244871  37.0771766  38.3073640  74.8002106  27.1342516  64.1591930
  74.9255225  27.5741386  65.0000429  75.1051101  26.2394023  64.3092346
   2.9922807   5.4596710  54.9599361   2.2646889   5.2154720  55.5319595
   2.5754815   5.8852422  54.2106724  18.6216943  72.5267633  57.9108095
  19.4178884  71.9966262  57.8752899  18.7929933  73.1704243  58.5982609
  31.5883780  28.8569665  42.7477741  31.3365507  27.9453993  42.8956175
  31.6277027  29.2397523  43.6242247  45.0198181  67.8421872  62.3022604
  44.5488240  67.1130340  62.7056646  45.4142477  67.4663978  61.5152168
  57.2653110  27.7140026  34.3269533  57.4921687  27.1176396  33.6134237
  57.0668276  28.5432761  33.8920492   5.3346646  28.4301734  36.4992261
   5.1173532  28.3679295  37.4293518   5.7399362  29.2922235  36.4051175
  11.9906390  28.0613017  61.1760426  11.1503363  27.8855705  61.5994120
  11.7679775  28.5979366  60.4153347  22.6691167  62.5444930  57.0369959
  23.1292121  63.3697288  56.8835974  23.1739013  62.1134465  57.7266502
  34.3164539   4.8693216  48.4118176  33.9725471   4.4368473  49.1934347
  33.5376453   5.1422405  47.9268360  34.3716002   3.9739400  28.6810803
  34.2721796   4.5036152  29.4721484  33.9990115   4.5131055  27.9834342
  78.0217202  71.6921495  28.9471602  78.3673199  72.5126650  29.2986536
  78.4080513  71.6240462  28.0740380  59.0557041  72.3491754  32.8323317
  58.8018991  73.1460052  33.2980323  58.9646937  72.5736852  31.9062948
  50.0128222  35.5667281  51.2686062  49.3738699  35.4962802  50.5593777
  50.6469727  36.2121940  50.9564304  60.1622537   5.6103426   1.1413521
  59.2955151   5.2910286   1.3924164  60.0104478   6.5080458   0.8458656
  78.6899073   4.6553749  36.0213923  78.0617506   4.4782999  35.3211808
  79.5457697   4.5136759  35.6168509  17.4801421  24.8683572  32.3935533
  16.8259346  25.5400419  32.5861239  17.2927713  24.1659975  33.0163026
   5.0319082   7.1227580  51.2687969   4.5118114   6.3511932  51.4933395
   5.7897866   6.7727304  50.8004665  57.1808822  37.6904499  13.5700220
  57.0459946  36.9074992  13.0361456  57.4232133  37.3533981  14.4325203
  79.2089780  54.9635379  45.1815796  80.0470145  54.5342033  45.0095463
  78.6254843  54.2524617  45.4464149  64.9033125  61.3034468  53.6707544
  64.3661841  62.0694821  53.8730240  65.3803857  61.1247008  54.4811106
  73.1143458  33.8240482  25.8759779  72.6500733  34.1419740  26.6503233
  72.8725274  32.8999524  25.8143324   7.6932675  26.4176655  63.4196711
   8.2758075  27.1255088  63.1442881   6.8327814  26.6723704  63.0866241
  40.9808111  32.9884839  61.8563938  41.2031937  33.8403821  61.4808321
  40.9693098  33.1390691  62.8016043  56.0130890  33.4357588  10.0822014
  55.8102830  32.8983562  10.8479065  55.2519448  33.3351340   9.5105690
  47.8102446   2.3462901  11.0513687  48.0504847   2.4358881  10.1291502
  47.6941299   1.4046669  11.1782336  34.3855883  56.4372181   7.4531311
  35.1558013  56.8608330   7.0742458  34.5882352  55.5021463   7.4247068
   9.9512736  56.5774481  45.4215145  10.4039185  56.5876548  46.2648630
  10.2073018  55.7459896  45.0223160  67.4867566  67.1848284  33.9353347
  66.9806083  67.4147766  33.1561232  67.3981269  67.9442464  34.5112348
   2.7608387  71.5249239  52.3616123   3.0309574  71.3774001  53.2679796
   2.9966609  72.4359759  52.1866703  33.7875481  63.6811106  42.4206781
  33.8074430  63.5585671  43.3697939  33.0922301  64.3229811  42.2765732
  38.6311452  63.1938248   3.4584305  38.6560743  63.7847190   2.7057990
  38.8800924  63.7426024   4.2021370   2.9346370   5.3558403   5.5265326
   3.5675525   4.8408228   6.0269445   3.1938505   6.2650257   5.6762594
  56.8047722  71.2727465  61.8234015  56.2970205  71.6687762  62.5316238
  57.2818603  70.5564063  62.2422981  15.6182782  75.1211914  61.5913391
  14.7859637  74.9239724  62.0209789  16.1860912  74.3852726  61.8199110
   6.2668872  22.0314360  34.2000675   6.7163324  21.2134862  34.4126439
   6.6980529  22.6901388  34.7445297   8.4326875  22.4684238  48.2775545
   8.6385632  23.3754396  48.0513525   7.4870265  22.4672604  48.4257317
  62.1301242  60.2141552  51.6934586  61.3052149  60.6996851  51.6892910
  62.7940668  60.8681243  51.4749670   5.7786505  72.3832868  36.1405945
   5.6180517  71.7760139  36.8628550   5.0888436  73.0417233  36.2234020
  78.1161480  20.9329963  40.2336216  77.3090826  20.4730129  40.0027704
  78.8097432  20.2913904  40.0803328  51.0789044  70.5212496  29.9657816
  51.0913236  71.4748405  29.8836607  51.5034230  70.3476571  30.8059496
  40.6372698  29.8832910   4.5698160  40.2646931  29.9123012   3.6885780
  40.0246282  30.3871350   5.1055807  12.6194525  44.8435688  30.7520294
  12.2531533  45.0636721  29.8955178  13.5055530  45.2051210  30.7336521
  11.0734113  37.7312152   8.0251926  11.5698536  37.9003766   8.8259214
  11.1565407  36.7877489   7.8866524  29.4141579  19.7635686  57.9756880
  30.1954198  19.8514140  57.4296618  29.7396517  19.4133687  58.8049364
  36.1025143  11.7937469  52.6375008  36.1633110  10.8689404  52.3981905
  35.1694322  11.9971251  52.5725079  23.6555052  25.5773306  55.4473114
  24.2855668  25.9154272  56.0836601  22.8724098  25.3866768  55.9636927
  18.8610780   8.1418753  44.7691584  18.3813059   7.3614162  44.4917870
  18.2016873   8.8355643  44.7843838  57.7810373  68.8507866  62.7553034
  57.0738070  68.9652245  63.3900976  58.4634926  68.3849077  63.2384634
   2.8910606  61.2327461  40.4536247   3.4513037  61.4467197  39.7075820
   2.4029247  62.0380252  40.6253242  17.2706962   5.2816659  46.6725731
  17.2096992   4.3346062  46.5477180  16.8749976   5.4361427  47.5303555
   6.9991438  52.6231330  39.2837667   7.2606079  53.5142558  39.0518904
   6.3692348  52.3746436  38.6072326  64.9947961  58.6120318   5.2341360
  65.4745968  59.3493627   4.8568195  64.0870245  58.7546466   4.9660963
  31.3746262  16.0108435  63.9427423  30.6183457  15.5540514  63.5744905
  31.0142636  16.8237984  64.2969704  56.0040712  19.8348892  58.4583092
  55.8062792  19.2506075  57.7263784  55.9394932  20.7146454  58.0867004
   5.1054168   7.8510231  54.7117758   5.6060696   8.2351547  53.9920425
   4.9692363   6.9405419  54.4496489  37.4075961   3.2552069  38.3235669
  36.5916729   3.1261104  37.8400040  37.7587056   4.0789476  37.9853272
  32.1205759  22.7266192  48.4746456  31.4335251  23.3586192  48.6862278
  32.9216790  23.1182551  48.8226223  50.9314203  13.8561845  45.4102755
  50.6487179  14.5119250  46.0477018  50.1414871  13.3497095  45.2212906
  73.6943133  28.4219639  10.8626551  73.9328225  27.8064053  10.1695198
  73.5563214  27.8723131  11.6340631  14.1344535  22.6607728  28.9801288
  14.5327079  21.9278526  29.4496560  14.8723340  23.2222629  28.7424445
  30.4005718  24.4357991  37.6592255  30.3818703  23.9029026  36.8643022
  30.7999563  25.2612925  37.3848486   1.5104167  62.8902214  49.9033928
   1.2719528  63.3232765  50.7230425   1.8253224  63.5981147  49.3412924
  22.6322906  72.4575659  55.4668760  23.3985536  72.6866483  55.9927988
  21.8885438  72.7884172  55.9704733  42.8538914  27.9034238   6.8538612
  43.4958859  28.6002110   6.9901079  42.3814078  28.1643056   6.0633368
  41.7600631   3.3475357   6.9796795  41.8221664   3.1144529   7.9059881
  42.1339369   2.5968557   6.5182299  27.9297280  26.0445237  54.8753738
  27.5669169  25.4037690  55.4869556  27.2117901  26.6574073  54.7167158
  34.7651005   6.3749450  33.5814786  34.8812461   7.1856356  33.0859756
  34.9885440   5.6810093  32.9611874   4.2013654  25.2527285  31.5739894
   5.0614643  24.8800850  31.7678905   3.6311963  24.9100947  32.2622776
  12.2159564   7.9827094  63.8590097  12.7216005   8.5305434  64.4593716
  11.6725528   7.4398410  64.4301844  34.0603443  58.4477543  16.6720766
  33.9331390  57.7769993  16.0011572  33.2785888  58.9969324  16.6129679
  11.0253541  66.5574597   4.1662735  11.1777131  66.1597513   3.3090395
  10.8858172  65.8145927   4.7535652  25.4138184  11.8203664  49.0099239
  25.2693200  11.5741789  49.9235678  26.2359166  11.3909519  48.7733078
  31.7641656  71.6463773  30.8295345  31.5613429  71.3922941  31.7298341
  32.3408191  70.9528344  30.5090642   4.5822088  72.6636850  64.3713284
   4.7211711  73.3069648  65.0663900   3.7883274  72.9598841  63.9260721
  74.0564871  41.9631481  40.0843239  73.3324337  42.2235775  40.6536674
  74.0956593  41.0103559  40.1672935  69.2319520  67.3139022   9.9022383
  68.5768063  67.6308225   9.2804855  70.0128157  67.1609090   9.3701881
  72.5320478  72.7738460  34.6264601  72.5279625  72.1294670  33.9186525
  72.9410918  73.5492139  34.2421174  45.5874395  31.1682892  55.3960371
  45.3246403  31.7817831  54.7098923  46.5192080  31.0166883  55.2377415
  68.5439157   6.0969192  44.5428705  69.1519117   6.7082340  44.9586439
  68.8752222   5.2308559  44.7803593  13.3072495  21.0708117  50.2334452
  13.2872474  20.1173663  50.3157282  14.1535890  21.3252473  50.6011438
  69.5704937   3.8039756  45.6089306  69.9278879   3.8925728  46.4924717
  68.6744022   3.4952438  45.7428789  68.2536983  16.9170427  45.5474567
  69.0081215  17.4182463  45.8570910  68.6244202  16.2768269  44.9400711
  42.9568100  26.4881063  45.8946323  42.4641752  26.2975144  46.6928959
  43.8543272  26.2252283  46.0985565  43.0801487   6.5131044  48.6186218
  43.8983393   6.0175198  48.5840273  42.4779034   6.0203439  48.0611992
  12.4942677  65.5227416  21.7353177  12.7616422  65.3230326  20.8381772
  13.0340140  64.9492471  22.2793865  30.8289790  31.7695785  39.8296642
  30.4795218  31.6689658  40.7150984  30.4469204  32.5880909  39.5129609
  33.0866528  30.7471657  38.9004278  32.1398544  30.8848238  38.8712215
  33.4545207  31.6277051  38.9749694  19.0244913   5.3316408   5.6654877
  19.0433836   4.3766504   5.7276577  19.5589494   5.5322605   4.8971504
   1.9513194  43.1848435   2.3941034   1.6103665  42.2927185   2.4580854
   1.2304513  43.6904012   2.0186180  64.9187215  51.7457627   1.7551655
  65.7543786  51.7711733   1.2890524  65.0350364  52.3498677   2.4884886
  45.2893925  43.3541155  51.8160677  45.8985662  42.7641487  51.3721275
  45.5600595  43.3315229  52.7339220  33.7951247  63.5336279   7.3145527
  33.1241958  64.2031048   7.4482960  34.5987670  63.9291333   7.6521248
  64.3786955  52.7436543  42.0687962  64.4758415  51.9809246  42.6389217
  63.6607218  52.5123262  41.4795351  77.4584515  63.7618993   4.6535915
  77.7891476  62.9237865   4.9767584  76.5931638  63.8482832   5.0536436
  17.1647612   1.2149770  51.3441133  17.2982804   1.7016656  50.5307627
  16.6507069   1.8054111  51.8948984  16.4500332   8.5439402  21.0247606
  17.2370958   8.3004957  20.5374140  15.7274294   8.1975943  20.5011839
  15.5702400   7.3532206   2.6881165  15.4474067   8.2514530   2.9952282
  15.9064293   7.4486357   1.7969936  76.3834095  61.3859034  36.4718294
  77.2034550  61.1187792  36.8870449  75.8454370  60.5941868  36.4728308
  62.9771996  51.2233591  56.9759226  63.9336300  51.1981773  56.9470119
  62.7655268  52.1489620  57.0971155  75.1044559  35.5918670  25.7915068
  74.7997236  36.3252497  26.3258481  74.4747305  34.8919225  25.9639955
   7.9817328  63.8238811  45.3400564   7.8470358  64.3600416  46.1214828
   7.0994219  63.6598873  45.0071001  36.7877292  20.8841091  14.8961729
  37.6821232  20.7017666  15.1843447  36.4847517  20.0584036  14.5184845
  62.1565516  36.5119178  16.9431245  62.9386957  36.5533454  16.3928831
  62.4871667  36.6041000  17.8366733  74.4553359  26.7912109  24.0560675
  75.4029258  26.6885764  24.1442466  74.1671260  25.9893329  23.6199975
  71.9021216  27.8510815   3.3795637  72.2078040  27.5730663   2.5161404
  71.2645403  28.5413223   3.1971115  72.2423887  41.0830402  53.7178326
  72.2054291  41.6223526  54.5077753  71.4935684  41.3711929  53.1958437
  67.9743083   0.2138193  59.5802307  68.0351098   0.5341346  60.4801941
  67.6067622   0.9484537  59.0888500  75.0777133   0.7509858  37.2944093
  74.8658593   0.4726274  36.4034176  75.0446446   1.7070300  37.2608972
  12.5781187  29.9212980  63.2164049  12.5247320  29.1918159  62.5989580
  11.9334730  29.7109342  63.8919830  37.2669959  63.2185793  44.6476078
  37.2324967  63.1184864  43.6962843  36.3822722  63.4900808  44.8921156
  28.9767265  40.2223497  23.9877886  29.2250824  40.2654844  24.9112028
  29.7554159  40.5182177  23.5162634  69.9610853  67.6080179  58.1678581
  69.8225403  67.9915953  57.3018885  69.6974516  66.6931057  58.0695248
  37.7829170   5.2210003  -0.2642017  37.5972318   6.1600166  -0.2664429
  37.9891920   5.0198179   0.6486029  29.7612071  75.0899458  44.2657948
  30.4703760  74.4729567  44.0851450  28.9844227  74.6801424  43.8851357
   8.3011388  39.2807728   5.4362577   9.2355609  39.4656235   5.5306906
   8.2430744  38.7344795   4.6524042  74.0137339  26.6098928  45.7025385
  74.1383839  26.1901188  44.8513746  74.0240955  27.5476599  45.5109262
  52.8748322  71.4457464  20.5066156  52.1460485  70.9668255  20.9012532
  53.4529400  71.6503525  21.2415743  11.7715868  25.3631115  33.9956713
  11.3965830  25.9947419  34.6093893  12.1344980  24.6744204  34.5526552
  38.6594439  61.1716795  55.0261736  38.7461734  61.0791397  54.0774155
  39.1894269  61.9391584  55.2414083  33.5962581  26.1071735   4.2221493
  33.2177639  26.9206053   4.5557732  32.8457260  25.5253511   4.1020864
  27.8995728  72.7952957  50.8752632  27.3617005  72.5197124  51.6175413
  27.5651193  73.6623573  50.6459618  75.9463088  30.7804782  57.2216749
  75.2156321  30.1913364  57.4094296  75.5600516  31.4812572  56.6963625
  79.9258311  29.3215473  37.3255396  79.8452695  28.6239154  37.9759645
  79.1302998  29.8427875  37.4335957  65.6915855  55.8221102  60.2636862
  66.4294481  56.4081144  60.0952053  64.9396896  56.2643099  59.8695469
  66.7046451  35.5398518   5.6765455  66.5601825  35.9662300   4.8318190
  67.5160217  35.0456434   5.5597395  56.1362775  22.3342140  56.9908381
  55.8331187  23.1274326  56.5490913  57.0837457  22.4485023  57.0648289
  71.4696868   1.6563327  61.8450880  71.1579449   1.9863613  62.6877785
  70.6974204   1.2584836  61.4431524  30.5523967  15.4985720  24.2993063
  31.4621019  15.7073074  24.5116896  30.2562380  16.2351089  23.7644857
  30.1664305  66.0730839  49.8461676  30.9297919  66.0906982  49.2689323
  29.4473791  65.7853746  49.2836523  66.6124105  63.7565231  40.1942825
  66.8313265  64.0497351  41.0787821  67.4598169  63.6178970  39.7713017
  61.6818237  10.0444513   6.7970413  61.9693756   9.1575438   6.5803999
  61.4741420  10.0075489   7.7307076  68.3864768  11.4134128  36.4004898
  67.9313834  11.8866165  35.7039213  67.9403956  10.5677707  36.4465833
   6.6066774  16.1967474   3.9172691   7.1568617  15.4171854   3.9934820
   6.3402017  16.2129074   2.9980511  70.7288010  71.8337797  44.7380823
  70.0010951  71.6570901  44.1418833  70.3152306  72.2051881  45.5173391
  20.5548016   8.4995372  13.7464261  20.0736920   8.9396579  13.0456710
  19.8762433   8.0837543  14.2783213  50.4548311  26.3126808   1.1146635
  51.2373161  25.7989555   1.3147587  50.3287363  26.1999327   0.1725286
  40.8827765  11.9404800  43.7888002  41.5524538  12.5106246  43.4110403
  40.9333415  12.1030719  44.7307348  76.5952666  23.2271201  17.1664846
  77.5168593  23.0406864  16.9872069  76.1354049  22.4265392  16.9138443
  30.9955311  27.7538210  19.2015451  30.5060863  27.5705009  18.3996290
  30.5915451  27.1915823  19.8625368   5.0303587  50.6418562  41.8171787
   5.3891501  51.3699865  42.3244572   5.5435404  49.8822403  42.0926189
  73.1027985  67.9255009  57.9280901  73.3915901  67.4758673  58.7222338
  72.1534920  67.9990530  58.0262613  44.5689487   1.9513088  16.9253725
  45.4821825   1.8611485  16.6531462  44.1600990   2.4622208  16.2267775
  60.2931786  73.1371212   2.5510189  60.9026623  72.3990583   2.5463861
  60.6167555  73.7105942   3.2457560  48.5564661  29.7897243  53.5409737
  48.2983875  29.3064523  52.7560711  48.5865879  29.1271353  54.2311192
  66.6564894  57.9738665  57.3478317  66.7941666  58.3211899  58.2291031
  67.4492788  58.2151127  56.8687487  33.4885756   3.7516601  54.3439150
  32.7992026   3.9340980  53.7053919  34.2972152   4.0167529  53.9056635
   6.6427438  62.4844073   0.2348703   7.0172278  62.5516389   1.1132044
   6.3072745  63.3615731   0.0497431  54.7097588  56.0142040  19.1095579
  54.4069481  56.1785412  18.2165134  55.5657434  56.4402437  19.1544271
  71.6653045   1.7466123  46.7190981  72.0157321   2.3235376  46.0404301
  71.3757546   0.9672124  46.2448406  54.2288351  74.6472216  52.0529604
  55.0322676  74.3609285  51.6184950  53.8247252  73.8381386  52.3664999
  45.0057507  66.3050318  45.6390476  44.5550203  66.3458204  44.7955990
  45.9359884  66.3001633  45.4135180  34.3682193  37.1952539  11.0549253
  34.4970846  36.3082605  10.7189602  33.4413337  37.2294813  11.2914413
  73.9236482   0.7089479  53.4156847  74.3102486   0.5266054  54.2721415
  74.6427853   1.0759790  52.9015255   4.0967385   5.4870994  64.7347593
   3.2417266   5.5558307  65.1595688   4.6042220   6.2123020  65.0991583
  17.5942087  47.4334818  11.5908617  17.2935867  48.1701952  12.1229452
  16.8247747  47.1745687  11.0837502  55.0735791   2.6984126  33.4120584
  55.5043824   3.1728561  32.7010465  54.1931947   2.5194986  33.0816889
  29.9459266  16.6140896  17.5799841  29.1561746  16.4644152  17.0602507
  29.6310758  17.0416885  18.3763880   9.6138191  29.6997505  29.6677774
   8.7353253  29.3350941  29.7750467  10.1879477  28.9346939  29.6316809
  66.1804199  46.5809011  55.8612585  65.8958530  47.2214317  56.5131617
  67.1364737  46.6140747  55.8943224  39.2544174  18.3100897   3.3201450
  39.4193935  18.4586006   4.2512506  38.3002996  18.3072144   3.2434362
  59.1035414  63.3509970  15.7369626  59.5393658  62.8180313  15.0719559
  59.6935129  64.0921307  15.8743834  30.3070306  41.4760929  19.8476786
  30.2881813  40.5197817  19.8843092  30.9130096  41.6765600  19.1343493
  76.6525300  31.3074119  46.6548491  76.4184125  31.2600524  45.7279301
  77.5367577  31.6739566  46.6601276  38.5918013  72.4609755   2.3615784
  38.3382193  71.8258165   3.0312819  37.7859275  72.6284956   1.8729776
  39.7314214  32.1755272   0.8117432  39.7546529  31.2263685   0.9333605
  40.2376842  32.3271996   0.0136656  41.0024929  72.2053909  48.2050514
  41.6450882  72.5943422  48.7983608  40.4767799  72.9459047  47.9025698
  56.8971348  19.0012699   1.8342728  56.1112976  19.2834002   2.3023457
  56.5721607  18.6769873   0.9943527  51.6654825  66.9642115  51.9114542
  51.6392422  66.4790392  51.0867453  51.2451506  67.8004599  51.7108583
  37.3120809  57.4993801  41.0228443  36.8025327  56.8811274  40.4990625
  37.8312588  56.9471025  41.6073704  33.3596372  31.7945581  17.4066061
  32.7525282  31.0914618  17.6374716  34.0041637  31.7964703  18.1142801
  25.7078361  30.4673677   9.3590302  25.9402513  31.2939507   9.7820801
  24.7766685  30.5558783   9.1557306  29.8865270  15.5289846   6.4724106
  29.2869997  15.6921965   5.7442898  29.5784759  16.1069494   7.1704763
  54.1275722  48.2871061  10.2019447  53.2924244  48.7148195  10.0126738
  54.6491306  48.4191519   9.4102520   1.0912355  57.1822214  45.9989023
   0.6638178  56.4810133  45.5071115   0.4937204  57.3647833  46.7240763
  71.6995986  70.4309844   8.4885115  72.3494037  70.3446601   7.7909893
  72.1156962  70.0344108   9.2539019  59.9735498  68.3211613  35.5834842
  59.3972445  67.9251337  34.9298310  60.8459187  67.9947996  35.3628206
  48.7070608  26.3623577  19.2953104  49.6283102  26.6206795  19.2670530
  48.6476135  25.6209379  18.6928171  34.9151580  11.4439971  40.8790493
  34.1433780  11.3288600  41.4334297  35.1379172  12.3706539  40.9680700
  58.1144150  15.6613357  59.8605204  57.2371466  15.9091384  60.1524544
  57.9889949  15.3469474  58.9651680  64.7966003  64.4025087  43.7431145
  64.6769667  64.1191864  44.6495628  65.7455540  64.4108629  43.6180449
  71.6494782   8.0183227  59.9639606  72.3015817   7.4418552  60.3623056
  72.1523984   8.5725410  59.3671799  79.4775391  70.3749084   6.4895028
  79.0844822  69.6935511   5.9440744  78.8840866  71.1211967   6.4052218
  29.0785949   0.2865274  54.6552896  28.3141868   0.7529695  54.9934244
  29.0146319  -0.5880253  55.0390768   1.5727918   6.9865901  42.4078083
   0.8097903   6.8419368  41.8482256   1.3365380   7.7435119  42.9439783
  -0.0286754  48.3268701  11.2580627   0.8522288  48.0028843  11.0702414
  -0.4006227  48.5218345  10.3979010  75.4104233  74.6731043  47.7867699
  74.8966408  75.2321100  47.2038698  75.7427883  73.9772129  47.2197580
   7.4781815  13.0800159  51.4642954   6.7310969  12.6878555  51.0122967
   7.5177352  12.6217468  52.3037338  44.5435190  16.8357998  23.7935537
  44.1987323  17.7287394  23.7909121  44.9194812  16.7268043  24.6670527
  26.2014842  67.1946955  56.4592409  26.8216610  67.4360132  55.7712126
  25.4892087  66.7540407  55.9958649  27.2447443  10.1438528  16.2191481
  27.5587225   9.5939690  15.5013174  26.3979530   9.7663980  16.4572805
   4.2876164  15.4160030  52.5280094   4.8286502  15.0434120  53.2242060
   4.1701524  14.6981532  51.9058132   3.8684210  64.0194845  51.7028713
   4.1406855  64.0149069  52.6205254   4.2726645  64.8062277  51.3370228
  78.9103699  60.7965326  45.9235811  79.5474672  60.2502441  46.3839149
  79.4333887  61.4958096  45.5315399  41.0256624  73.5285282  27.0375180
  41.7438841  73.2370424  27.5991511  40.2893829  72.9666805  27.2792840
  64.5831633  43.9573908  52.3481607  64.4741058  44.0992928  51.4078426
  64.3366528  43.0422783  52.4824619  76.2123728  56.2319946  37.9885435
  75.6178331  55.9542656  37.2916794  76.6091156  55.4195595  38.3028316
   8.4139061  13.1484276   3.7726110   7.5279331  12.8054672   3.6557335
   8.9031768  12.8082472   3.0235285   8.8567385  53.1101608  57.2289801
   8.6187586  53.9845371  57.5373077   9.7334799  52.9616642  57.5832367
   0.3128370  29.3281799  10.0128168   0.7363733  28.5138565  10.2843422
  -0.5947272  29.2341619  10.3021568   3.1584677  26.0765696  38.9449573
   3.1757673  25.2099037  38.5389686   2.2584757  26.3795066  38.8246059
  29.7574806  11.0849625   0.7353777  30.2610731  11.8208652   1.0833401
  30.1097631  10.3184658   1.1877245   4.5584058  44.3580442   1.8690199
   3.6667609  44.1033083   2.1063131   5.0634718  44.2395216   2.6734394
   9.3119017   4.0211494  39.7391629   8.8282029   3.3769281  39.2222047
   9.9984090   4.3342216  39.1501570  73.4872897  12.9134567  20.2436256
  73.6658557  12.9650314  21.1826062  73.6719497  13.7936790  19.9160051
   1.2970185  39.6916204  15.7267660   2.0152855  40.2914244  15.5253691
   1.5320277  39.3123108  16.5736002  54.4422435  10.7498175  18.4753984
  53.5589504  10.6506830  18.1201548  54.3378257  11.3514906  19.2124933
  77.2503710  69.0666199  38.5735750  77.8509712  69.7970009  38.4250617
  77.5605488  68.3780718  37.9854250   0.1805719  61.2233782  52.6243877
   0.4434809  62.0648718  52.2515631   0.5184397  61.2420797  53.5197830
   2.4473524  27.1400839   5.4178804   3.3538556  26.9235712   5.6360716
   2.0303321  27.3051506   6.2635035  67.7041054  39.0903997  53.8176346
  67.2417450  39.9016190  53.6069679  67.8548098  39.1388369  54.7616529
  31.1499659  15.9164817  51.9092655  31.0201041  16.6135127  51.2662172
  30.2918975  15.8054073  52.3186731  51.7167664  65.9226799  27.3280072
  51.1942244  66.5089893  27.8752041  51.2402058  65.8806896  26.4989376
   1.1435286  18.9513500  52.4414206   0.8459966  19.5823772  53.0967903
   0.3540913  18.4671409  52.1994257  66.3217647   7.3173816  59.0841150
  66.7618878   6.5162570  58.7999868  66.1513551   7.1794708  60.0158739
  38.1002855  42.9110914   8.9227098  38.8886070  42.6632315   8.4396500
  38.2608413  42.6062304   9.8157496  32.0823288  28.8047129   4.5659203
  32.5140571  29.6542126   4.4754404  31.1575126  29.0180689   4.6901363
  69.1203451  64.4335699  33.7723088  70.0278282  64.7358751  33.7359619
  68.6510181  65.0117350  33.1709051   0.0469002  40.7762527  45.3596497
   0.8992228  40.6686735  45.7817888   0.1121697  41.6121054  44.8977852
  31.0098123  36.4452129   5.0589222  30.8008480  37.2581869   4.5988792
  30.4126501  36.4329821   5.8069080  16.4868101  57.3341799  49.6338511
  16.2733683  56.7749071  50.3807640  17.3533091  57.0393133  49.3537331
  12.0858025  67.8875929  28.2301706  11.3146448  68.1355864  27.7202124
  12.7977228  68.4061533  27.8553385  63.0753715   2.9461343  48.7116289
  62.4499924   2.9672582  49.4359827  62.6681168   3.4781368  48.0280018
  20.9199778  69.6911501   3.4100575  20.7812373  69.9542092   2.5002331
  20.0545804  69.7585939   3.8135046  31.1408901  32.9644304   7.2661871
  31.4439439  33.4249979   8.0486626  31.8796015  32.4109083   7.0128912
  39.8169374  40.1801067   4.8779720  39.7030973  39.7947317   4.0092033
  40.0551319  39.4415050   5.4382891  77.3070431  60.1574802  57.2980356
  77.2086668  59.2076111  57.3636007  78.2172394  60.3216028  57.5446939
  79.1661246   1.8782909  61.0623121  79.1750129   1.2129218  61.7503786
  78.7475522   2.6372774  61.4684725  69.3832143  19.1813667  48.3290100
  69.6409209  19.6801765  47.5537586  69.2170222  19.8462207  48.9972687
  24.5653248  26.8470770  29.9170679  25.0478649  26.0670715  29.6432489
  23.6504411  26.6430956  29.7231382   3.4174744  21.6754444  35.2764821
   2.9033343  20.9197910  35.5608821   4.1983144  21.2958629  34.8734403
  39.8188782  73.9557600  56.1491442  39.0081358  74.2861366  56.5361547
  40.3220129  73.6249065  56.8932009  38.3599758  72.7630901  60.4261732
  37.9120755  73.6045122  60.3388262  38.1199813  72.4535322  61.2995672
  77.6048279  60.8441401  26.7454696  77.2917271  60.7913399  27.6484728
  78.0372858  60.0040340  26.5924048  69.6062088  55.9847593  57.6093721
  69.8684978  55.9714985  58.5298395  70.4309893  56.0327005  57.1259737
   8.3613364   3.0482156  33.8521385   8.0137793   3.4859044  34.6292281
   7.7257983   2.3583181  33.6614466  45.4377317  40.6911188   6.4409250
  44.8919773  40.0038868   6.0587019  46.2020731  40.7371813   5.8665604
  64.6448231  70.8504534  62.8486490  65.3581095  70.8925915  62.2117186
  63.9199734  70.4480505  62.3702240   2.0265993  25.1232916   7.8043789
   2.7140077  25.2065664   8.4652609   1.6375955  25.9963184   7.7520842
  33.9524810  15.2691657  46.3784361  33.0829875  15.5708606  46.6414881
  33.8252322  14.9071224  45.5015326   1.1149439  61.2932158  55.3114796
   1.8689283  61.2117243  55.8955145   0.7681116  62.1675968  55.4886866
  63.5489845  15.4474646  27.0364565  63.8905716  15.1316410  27.8730005
  62.6233387  15.6222349  27.2063440  30.2743308   3.7286861  34.3183160
  29.4671122   4.0778453  33.9405465  30.0490348   3.5358960  35.2284288
  20.3965616  73.8547426   3.9135021  20.0053358  73.5057264   3.1126493
  21.2393570  74.2112261   3.6327023  14.3595855  72.8213333   7.6246828
  14.2518536  71.9150923   7.9133934  13.7287061  72.9222416   6.9119162
  64.5940495  57.7344513  53.1436586  65.0572777  58.4795761  52.7609825
  63.8608122  57.5771093  52.5488186  13.2417711  54.2906570  33.1926370
  12.6328787  54.3700695  32.4583530  13.9918264  54.8295641  32.9411793
  37.7037048  57.2552210   8.3494610  37.2174740  57.3026472   7.5263208
  38.1851482  58.0814749   8.3912033  36.2584114  41.6902834   2.3617357
  36.2501478  41.1853653   3.1748861  37.1871853  41.8086058   2.1627039
  16.4890131  66.2842560  63.1414175  17.3831305  65.9567451  63.2389736
  16.0548243  65.6343317  62.5888681  73.1789494  66.4188290  29.5721054
  74.0822840  66.3541412  29.8819995  73.1216288  67.2907734  29.1813946
  50.8832502  73.2595444  29.5196080  50.4685163  74.0731192  29.8065329
  51.8141890  73.4737587  29.4587874  32.0624399  63.8592005  24.4091797
  31.7181754  64.6947384  24.7247601  32.5264263  63.4918404  25.1615071
  60.3506804  28.2043600  47.9438019  59.7729015  27.9346275  48.6576986
  59.8931408  27.9304957  47.1488857  70.6495952  53.2377916  29.9715227
  70.3516197  53.0489164  30.8613295  71.4858913  52.7782351  29.8963732
  49.2426824  21.4454752  29.2753309  49.2498541  22.1967512  28.6822313
  49.1022682  20.6905180  28.7038797  44.5808983  66.0684109  51.5240574
  43.6556435  65.8999538  51.7022848  44.8678780  65.3119373  51.0125732
  57.1368456  61.6836786  55.4969978  57.7873707  61.7150402  54.7955275
  57.6129198  61.3327789  56.2496328   0.9045672  39.3212896  34.9496550
   1.2931895  39.8780352  35.6243700   1.6109991  39.1802698  34.3193430
  28.5373926  48.4232813  18.9734549  27.8037739  47.8563696  18.7354464
  28.7187957  48.9262587  18.1795210  12.3174223  52.1324158  42.8328991
  13.1731829  51.7837572  43.0825567  11.9394430  51.4580536  42.2684526
  30.4470539  54.7779566   9.2734331  30.6175804  55.3484446   8.5239738
  31.0846805  54.0695196   9.1851658   0.3905520  67.8755140  34.9539757
   1.3087305  67.6271248  34.8468041   0.0092873  67.7649307  34.0829778
  44.2161751  56.2230020  24.4868082  44.7754717  55.4955393  24.7592348
  44.0028906  56.0321146  23.5734076  25.6016254  52.2071177  11.8834442
  25.4116249  51.7221838  12.6865429  26.5367984  52.4038607  11.9380182
  46.0777521  50.9247499  10.0027842  46.6163110  50.8857542   9.2124266
  45.3080558  51.4312178   9.7433847  64.9391174  40.9439379  16.1289209
  65.6581115  41.5305096  15.8939451  65.1147079  40.7021433  17.0382875
  14.7264068   8.6449249  46.7017078  14.8308865   8.5636527  45.7537031
  14.6489827   9.5867069  46.8542719   9.7013220  73.6757088  47.7570820
   8.8898691  74.0906048  47.4644613   9.9468454  73.0952215  47.0366764
  65.6822491  53.0697298  37.7285671  64.7994614  52.7340984  37.8843570
  65.6395531  53.9883661  37.9941130  62.7509403  59.7445011  63.3182716
  61.8770313  59.7269726  63.7084150  63.3011198  59.2703104  63.9417124
  44.6030569  52.1818352   7.4620742  44.5322180  52.9598188   6.9089401
  44.0731478  52.3866272   8.2324553  35.0190703   4.9238021  59.0672970
  35.2823893   4.0166862  58.9122820  34.0683429   4.8828990  59.1706610
  13.5850922  22.7140052  22.8589511  13.5955684  21.8162162  22.5271630
  14.0391795  23.2228763  22.1873164   1.7052588  73.1621456  34.4639230
   2.1851572  72.4635601  34.9088025   0.9608683  73.3442163  35.0374722
  69.6068335  64.0313482  51.4274359  70.5417728  63.9533567  51.6172743
  69.4902611  64.9457645  51.1695719   6.5096537  16.9835765  57.6492023
   6.0411565  17.5062568  56.9983959   6.9318263  17.6291187  58.2160187
  20.0756392  70.8979511  64.9844074  19.9138483  70.6537533  64.0731287
  19.4196924  70.4107428  65.4830027  54.5991325  69.2284870  60.4454517
  55.1557922  69.1436529  59.6713924  54.9444962  69.9931288  60.9061909
  44.9278212  65.0043917  54.7574043  44.0637922  64.6400499  54.9495983
  44.7898245  65.5539131  53.9859009  46.6383171  64.4348627   8.7818903
  46.4813852  65.1894289   8.2142395  45.7758808  64.2181307   9.1360897
  36.5416598  60.3456116  21.4737272  36.9309330  60.1518154  20.6209993
  37.0171976  59.7852755  22.0870137  27.2141711   4.4097907  35.0353289
  26.5210311   4.1069562  35.6219149  27.4655406   5.2653606  35.3832245
  76.8236668   4.4094331  47.0996857  76.6882737   4.9164684  46.2991810
  77.4278195   4.9394424  47.6196051  10.3873094  69.7812372  22.2220510
   9.6012720  69.7551065  22.7676672  10.6807264  70.6911856  22.2681517
   1.1469111  57.6104736  57.4473476   0.7089266  58.3623409  57.0484829
   2.0538363  57.6751184  57.1481085  69.3238306  46.5964985   8.0979222
  69.6920490  45.7352114   8.2949805  70.0407839  47.2078180   8.2667303
  25.9055567  41.0163551  24.0159887  26.2511587  41.8579823  24.3134016
  26.6491985  40.4168230  24.0775770  21.3728761   1.5489322   3.3107800
  22.1512270   2.0899421   3.1776852  20.9941864   1.8712002   4.1286844
  48.4066486  68.5231161   0.9910684  49.1349173  69.1265821   1.1383220
  48.4624624  67.8992367   1.7148736  52.6608085  18.3723932  28.8634676
  52.1499157  19.0583521  28.4337229  53.5720730  18.6066395  28.6875147
  54.9957657  63.4606981  57.4862814  55.3935194  63.6744261  56.6422796
  54.6525669  62.5745058  57.3717642  29.8310630  18.5913474  41.8522072
  30.7306735  18.2684810  41.8001986  29.4031112  18.0080516  42.4789906
  19.8539702  20.1058967  31.3361263  20.0616567  19.2432697  30.9769821
  18.8977639  20.1252086  31.3751411  49.4923925  63.6396170  38.9493704
  48.9384556  64.0271282  38.2717109  48.9750576  63.7112474  39.7515297
  60.3502559  40.4248005   2.4250406  60.9665775  41.1150557   2.6698298
  60.9005260  39.7285181   2.0664019  48.0950324   1.3146360  61.1802101
  47.6641719   2.0141227  61.6714478  48.0629794   1.6068704  60.2692747
  59.4672632  63.2991600  60.6595469  58.8898516  63.8959885  61.1355925
  59.9502945  63.8637018  60.0560522  26.6531627   1.4964397  30.7214236
  26.6614978   2.2759492  31.2768745  27.5467841   1.4330013  30.3842950
  75.9555340  63.3487320  29.6543336  75.1987553  63.4481621  30.2319407
  75.9528065  62.4223804  29.4133043  77.8977235  61.7800902   7.2606796
  78.6233027  62.2840665   6.8922085  78.2859261  60.9368013   7.4939007
  78.3505440  69.2647219  44.6693277  78.4221172  68.4598732  44.1561699
  79.0487003  69.1964197  45.3205919   8.0353960   9.0858942   1.0256857
   8.1953558   8.2940536   0.5122322   7.5936064   9.6797472   0.4187292
  10.6350438  16.3562114  37.9442310  10.6459205  15.4131133  38.1075501
  10.7486359  16.7503841  38.8090754  38.3747101  29.2992502   7.2438234
  39.2008066  29.5189196   7.6745695  38.0831480  30.1220661   6.8511433
  35.7717418   1.9764548   2.1824879  36.3880443   2.6773077   2.3951096
  35.6216860   1.5286976   3.0150932  23.7719106  44.5379263  30.3111547
  24.4418621  44.3277937  30.9617228  24.2541170  44.6185881  29.4882292
   6.5737717  67.4225836  39.7594023   7.0377795  67.7522998  38.9898467
   7.0456593  66.6253816  40.0002813   4.9244706  69.4615536  16.6806018
   4.9013631  68.9461051  15.8743691   4.2138498  69.1047363  17.2134531
  54.4135244  20.6287001   2.0355362  53.8960607  21.3582955   2.3763460
  54.3306001  20.6998657   1.0845942  24.6375196  71.1311777  40.0069141
  25.5133693  71.1297207  40.3930664  24.5501964  71.9998868  39.6145463
  76.6419871  31.3177340  61.4724779  76.2435444  31.6692011  62.2686863
  77.5173720  31.0419982  61.7443180  73.9185341  73.3598689  39.3957210
  74.0350779  72.4258618  39.5697331  72.9874416  73.5181581  39.5514274
  28.5914922  15.3952599  10.9266484  28.6927986  16.1577654  10.3569531
  28.9092326  14.6603978  10.4020059  55.6028652  34.7977948  59.6215916
  56.4317703  34.5347571  59.2216444  55.0144434  34.0602303  59.4603729
  67.1399529  11.0327004   0.1160378  67.3948272  11.5345143   0.8902830
  66.1926349  11.1544894   0.0528473  22.4890630  74.3182537  65.2844048
  22.7986114  74.3121404  64.3786573  22.6478069  73.4278454  65.5977821
  21.6592090  41.3403528  58.6258888  21.7673032  40.4114049  58.4219313
  20.9123008  41.6168134  58.0949211  39.1788013  65.3241275   8.0548662
  38.5412200  65.4524659   8.7571854  39.9055012  64.8619269   8.4726089
  43.9422338  59.0762155  23.2420135  44.2643277  58.2929318  23.6880565
  44.5915954  59.7502177  23.4427071   8.8778083  54.9618857  33.5225773
   9.7223251  54.9977892  33.0734277   8.3563058  54.3496483  33.0035090
  59.8046787  61.0951470  13.6455387  60.0139530  60.9282683  12.7265257
  59.2134221  60.3830718  13.8896650  44.8640473  16.8787240   2.5513882
  44.7686251  15.9395193   2.7095646  44.2062755  17.0774220   1.8849892
  50.7559207  63.4573751  56.8141794  50.8221664  64.4104617  56.7552710
  49.8900743  63.3002906  57.1908283  43.5268641  23.1250215  15.5683768
  43.9692736  22.3007178  15.7709396  42.7042007  23.0813909  16.0557640
   4.1752446   4.2529476  43.6032772   3.3785397   4.4723088  44.0863657
   4.0693977   4.6873173  42.7569008   0.8210350  27.1527910  35.1712847
   0.5482049  28.0348206  35.4239011   1.7756625  27.1685815  35.2396131
  34.8010945   5.6078202  25.1236701  35.4876256   4.9893504  25.3734732
  35.1798964   6.4694160  25.2980113  20.7251120   6.7543525  39.4343591
  21.3513112   7.3861969  39.7877407  20.2862835   7.2233522  38.7246394
  24.5460796  34.1845775  59.1406298  24.5622849  33.5053086  58.4664154
  25.1975656  33.9010096  59.7820234  39.6470499  14.4097829  38.9766955
  39.7701168  14.6888113  39.8840141  40.4600430  14.6589005  38.5371327
  12.2338359  49.5497768  33.3524299  12.6490752  49.1991179  32.5644922
  12.2232048  48.8143866  33.9650631  27.7293134   8.2679898  50.3331184
  27.5943518   8.7646681  51.1401701  28.0320835   7.4092144  50.6281900
  43.7140091  60.1390891  32.2787952  42.9169448  60.6636195  32.2027206
  44.0424998  60.3286402  33.1576562  70.4344376  46.1483495  29.4360805
  71.3224443  46.5056460  29.4322252  69.9613674  46.6892617  30.0684166
  54.9741458  69.1202759  30.4168677  54.4312147  68.6767613  31.0685992
  55.0771351  68.4785282  29.7141695  58.5331597  65.8183770  61.9494390
  59.4742419  65.8517378  62.1211481  58.3888991  66.4829193  61.2757921
  70.0653203  53.8256447  34.5733261  70.5563648  54.5924537  34.2781782
  69.2469676  54.1832845  34.9177456  64.2580135  44.4110434   2.4534697
  63.3159716  44.5799761   2.4376005  64.6223195  45.1334964   2.9649157
  23.8396072  12.6173425   7.5164783  24.0854597  12.8895140   8.4006226
  24.6424747  12.2496402   7.1471149  39.4282150  14.9830341  41.9720793
  38.7020087  15.5575347  42.2145748  40.0613213  15.0842547  42.6828241
  63.0886163  64.3971770  46.4193344  63.9195986  63.9537220  46.5897655
  62.7638354  64.6389156  47.2866917   0.5402271  61.5832834  64.3193102
   0.2916472  61.8465619  65.2053833   1.4695255  61.8037408  64.2557716
  48.0053838  21.2940262   5.6172079  47.7850635  20.6118415   6.2514919
  48.3151443  20.8152400   4.8484129  16.2663333  60.0894218  25.2908111
  16.7559497  59.3025069  25.5301189  16.2097804  60.0551801  24.3358970
  27.3219506  59.8514729  38.0902219  26.6008346  59.8340933  37.4610019
  26.8954913  59.7905653  38.9450049  72.5792638  32.6759386  51.4362001
  73.2207510  31.9764495  51.5604639  71.7478970  32.2187591  51.3095188
  59.8105907  24.7462368  33.3153462  59.7235727  24.5053291  34.2376399
  60.3633499  25.5276608  33.3230329  31.6570830   5.2627081  30.9466648
  31.6664314   6.1312127  30.5443668  31.7323375   5.4328537  31.8856120
   9.6257991  13.8522208  10.9087670   9.9192160  12.9656076  11.1186647
   9.1560006  14.1405845  11.6913056  74.0857657  71.9863062  15.0188625
  74.3959220  71.1518972  15.3707099  73.5634859  71.7444255  14.2540419
  72.5957439  18.2509744   7.2988206  71.9050488  18.2961357   7.9599810
  72.5660286  19.1026068   6.8628502  67.7618702  46.6662567  63.3943605
  67.5165816  46.4991706  64.3043900  67.2421189  46.0422032  62.8877592
  49.5589924  18.0335879   9.6541917  50.4703093  17.9951549   9.9444699
  49.5463037  17.5336194   8.8380402  10.5369274  57.6878505  24.0580869
  11.3043611  57.1412997  24.2270875   9.8484461  57.3097508  24.6051407
  56.1667346  70.1584547  35.8918190  56.1896597  69.3933367  36.4665365
  55.8582311  70.8701401  36.4526772  19.8061503  22.1631251   6.9463200
  19.1351582  21.4804827   6.9472927  19.8808964  22.4241887   6.0284466
   4.6152131  62.3770051   7.8692859   4.1028015  61.5685218   7.8646553
   4.2114942  62.9203253   7.1924943  20.6137665  60.0632053  26.7866707
  21.2101825  59.3362646  26.9657707  21.1701186  60.7400875  26.4012694
  49.3392302  70.7303091  46.0099220  48.9566742  71.6077386  46.0100937
  48.6520730  70.1694946  45.6500101   8.9550416  47.9560869  28.2557201
   8.1048243  47.8346484  27.8330946   8.7522428  48.0145853  29.1893601
   4.5926645   2.6267645  28.9006281   3.9317924   3.2975948  28.7289715
   4.7418523   2.6736259  29.8449683  75.7447751  51.8191426  18.1971037
  75.2654536  51.2185972  18.7679160  76.0048016  51.2820118  17.4487007
  70.4508312  72.6422023  41.4832258  70.7401999  73.1822242  40.7477856
  71.2083228  72.0953103  41.6914320  43.6826213  65.7352762  23.0827427
  42.9938384  65.1396637  22.7876902  44.1899230  65.2220200  23.7115860
  31.3115788  23.6731863  27.9216671  32.1284223  23.4755874  28.3798742
  31.4537978  23.3544898  27.0303559  11.7500722  19.8075223  38.1354594
  12.5602818  19.6097159  38.6052108  11.7385352  19.1875589  37.4062514
  59.3372836  57.8441231  33.3808160  58.6725571  58.2804339  33.9137340
  59.2230971  58.2139866  32.5053763  67.2231670  45.7571499  49.1365671
  66.4880212  45.8869832  49.7356796  66.8135985  45.5748527  48.2908392
  10.4148006  31.8938303  46.9585419  10.3904343  32.8480601  47.0298386
   9.7942770  31.6900086  46.2588024  59.6916826  19.1475354  13.7581200
  60.5473740  19.4415461  13.4457344  59.4235738  18.4786605  13.1280750
  12.8955221  14.1631579  31.9668674  13.6692023  13.6208427  32.1203160
  12.7555192  14.1185439  31.0210133  24.8878217   6.5053064  42.9493570
  24.9994469   7.4298251  42.7279139  24.4687128   6.5140462  43.8098812
  74.9071916  64.7631400  16.8087018  74.3990286  64.6114617  17.6055682
  75.7981785  64.9233441  17.1196771  55.5426550  58.8997858  57.1342134
  56.3406469  59.1345077  57.6078653  55.5568525  59.4520991  56.3525581
  14.5129704  28.4674668  19.7785842  15.3300333  28.4060311  19.2837453
  14.7910297  28.5494661  20.6908298  45.4301097  65.2451830  14.1636109
  44.8061331  65.4067950  14.8712587  44.9617626  65.4996591  13.3685482
  38.3609605   2.9132423  23.0843329  37.6586366   2.2643530  23.0405545
  38.1482887   3.5431942  22.3957372  68.2882281  60.0140314  21.3339400
  69.1377528  60.4460721  21.2451744  67.8340073  60.2080648  20.5140209
  64.8122259  64.0481286  31.9461989  64.4767233  63.1661563  31.7855930
  64.9431916  64.0857189  32.8936529  74.6500901  25.7168174  32.0612526
  75.0314200  24.9843454  31.5772033  74.2128703  25.3084230  32.8084373
  28.0456877   4.3439475  21.4960313  28.0034065   4.5479700  22.4302793
  28.4996772   5.0919014  21.1078405  76.0326322  55.5268293  24.3296599
  75.4867013  56.3008969  24.4675326  76.4688094  55.6873219  23.4928679
  61.5715672  72.8519904  60.5627871  60.8801057  73.3017585  60.0771713
  61.6069664  73.3058215  61.4048147  38.9220500   9.7660553  31.5834188
  38.5236955   9.2416781  30.8887434  39.3634582  10.4791582  31.1220360
  49.7509177   0.6001519  -0.1240164  50.6943090   0.4510068  -0.1872831
  49.6691568   1.3994740   0.3962034  19.8052800  14.2475009  37.2564960
  20.5648661  13.9804804  37.7741480  20.0461602  15.1031959  36.9015408
  78.1559475  62.5399416  50.6104088  79.0450748  62.1925681  50.5395985
  77.8979834  62.7237730  49.7071409  45.8349391  54.0546529   3.0693606
  45.9688469  53.1146472   2.9481602  46.4638986  54.3006842   3.7476745
   3.4901659  64.0824347   6.2408161   3.7596647  64.8869650   5.7977194
   3.3411781  63.4568827   5.5317903  32.4628369  53.1281822  17.7311349
  32.2954671  54.0664761  17.6426852  33.4171455  53.0538790  17.7290988
  77.0605353   0.7077655  39.0863037  76.5959341   0.7725482  39.9206781
  76.4039457   0.3807939  38.4713125  56.2276812  67.9594611  37.3211408
  55.7515960  67.3533957  36.7534637  56.7657094  67.3950790  37.8763270
  26.6692257  14.2281485  17.7905476  26.7064404  13.2895565  17.9746401
  25.7732630  14.3776762  17.4886763  18.2684851  14.6170866  13.2399893
  18.3047879  14.3238175  14.1504323  18.3232331  13.8111925  12.7264035
  73.0163780   3.1727448  44.5857525  73.0693153   4.0525299  44.9591255
  73.7875799   3.1046379  44.0228653  33.3501601  10.8963799  34.8084283
  33.4046626  11.1255527  35.7361889  33.2004666  11.7308235  34.3639874
  42.7806377   5.4784894   5.4532850  41.8455935   5.3168893   5.5790198
  43.0851412   4.7328430   4.9360603  45.8847256  42.4634992   8.6409611
  45.7089169  41.8293230   7.9458756  46.8367775  42.5626262   8.6395449
  46.6902503   1.0760337  15.0564760  45.9615174   0.6967884  14.5651955
  47.2871533   1.4045244  14.3841404  67.6464732  67.3055850  16.9869947
  68.0447813  67.9401862  16.3912904  66.7309924  67.5779359  17.0498633
  29.2048518  73.4087722  40.7795286  29.7875516  74.1681762  40.7792759
  29.7097318  72.7196198  41.2112665  22.0527744   5.6630725  30.7954121
  21.8237114   6.5762281  30.6224728  22.5762749   5.6949741  31.5961385
  53.9399672   5.2030557  21.2259030  54.8896170   5.0853741  21.2025976
  53.7975788   5.8689451  21.8986201  76.8800743  60.7871955  29.3342257
  76.5292390  59.9434965  29.6193886  77.3473294  61.1231523  30.0991035
  51.3733196  37.8161335   1.1855154  52.1495914  37.2794867   1.0253929
  50.8635759  37.7468419   0.3783022  59.9920845  10.1153541  44.1885805
  60.7506084  10.6294990  44.4652176  59.3018436  10.3550792  44.8069048
   2.0715031  35.4103637  47.0372963   2.1075422  35.7578230  46.1461163
   2.3490876  34.4984436  46.9502306  51.6338317  71.5373253  43.8046217
  52.4296666  71.4670091  43.2774258  51.8290426  72.2236692  44.4426298
  29.2893140  74.2436352  47.1030903  29.0726869  73.3133153  47.1648073
  29.3589179  74.4115143  46.1633015  49.0106447  36.3850576   7.5355047
  49.5111592  37.0463509   8.0134243  48.8701303  36.7699228   6.6704220
   5.4880039  74.6519663  57.7239275   6.1912601  74.3515750  58.2996225
   4.8103754  73.9805677  57.8031397  73.0031013   3.4304330  10.4018462
  72.0755386   3.6574668  10.3361440  73.2894421   3.3278477   9.4942576
  44.1164626  70.9925311  45.6483126  45.0245788  70.8588262  45.3768682
  44.0113201  71.9436269  45.6726742  47.2813702  21.3012195   9.4109881
  47.7458811  21.8738699  10.0213456  47.1426582  21.8420625   8.6335051
  78.9534267  57.6652103  48.2036877  79.7292836  57.7098088  48.7625217
  78.2933338  58.1791310  48.6688709  69.4601408   6.7667156  18.5793203
  70.2997008   7.2153860  18.4790129  69.6428075   6.0496908  19.1865629
  76.0300453  68.4236114  49.2146540  76.7028888  68.6128556  49.8686409
  76.4692362  67.8640436  48.5741663  17.7178252  15.4704952  18.3075547
  17.3694587  15.0525880  19.0950990  18.5825658  15.7881165  18.5675049
   0.5018982  56.3993031  60.1510724   0.5502877  57.1404678  60.7548651
   0.3979811  56.7998988  59.2879635  18.1832933  14.7358584  41.4442301
  17.7565420  14.5725811  40.6031275  18.7734330  15.4702079  41.2748289
  72.8015073  50.8112954   7.2187895  72.1663792  51.4039527   6.8167871
  72.3225625  49.9909102   7.3363108   2.6365630  70.5989697  42.0666265
   1.8179505  70.1220273  41.9301224   3.3190529  69.9873214  41.7903566
  66.9141293  20.9671831  12.0474064  67.6281023  20.4766607  12.4546659
  66.8191814  20.5755162  11.1791825  67.5354310  65.0909548  43.5278797
  67.5286778  65.3327929  44.4540024  67.9987856  64.2537682  43.5023212
  36.0726953  11.8683946  23.8693285  36.2369084  12.1051788  24.7821259
  35.9431529  12.7058542  23.4242296   2.1888797  66.4301311  46.9997215
   2.7801602  66.3971894  46.2477016   2.5785272  65.8317332  47.6371574
  43.1350994   3.3290917  15.0395274  42.7487183   4.1971949  15.1550090
  42.3917198   2.7279043  15.0862885  72.6930234   2.6676458  32.2943783
  72.0598629   3.2864457  32.6582813  72.2235146   1.8340212  32.2650051
  42.4831581   7.6447546  58.2525921  42.6272106   8.1991273  59.0195036
  41.8877888   6.9610536  58.5597038  41.2477255  18.3543861  47.1025085
  40.7643032  18.9422464  47.6829863  41.0470629  17.4771786  47.4288082
  24.2888641  21.2385082  24.5145845  23.3535671  21.1081004  24.3582368
  24.7185850  20.6097388  23.9347363   4.6420777  24.7385287  56.2300777
   4.2598799  24.0587378  55.6750631   5.1980835  25.2459359  55.6387854
  27.6836173  67.5652592  58.6159658  26.9833677  67.1987264  58.0760241
  27.5371663  68.5107945  58.5886335  15.2238274   0.8513481  30.9098792
  14.9633956   0.0362723  31.3388991  14.5005691   1.4542802  31.0819340
  26.5285417  33.6623635   3.0451674  26.2545678  32.9713987   3.6482758
  27.4397461  33.4534000   2.8395647  51.8680334   2.1883039  50.4846382
  52.0119476   2.9253012  49.8910427  51.2883949   1.6003446  50.0003338
  61.9124390  62.5087862  38.8942790  61.7287399  62.9954713  39.6977854
  61.9744195  63.1811874  38.2158494  26.7920041  12.7967942  53.0993462
  26.6164517  13.5031021  53.7210751  26.0818577  12.8580713  52.4604654
  52.8138120  48.7808691   7.4099344  53.6637981  49.2203294   7.3849052
  52.1945675  49.4389104   7.0940966  26.1741512  72.4089162  45.0090218
  25.2571361  72.1354483  45.0319433  26.1605279  73.2555406  44.5626211
  60.8732255  63.0859135  19.8790354  59.9739368  62.7672146  19.9561399
  61.4057525  62.2917842  19.8342413  25.5993199  25.2336192  48.8606167
  25.6315041  25.5719638  47.9657841  24.9157000  24.5639706  48.8390303
  66.6996431   4.9531135  53.8450098  67.6031542   4.6401042  53.8010931
  66.1822462   4.1673347  54.0213156  69.3187411  55.4466735   3.7466139
  68.8514979  54.6144484   3.8195318  70.2439149  55.2076350   3.8026661
  30.4295318  58.7394326  31.6564894  29.9292772  57.9330413  31.7818379
  31.2376802  58.4559398  31.2289858   8.3870435  58.6586285  57.5638103
   8.1085366  59.3922234  58.1119967   8.9351743  59.0586710  56.8887186
  75.7870779   9.9660325  12.2128117  75.7179901  10.8376455  12.6023638
  76.0854471  10.1267445  11.3176143   0.0832366  13.5299921  45.4370308
   0.3259552  14.4372642  45.2521610   0.8853930  13.1314933  45.7746315
  11.9724195  61.4325779  34.5921683  12.5440209  61.5745907  35.3467107
  11.1257164  61.7875581  34.8629355  52.1235433  58.7469964  27.8419065
  52.9780223  58.9871376  27.4835348  51.5252196  58.8102846  27.0974374
  44.9793243  19.5391762  45.8326006  45.0984907  19.8841119  44.9476957
  45.0173712  20.3108859  46.3976192  65.4987212  74.9053004  24.3851972
  64.6982368  74.4739200  24.6841407  65.2022918  75.5246881  23.7183237
  34.0312386   8.8318199  32.5401807  33.9120317   9.6229017  33.0657387
  33.8787937   9.1174746  31.6394067  52.6689625   7.1423560  23.0248499
  51.8331909   6.9782352  22.5880671  52.5678539   8.0094939  23.4173822
   5.3521717   3.7512630  16.6836429   6.0797250   3.4001321  17.1970677
   5.5195475   3.4468150  15.7917190  13.5597214  23.5199112  57.9613876
  13.0885920  23.8722378  58.7164622  12.8881916  23.4160489  57.2872263
  49.5205450   3.8024661  29.7424722  50.3410244   4.1959473  29.4454575
  49.0306044   3.6339036  28.9376259  36.4734268   0.0915861  44.9347639
  36.8460035   0.5261918  44.1676044  36.7306232   0.6451279  45.6721067
   9.2619973  14.5980513  45.3581953  10.1610363  14.7254896  45.6610489
   9.2139673  13.6684966  45.1349211  61.5336227  17.1239734   4.2341915
  61.2784624  16.6271424   5.0115490  62.4568558  17.3331642   4.3760127
  59.1366013  64.6749668   7.6573628  59.5635803  65.5073636   7.4547905
  58.8484450  64.3406503   6.8079919  44.9812460  10.9565413  12.8769791
  44.4258881  10.2034855  12.6751971  44.3870306  11.5924275  13.2754600
  69.4398871   5.0805574   0.3149885  69.3724242   5.9752136  -0.0185829
  68.6059144   4.6737724   0.0799364  42.4162336  31.0586588   0.4818529
  42.5222988  31.8996070   0.0371212  41.9109221  31.2655436   1.2680429
  25.8127689  18.8124704  54.1829395  24.9184775  19.1457105  54.2566156
  26.1161900  19.1270387  53.3313417  32.3985600   8.7666494  46.1552906
  32.6008320   9.6204239  45.7726812  31.4585781   8.6565810  46.0119438
  29.6511602   5.5592573  40.2937651  28.9395618   6.0086304  40.7497501
  29.8967838   4.8433852  40.8797932  45.8734941   5.4485875  48.2034206
  45.9490967   4.8766631  47.4396038  46.6643906   5.9871942  48.1785631
  33.0303693   1.3798074  45.1864719  33.6919618   1.7297284  44.5897484
  32.3904037   0.9574792  44.6134853  17.0323028  40.6574266   7.7732939
  16.5758999  40.5554860   6.9381088  17.4334641  41.5250321   7.7226776
  70.3154659   8.4677869  42.2111940  69.9259996   9.1216063  41.6306210
  70.0587368   7.6273203  41.8318033  65.0556922  48.5115856  57.7530169
  64.3915010  48.2612378  58.3952063  65.7834292  48.8442177  58.2783603
  71.9546256  24.2253113  51.1703920  72.2667966  24.0452623  52.0571613
  71.0675362  24.5634294  51.2927914  40.6062412   7.4280530  53.9835739
  40.7294369   8.2900071  54.3811798  40.7092476   6.8125534  54.7093725
  10.8134834  61.1409967  43.2798433  10.5264561  61.9476204  42.8518200
  10.9236948  60.5158334  42.5634241  51.3639879   3.2064822  27.4717903
  51.7193317   3.4831032  26.6271329  50.6452751   2.6154768  27.2473049
  20.4450321   3.0479139  51.3116407  21.1331511   3.6373946  51.0030317
  20.7829189   2.1705317  51.1320162  53.1943750  31.0695171  19.5955539
  53.9789104  30.8017993  19.1169453  53.3774662  31.9672990  19.8724973
  14.5697010  18.4143329  55.6055069  15.1546729  18.8765347  56.2058496
  13.7024856  18.5021019  56.0010672  30.8173656  26.3854074  54.0047884
  31.3722539  25.6130290  54.1132641  29.9698687  26.1239386  54.3648052
  13.9403403  12.0934796  35.1813245  13.4310400  11.8620551  35.9580398
  14.5866323  12.7245677  35.4979730  33.6694741  17.1623695  55.8627319
  33.9573908  17.3954964  54.9801302  33.3016086  16.2835228  55.7703495
  13.5353529   8.7470692   6.1609238  13.2733083   8.0668467   6.7812961
  13.4734416   9.5621604   6.6589457  14.0834244  44.0831392  24.1018766
  13.2975681  44.5830868  23.8811678  14.7202964  44.3295382  23.4311193
  31.2578011  28.5394073  46.2605429  31.2437010  29.3169379  45.7024384
  30.3425479  28.4041333  46.5059948   7.9142767  12.7107859  59.9035215
   8.8177645  12.3948467  59.9146795   7.4946797  12.2624576  60.6378031
  10.7454646   3.4760088  32.7225852   9.8421121   3.3289933  33.0028963
  10.7641411   4.3919736  32.4452925  70.0034030  48.5556780   1.0168785
  70.6014664  48.3245956   0.3061384  69.4103082  49.2002164   0.6308216
  17.0817725  48.1545656  35.4602575  17.4222963  47.5735204  34.7800660
  17.0759647  49.0212720  35.0540328  54.3664455  24.3764305  11.3846695
  53.5610151  24.8070693  11.6711390  54.6021175  24.8250365  10.5726099
  19.7628689  22.6406312  44.7999716  20.0622201  22.0420003  45.4842710
  20.4806352  22.6589322  44.1669559  74.5526631  57.4529039   9.2787832
  74.4363816  58.1044077   8.5872263  75.2986653  56.9273721   8.9897675
  25.5845897  44.5860951  28.2459044  25.6568973  44.6305721  27.2924757
  26.4721553  44.3877237  28.5444212  51.9018853  65.1102321  19.3367326
  52.2511055  64.2733352  19.0303326  52.1428487  65.1458137  20.2624226
  63.6932659   3.1183118  14.7109091  63.3637238   3.9018658  14.2708218
  63.6953974   3.3484617  15.6400263  79.0649875  74.7227865  57.4911880
  78.2786592  75.2581422  57.3848152  78.9072331  74.2218416  58.2914352
  26.0045342  65.8294390   9.7968191  25.1594950  65.4237102   9.6031040
  26.5882400  65.0925945   9.9773211  78.4011461  32.1235871  20.7426310
  77.9037638  31.5070057  20.2053499  78.9612489  31.5697122  21.2864518
  39.3049812  25.8040380  59.4075298  40.1024771  26.2489319  59.6944141
  39.3881321  24.9158621  59.7546101  65.7985973  22.9683590  33.1848788
  65.8966160  22.5679946  34.0487838  66.4360714  22.5120187  32.6356888
  38.2750201  21.4054775  45.8062410  38.6320162  20.5176902  45.7813501
  38.3285236  21.6593957  46.7275953  26.2811470   3.5361549  32.5702715
  26.9016600   3.5636085  33.2985854  25.7227659   4.3023130  32.7023411
  75.2753051  61.8300246   2.7047962  75.7726558  61.0135244   2.6579136
  74.5307429  61.6908835   2.1195644  27.8265810   1.9518635  58.1520510
  27.5761557   1.1219160  57.7462101  28.5254598   1.7184480  58.7630463
  61.9764884  63.2922917  63.5644197  62.7655013  63.2508354  63.0240726
  61.9764020  62.4684541  64.0517855  17.2387330  75.4924323  43.2748270
  18.0331103  75.0759459  42.9405546  16.5515916  74.8395982  43.1411266
  13.2305638  53.7155478  46.8094349  12.9966061  53.7237756  47.7375650
  13.8039701  54.4741743  46.7002392  21.3619821  72.7676972  51.0594511
  20.9780471  73.0417633  50.2265596  22.2975652  72.9447870  50.9617090
  62.8793199  54.7360586   1.3724703  62.1835811  54.9043809   0.7369799
  62.9788192  53.7840437   1.3721365  19.8931539   4.0795773  38.7302208
  20.0651836   3.6190602  37.9089046  20.3710389   4.9047408  38.6467814
  10.1773993  56.9701170   4.2088932  10.7371442  57.4884866   4.7870010
   9.3981997  56.7847155   4.7330183  70.7994302  59.4505499   0.3797573
  70.4217418  59.5312189  -0.4960686  71.0222323  58.5231064   0.4600185
  12.2931635  11.1461878   3.1163642  11.4563453  10.8488381   2.7592215
  12.0548618  11.8075144   3.7660497  41.0317035  74.3564021  30.1353931
  40.5288656  74.4602754  30.9432292  40.6017085  73.6346074  29.6767569
  41.7202337  45.0253080   2.0100063  41.5568502  44.8989515   2.9446596
  40.9439869  45.4858379   1.6912836  11.7221372  71.9672446  23.5840034
  12.2930090  72.2610029  24.2939663  10.8378880  72.1743195  23.8864160
  74.0009499  22.1110749  60.3923988  74.4819927  21.3786244  60.0072432
  74.1672421  22.0390582  61.3322878  28.6437416   2.3460118  44.5396757
  28.6500549   2.3042855  45.4959440  27.7794147   2.6942617  44.3208313
  13.6621857  22.7735233  31.8552279  13.3548200  23.6344242  32.1391416
  13.6485744  22.8176618  30.8991432  40.2830859  47.2024952   0.4584688
  41.1220582  47.3191916   0.9042734  39.9573059  48.0924986   0.3243298
  78.4198268  27.5088930  15.8723605  77.5781004  27.9336143  16.0377085
  79.0005686  28.2226658  15.6087351  27.9864740  23.3367729  19.4475901
  27.5116110  24.0961170  19.1097534  27.4959779  23.0747390  20.2266812
  14.5724885  60.6961637  20.2587438  13.6788146  60.9806626  20.0673413
  15.0898330  61.0190599  19.5209610  33.7943293  26.4427899  11.2745518
  34.5605125  25.8939623  11.4418358  34.0832545  27.3295425  11.4900106
  22.9180431  20.7206082  51.8113947  22.7454948  21.6602349  51.8710566
  22.4361515  20.3414559  52.5464153  18.8478248  60.4769235  36.2654877
  18.2873981  60.3331607  35.5029321  19.0593259  61.4099591  36.2347913
  22.2906709  13.5478199  52.5291634  22.9720306  13.0686498  52.0575953
  22.2616172  13.1353641  53.3924532  79.1241987  60.3596633  37.7989507
  79.8337038  60.9624438  38.0214119  79.3994172  59.9598556  36.9739389
  63.8966656  25.8817840  57.0537138  63.6042690  24.9948406  57.2636318
  63.6624432  26.3997507  57.8238297  43.3628273  15.7445717  21.6570354
  43.4553242  16.5743220  21.1888576  43.6364841  15.9430504  22.5525498
  34.0105455  58.9269583  21.3697672  33.5770242  59.6518510  20.9194136
  34.9353378  59.1734402  21.3853455  16.9742489  16.6659474  27.2690868
  17.3563755  16.9047022  26.4245701  17.7045810  16.2989867  27.7672720
   7.8860506  16.7579168  65.0888495   8.4855208  16.2884635  64.5087835
   8.4543785  17.3156184  65.6200747  61.9276955  34.2685597  20.7961798
  61.4247288  34.2242711  21.6093802  61.2674596  34.2337554  20.1040030
  60.5375924  67.8399657  42.5828218  60.9497722  68.6612760  42.8507614
  59.7820802  68.1102448  42.0609188   4.5936553  70.5051397  50.6473017
   3.7873857  70.6198226  51.1503029   4.9741213  71.3822769  50.6013870
  12.3346853  31.7747855  54.5565414  12.2776878  32.2981334  55.3559732
  11.4238858  31.6059709  54.3153381  61.7531689  65.5134373  48.6517572
  61.1280866  66.0401772  48.1537104  61.3309951  65.3795450  49.5003271
  76.3952112  24.0764016  60.3678301  75.4718876  24.2090291  60.5825677
  76.4170790  23.2334513  59.9148512   1.9609388   8.7226534  47.7137423
   1.2960371   8.4748507  47.0712996   2.7871069   8.6792719  47.2322845
  36.6352415   0.8442026  14.0355963  36.2053871   1.2216836  13.2681555
  36.7697763   1.5868908  14.6242804  24.1561604   2.2399428  35.6854439
  25.0424314   2.1379079  36.0323477  23.9443612   3.1610954  35.8366108
  25.6519699  12.9366887  61.8056965  24.9958706  13.1559432  61.1441135
  25.1419497  12.6449168  62.5613260  20.3351641  16.6213858  18.3428288
  20.9908962  17.2780871  18.5773325  20.4882383  16.4513290  17.4133766
  41.8733883   9.5817286  33.0718184  40.9162426   9.5919389  33.0714297
  42.1030092   8.6560839  33.1536078  13.3400273   6.8741345  38.8590860
  13.8969553   6.1086148  39.0006566  13.8135636   7.3987299  38.2134891
  61.7869234   1.5079713  22.5189590  61.0805178   1.8598762  23.0606103
  62.3609734   2.2567986  22.3578525  74.0085109  41.3476880   2.9361958
  73.3949502  41.0558961   2.2619337  73.5250123  41.2535392   3.7569279
   8.2856695  75.1483033  27.9352760   7.6962750  75.5581624  28.5684109
   8.4677021  74.2833239  28.3025718  24.7419882  15.6588840  20.7939124
  25.5032158  15.0785708  20.7945871  24.1099358  15.2241874  20.2213907
  70.3059168  56.0638719  29.6814466  70.1107259  56.4496904  28.8274693
  70.5514224  55.1597207  29.4853067   9.9899976  56.5255802  39.6725321
  10.3045504  56.3759415  40.5641031  10.7614486  56.3945775  39.1212296
  18.5688417  65.9409784  14.0086865  18.5723655  66.1323421  13.0708170
  18.9661472  66.7127543  14.4121003  60.1948782  51.3079326  12.2086346
  60.7990314  50.6161993  11.9389367  60.1456459  51.2250583  13.1609690
  42.1595573   0.5526233  49.1748190  41.2622881   0.2647685  49.0066433
  42.0687771   1.2573153  49.8162222  19.4456875   9.2162693  51.6542482
  18.8615990   9.4621843  50.9368944  20.1604891   8.7422144  51.2293243
  51.2357216  74.5954682  22.6302886  51.5520352  73.9404201  23.2524538
  50.3873603  74.8679290  22.9799747  76.4531946  50.3694409  49.6220129
  75.7346297  50.4876751  50.2432364  76.6657448  51.2559194  49.3301052
  10.9123079  73.6772743  39.0089726  10.5246226  73.5799383  38.1392264
  10.9684889  74.6235721  39.1416240  51.6039164  39.2919943   9.6469111
  51.2735231  40.1818700   9.5236534  50.9212478  38.8509375  10.1525444
  29.9748063  19.7823954  11.3705826  30.6239319  20.2476215  11.8982494
  29.1744661  20.2988315  11.4653444  25.5721903  21.4972448  12.9683292
  25.7266116  22.3605514  13.3518469  24.9383068  21.6558099  12.2688425
  72.4225807   1.3773924  34.7909856  73.0219078   2.1105370  34.9307632
  72.9885292   0.6056590  34.7719765  25.6451774   7.2740597  61.9463491
  25.9408402   8.1793869  61.8504381  26.4525557   6.7616212  61.9885445
  63.3404346  45.8255022  36.2697053  62.5973018  45.9104984  36.8670011
  63.5407956  46.7239635  36.0073042  16.7169273  20.5609155  27.3804021
  16.0540378  20.5302501  28.0702329  17.4499798  21.0345292  27.7735353
  35.7158351  17.0086813  47.8808260  36.5765619  16.5905130  47.8581381
  35.2575994  16.6550922  47.1184444  65.3474017  53.3337300   3.8318214
  65.1314219  54.2524164   3.9918303  66.2431939  53.2384174   4.1553980
  77.2946167  18.2699132  58.3090258  77.3489189  18.5743618  57.4031639
  76.9594908  17.3758399  58.2415342  29.9124026  17.6763093   9.6578097
  29.8927402  18.1588912   8.8313961  29.8838258  18.3549798  10.3322148
  40.5600071  18.3071399  37.6345658  40.0662422  17.9732001  36.8856239
  40.9970665  17.5361884  37.9962873  47.0618773   6.8900752  35.4845476
  46.5610361   7.0042902  36.2922263  46.7053127   7.5470757  34.8866820
  61.7611201  53.0494128   7.3529142  62.2485836  53.3737956   6.5956921
  61.7807849  53.7735771   7.9785580  18.6652772  72.6083623  46.7407131
  18.1067149  72.5077300  47.5115013  18.6986129  71.7337271  46.3532400
  36.9794512  16.5095520  53.5352182  36.3755751  16.1697698  54.1956091
  37.8440595  16.2270224  53.8333178  59.3674946  17.4208963  35.4902959
  59.3990278  18.3507776  35.2654433  59.6257496  17.3883247  36.4114237
  57.8263617  74.0202850  64.3516782  56.8773985  74.0061730  64.2271665
  57.9457045  74.3350786  65.2477215  56.3303137  25.0669384  49.9325418
  55.9312773  24.2092109  50.0785017  56.0079432  25.6069899  50.6541061
  29.2972064   0.8739480  29.4883943  28.7116575   0.5639298  28.7975597
  29.8208046   1.5572315  29.0698242  25.4672353  59.2881780  16.9567037
  25.7193248  58.5298650  17.4836218  25.0063007  59.8623042  17.5683820
  64.4838142  33.9911723  61.2981796  65.3233290  33.7173295  60.9287786
  64.7187042  34.5686936  62.0244932   4.7536461  68.9817946  34.2413807
   5.3383271  69.6265911  34.6396518   4.0222089  69.4983750  33.9031863
  68.1949282  15.0678611  43.2300615  67.9672813  14.2421579  42.8027201
  67.4621201  15.6505978  43.0309629  48.0100822   1.0184965  43.8340378
  47.7985334   0.3767157  43.1561041  47.2128630   1.5400162  43.9272738
  38.5655594  23.7457180  52.5229359  37.8561425  23.7863588  51.8816042
  38.2242632  23.1888127  53.2226515  75.3853638  53.1694709  12.0335096
  75.0675376  54.0686952  11.9521660  75.4115613  53.0091070  12.9768175
  34.5776176  39.7660780  61.9578648  35.1288223  40.5485582  61.9465351
  33.8496518  39.9774265  61.3733721  52.1319008   9.5966726   1.3972658
  52.7507734   9.4656855   2.1156496  52.5348615  10.2744108   0.8545679
  46.2628555  60.8845758  62.2978258  45.7354832  60.1408863  62.0062065
  45.6750393  61.6368437  62.2285795  57.5962400  26.3961411  62.0603371
  56.7965031  25.8883739  62.1975613  57.7295780  26.3815022  61.1125803
  41.3398981  36.7651129  45.9967279  40.5312586  37.1855116  46.2893009
  41.2687874  35.8639431  46.3114786  56.8326712  42.1707249  39.5233989
  56.3911200  42.5293684  38.7535667  56.1314774  42.0371056  40.1611328
  43.0525875   0.7032734   5.6079477  42.3396015   0.1951080   5.9948010
  43.8432598   0.3650576   6.0282845   4.0533289  41.7144299  38.3671474
   3.4370646  42.3963737  38.6343384   4.9067816  42.1478224  38.3714390
  60.0167131  10.3184068  33.0466342  60.9149218  10.4929686  33.3276677
  60.0236320   9.3992054  32.7797031  57.7412987   7.4258506  17.7309823
  57.1157408   7.7547419  18.3765388  57.3004675   6.6765469  17.3304236
  68.9120436  46.6656780  34.1514659  68.2617950  46.6596889  33.4490609
  68.7337399  47.4716663  34.6360517  53.3926868  39.6080256  51.5067005
  53.5830498  39.3330812  52.4035835  53.3766556  40.5642176  51.5476084
  72.9588509  22.0062256  43.1356001  73.2327127  22.6037717  42.4397755
  73.1385136  22.4834895  43.9456463  53.7491465  39.1361785  39.9839973
  54.4037676  39.6809936  40.4208994  53.0916691  39.7570348  39.6701670
  61.0926294  48.2431364  40.1524162  60.3044558  48.5007429  39.6742392
  61.5731430  49.0610313  40.2804565  13.8267836  60.7327700  52.8529978
  13.4259447  60.0078106  52.3734331  14.3190989  60.3109550  53.5572243
  70.2398062  57.8628969  43.2571888  69.4391823  57.5292730  43.6620712
  70.5209637  57.1618366  42.6692343  51.1107874  41.1564064  44.7458124
  50.2968216  41.0050678  45.2262163  50.8573294  41.1084032  43.8240290
  50.5515337  23.7238431  62.4769020  51.3593721  24.1458154  62.1843815
  49.9461031  24.4484329  62.6339054  66.1356258  36.0012251   0.6721872
  65.3257084  36.4333111   0.9434122  66.2035942  36.1860376  -0.2645403
  64.1010952   7.9076034  47.5740099  64.6943188   7.2544003  47.2030020
  64.5091534   8.1584680  48.4027386  56.5420485  37.7643466  47.3621941
  57.4429798  37.9559660  47.1017551  56.2493086  37.0985198  46.7399311
  33.5515659  74.0751879  61.7222643  33.9480607  74.4485039  62.5094509
  33.8552348  74.6388852  61.0107422  56.3506031  46.5775156  38.3384466
  57.2956038  46.7096329  38.2625794  56.2152672  46.3364935  39.2548656
  51.7710781   7.6641732  57.2805405  51.6285515   8.5183197  56.8726778
  51.1082411   7.0970291  56.8865585  11.2447390  11.4888012  50.9885693
  11.8292173  10.8986008  50.5128813  11.4444765  12.3570740  50.6386614
  29.2799616  30.5478340   5.4140896  28.7623548  30.3822189   6.2020535
  29.5675373  31.4564711   5.5030245  68.7033701  46.1818123  52.3464489
  69.6451712  46.0232830  52.4105644  68.6328888  47.0412683  51.9310045
  78.4094667  51.0371637  11.5320134  79.2239761  50.6219101  11.8155193
  77.8573799  51.0402060  12.3139453  40.8266306  30.9718060  57.0120335
  41.7070246  30.6500483  57.2059774  40.2848434  30.1832986  56.9811916
  62.0657587  33.2250667  54.7665405  61.9082928  34.1398859  55.0000906
  61.3080883  32.7551222  55.1148510  73.5997868  19.1133678   1.5132996
  73.0257368  18.9496398   2.2615606  73.4379339  18.3783269   0.9219029
  59.7612381   9.1641796  50.6170654  59.4826698   9.8256826  49.9837828
  59.7020388   9.6044022  51.4649677  31.0300414  25.3401064   0.8410782
  31.7085330  25.2403055   0.1733107  30.5211894  26.0983370   0.5540508
  69.2278147  11.7564631  45.6529713  69.0909195  11.2072897  46.4249134
  69.3728352  12.6342237  46.0061502  50.8394814  26.8798041  46.1853600
  50.6308460  27.1942735  45.3056955  50.0599575  27.0814633  46.7029572
  12.6856550  53.9000082  49.5063877  13.1827292  54.0732098  50.3058577
  11.7788443  53.8170624  49.8014069  60.8231688  15.8484554  60.8908319
  59.9160719  15.9602809  60.6064081  61.1814213  15.1900792  60.2954960
  44.9930048  24.4647026  46.8481827  45.8482790  24.8735785  46.9806862
  44.8281002  23.9857364  47.6603603  51.9747782  38.2418585  48.1682682
  51.2214041  38.7957811  48.3727884  52.0191288  38.2413316  47.2121000
  63.7436008  57.9170990  32.2538924  63.1024218  57.4470520  32.7869773
  63.2218218  58.3509445  31.5787959  52.6518011  72.1788412  17.9593748
  52.6817178  73.1343752  18.0072207  52.6768732  71.8924147  18.8723749
  72.6968956  68.6185884  35.1317787  73.5313606  68.2834291  34.8038054
  72.3531055  69.1496277  34.4134212  12.0150122  74.4642067  31.0918736
  11.8320402  75.3612185  31.3713861  12.8581556  74.5207071  30.6422591
  17.6020941  29.4717097  38.6342525  17.0662436  29.0038896  39.2747498
  17.2841867  30.3738976  38.6693048  24.9320874  73.1546158  56.6664195
  24.4833884  73.9818281  56.8414157  25.8425984  73.4046001  56.5092230
  68.6306460   3.2294757  22.6748967  68.2957681   3.9589603  22.1534157
  67.9153569   2.5934656  22.6841760  34.7780275  12.6309639  13.9198107
  34.0448808  12.1334511  14.2820448  34.5111179  13.5463434  14.0039200
  59.0112448  49.8078966  38.9231658  58.9100122  50.6172132  39.4241524
  59.0455198  50.0939560  38.0103540  70.7609510  63.8709307  31.3769984
  71.1186218  64.7237110  31.6241097  70.7792902  63.3599234  32.1861768
  49.1450834  62.7549648   7.0838344  48.7635231  63.5816860   6.7885798
  49.2273331  62.8543472   8.0323011  14.9651560  56.9578791  40.0157928
  14.4985994  56.1224842  39.9899960  15.3303465  57.0555115  39.1363978
  45.4229593  40.6894302  64.4457197  45.6820345  41.3552761  65.0827122
  45.9692287  40.8654308  63.6796618  42.4126768  46.2762451  10.6327367
  42.3839569  47.1900702  10.3493023  42.0310926  45.7872534   9.9036878
   1.0414728  40.7162714   3.0782938   0.6808981  40.4220963   3.9147627
   1.9885286  40.7284546   3.2167390   2.7763495  56.1627340  34.7294927
   2.1216044  56.3322973  35.4068375   3.5569128  55.8925533  35.2131748
  25.9112486  63.9653158  38.6672401  25.3232702  63.3269596  38.2634926
  25.3313955  64.6570349  38.9858627  58.3967447  51.1696720  36.3704777
  58.7994432  50.7682371  35.6004691  57.4607325  51.1848783  36.1707735
  10.5113062  72.3944950  61.3338280  11.2083086  72.3486328  60.6793785
   9.7027906  72.3048878  60.8293343  50.9064722  28.0969339   9.2538113
  50.4798603  28.7366920   9.8238510  50.3953123  27.2957712   9.3682331
   6.6354307  51.4635229  56.8587685   6.3713869  51.2453413  57.7525806
   7.4322161  51.9833183  56.9645309  67.4180889  20.6858068   7.2203249
  68.1512356  21.2916285   7.1121305  66.7256927  21.0463768   6.6664309
   0.9521517  48.6701250  49.3294477   0.8741507  49.0116835  48.4386683
   1.7654738  48.1654644  49.3220949  39.2675559   2.7075345  64.2607784
  39.4717852   2.1707208  65.0265169  39.8523585   2.3814018  63.5767698
  11.1696943  59.5764971  41.1624479  12.0436415  59.6150160  40.7739067
  11.1506399  58.7396240  41.6266775   0.7004484  60.8690596  21.9157028
   0.7518133  61.2527752  22.7911210   1.5881857  60.5583286  21.7379284
  54.7413318  15.7535846  58.1990147  54.8625819  15.8017642  59.1472816
  53.8829677  16.1489303  58.0469084   6.6750876  61.3472818   4.1451830
   7.4633996  61.4840053   3.6197227   6.9626252  61.4826368   5.0480837
  66.3498735  54.0871906  40.8240318  65.5515146  53.9256907  41.3267946
  66.8712378  53.2929754  40.9408045  52.7315283  23.2820040   2.7250618
  53.0334997  23.1633383   3.6256022  51.9090128  22.7943092   2.6820225
  70.6672049  24.1921902  56.9016075  71.4841986  23.6961031  56.9531059
  70.0012064  23.5923910  57.2376394  67.6572020  21.2823875  32.1508861
  67.9269011  20.5185134  31.6410041  68.4733994  21.6321571  32.5082541
  31.4115397   1.9410760  40.4957581  31.0060088   2.5123079  41.1480427
  32.3506801   2.1017988  40.5874109  58.6875057  40.2463627  39.2163467
  58.1124210  41.0112047  39.2392731  58.4493017  39.7917271  38.4083867
  10.8361277  33.4753871  60.6199646  10.5737146  32.7100158  60.1085186
  10.2398809  33.4789777  61.3687706  28.9314471   6.4276607  14.1816998
  29.1656141   5.5779273  14.5549858  29.2885135   6.4058406  13.2938600
  20.6720368  11.4905269  47.0794296  20.0666968  12.1518524  47.4147606
  21.4051787  11.5029533  47.6947165  72.7478743  73.6679268  44.9360132
  72.1026134  72.9709673  44.8171854  73.4766197  73.4191179  44.3674612
  75.2487993  45.2097893  42.6608849  75.5561876  44.6580696  43.3801603
  75.2041435  46.0893393  43.0358887   3.4229199   7.9215057   6.4472622
   3.8153331   8.4951503   7.1054244   2.5259797   8.2424838   6.3539487
  49.7377872  70.6376743  27.7639842  50.4086781  70.8710289  28.4056139
  48.9890909  70.3585529  28.2910252  66.5754509  43.4710073  33.3397532
  65.6201744  43.5064840  33.2904959  66.8097878  44.1685772  33.9518905
  66.0991390   2.3152120  52.1219826  66.1483128   1.7701204  51.3366842
  65.3105195   2.8433473  51.9979525  40.0034523  73.8505840  18.9909256
  40.3788090  73.1312990  18.4830213  39.0988874  73.9137745  18.6843252
  26.8157403  23.8284309  56.1156511  25.9640900  23.5601051  55.7707834
  27.1235911  23.0693061  56.6108274  61.6847229  38.9752173  64.9405193
  61.8804789  39.0880823  65.8706665  62.4776077  39.2685199  64.4915867
  46.0008907  21.1126351  48.0529785  46.9234610  21.0285473  48.2938480
  45.5759811  21.4437222  48.8442230  57.7408886  39.3948364   1.8637338
  57.2305870  39.3989491   2.6735535  58.6045837  39.7156262   2.1232559
   7.8069719  63.5887146  38.3640265   8.1061300  62.6988840  38.5509276
   7.8002771  64.0232468  39.2168880  10.0214228  50.2829981  31.7825150
   9.8893961  50.5059242  32.7039838  10.9567102  50.0911760  31.7141294
  13.0264223  25.2340603  29.5892811  12.5484371  25.9164190  29.1179514
  13.5370409  24.7887230  28.9131355   8.1573614  32.8082681  40.4905796
   8.7418875  32.1048737  40.2080965   8.7076124  33.5914993  40.4905033
  63.8482237  53.2717943  49.5757008  64.3609381  53.0574417  48.7963390
  63.1122923  53.7863302  49.2442083  77.1807384  52.5540733  48.4225607
  77.1343660  51.9352818  47.6937389  77.2957993  53.4076977  48.0050516
  73.5807228  37.7389026  36.4619064  73.8058090  37.3606515  37.3119020
  74.3638039  38.2232738  36.2003684  65.3643942  48.4244061  53.5121870
  65.0748491  48.9243698  54.2753601  66.2077570  48.0549145  53.7738085
  12.9210028  34.5403004  26.2059760  12.3204645  33.7956452  26.1732054
  12.3956331  35.2847695  25.9127450  46.3430595  60.4252243  19.4460130
  47.0043421  60.8789253  19.9686038  45.8562517  61.1270809  19.0139842
  68.9127493  56.7470884  16.7161286  69.8558807  56.8373060  16.8524766
  68.5295582  56.9088125  17.5782430  57.8151130  18.2274347   7.5056404
  57.3385048  18.4507519   8.3051390  57.1496582  17.8575235   6.9255013
  48.1319571  74.8874664  34.7071242  48.1175375  74.0485430  35.1678038
  48.7431002  74.7525358  33.9828801  71.1722326  60.6205273  53.8100052
  71.7566061  60.3183699  53.1147051  71.6293859  60.3975058  54.6208715
   0.4809698  38.5935616  39.0578580   0.0209984  38.8388801  39.8606539
  -0.1398388  38.7905049  38.3563995  78.7217236  73.2103062  33.0251169
  78.3985186  74.0392256  33.3781862  79.1971159  72.8091955  33.7526751
  49.1090727  33.7900686  44.8525143  48.9644432  33.6841345  43.9122534
  48.3167839  34.2238164  45.1693392  22.7851693  12.6071937  32.8253484
  22.2649161  12.3889167  33.5986066  22.7285497  13.5604770  32.7598596
   3.5295805  62.8099728  17.9423678   2.6583036  62.4370575  17.8080881
   4.1313299  62.1123075  17.6827526  63.8960218  62.6569939  10.7260478
  64.8389292  62.7913427  10.8214831  63.5380173  63.5383797  10.6201172
  13.7752008   8.6529213  11.2848228  12.9818606   8.6144262  10.7506365
  13.6652946   7.9523188  11.9277185  26.9943857  13.5847717  24.4031900
  26.4089679  14.3355089  24.5027346  27.5867557  13.6419064  25.1529020
  61.6881037  49.0216684  43.3152246  62.0648623  48.2317114  42.9275942
  62.4333334  49.6115351  43.4288931  19.8642747   1.0495050  60.6570005
  20.7602708   0.8960206  60.3572226  19.9657361   1.5241201  61.4820337
  45.3953711   4.1187627  41.6329145  46.1467521   4.6651513  41.8633747
  44.8145358   4.7033269  41.1459351  33.0005710   8.2371814  35.2287030
  33.0340735   9.1476352  34.9351120  33.3006160   7.7308948  34.4738007
  57.9361439  43.3180475   7.5165302  57.8150558  44.0979099   8.0581772
  57.0755529  42.8991652   7.5039810  65.9164476  49.4611454  29.7177458
  65.1890373  49.1491699  29.1794372  66.6931200  49.3186045  29.1767406
  14.2882125  12.0080764  62.1780205  14.1513793  12.7478988  62.7697659
  13.8010995  11.2878806  62.5783634   0.7291810   1.0548551  35.6164432
   0.0720755   1.0918338  34.9214029   0.3400771   0.4899986  36.2841058
   0.3651651  59.5557833  16.3916445   1.0583147  59.2306757  16.9661772
   0.1474556  58.8096046  15.8330286  73.2049227  64.6529341  19.0112066
  73.0032158  65.4170132  19.5513272  72.5469732  64.0036011  19.2596066
  63.2025194  30.5756998  41.9543076  63.9522362  31.1278582  41.7323208
  62.5510645  31.1847925  42.3019314  48.3212995   7.0191818   6.0965103
  48.0017376   7.8233915   5.6874126  49.2679643   7.0389515   5.9563011
  52.6147938  65.2481890  21.9595075  52.7954960  65.8443928  22.6862264
  51.7005014  64.9923229  22.0812869  21.0197799  12.1807010  40.6762409
  21.3700072  12.7015598  39.9535465  21.7216842  12.1715076  41.3269901
  22.2686402  13.3461006  45.4476643  21.9868819  12.4885280  45.7661295
  22.1952979  13.2838733  44.4953108  67.5424051  58.0861855  44.1323280
  67.5546598  57.6409483  44.9795866  67.0580292  57.4936867  43.5573864
  58.0032158  72.3515320  39.9965668  58.0851173  73.2112741  39.5838070
  58.3308458  71.7379570  39.3389821  39.0321827  75.1996994  62.4481153
  39.4806337  74.3554974  62.4975920  39.6993160  75.8068991  62.1280003
  66.1788328  17.0326717  26.7874813  65.3651078  16.5383632  26.6887665
  65.9087737  17.8625018  27.1807837  56.7827702  67.1607208   3.0867481
  57.1767426  66.3158703   3.3041167  57.5286770  67.7375221   2.9219761
   4.6087488  38.9291406  44.7056532   4.7176775  39.1489363  43.7804222
   5.4679617  39.0943432  45.0938416   3.7276904  27.3803623  34.5819497
   4.3887298  27.4834545  35.2665162   3.9813582  28.0101688  33.9072514
  76.3708337   1.0059745  45.9575987  75.7691415   1.2515218  46.6603804
  75.9271844   1.2812955  45.1553488  56.8092442  46.0888577  35.5304432
  56.4885616  46.1411667  36.4308071  57.2208071  46.9386005  35.3730249
  57.1527449   1.0829027  33.9059019  56.3908164   1.6515548  33.7948871
  57.5319545   1.3512285  34.7428203  63.1100177  69.5398813  23.8592047
  62.6661873  68.6955648  23.7793058  63.5620498  69.6529203  23.0230707
  76.3279612  32.7066238  33.2390213  75.4615863  32.3562248  33.4460163
  76.9304498  32.1837146  33.7679839  63.7725782  51.0838652  44.4407272
  63.3268738  51.7328119  44.9851990  64.5388365  50.8266592  44.9534893
  67.1722364  37.2623467  44.5398808  66.2685776  37.1461225  44.8333502
  67.5017309  36.3716078  44.4204998   4.9185149  14.7161872  33.4323120
   5.5003898  15.2491577  33.9741516   5.4656760  13.9881046  33.1377769
  69.8285532  67.2389126  46.3302517  70.5434942  66.6094971  46.4247465
  69.9974108  67.6691151  45.4920149  72.8103638  58.6830378  39.3934822
  72.1786118  58.0083656  39.1446209  72.4419117  59.0760088  40.1847124
  55.6992657  15.9836681  46.3611031  54.8695309  16.0419090  45.8874130
  55.5504854  15.3080375  47.0226288   7.1370904  16.9688804  23.5396123
   6.2531440  17.2125347  23.8143897   7.3229472  17.5414855  22.7954197
  45.6539663  69.9848700  23.6916542  46.0358461  69.1163445  23.5649276
  45.9047445  70.4734898  22.9076958  43.9773273  72.0748472   1.0824984
  44.4678736  72.0486212   1.9040263  43.0706167  72.2256231   1.3496563
  59.1764355  71.1944008  25.8664227  59.8214722  70.6855059  26.3575292
  59.4139290  71.0604668  24.9488783  51.8925810  70.1632643  32.3939919
  51.2660885  69.7356701  32.9778600  52.7477932  69.9725008  32.7792788
  70.1593113  50.9952927  62.1112633  70.8828449  51.5588140  62.3854494
  70.5369234  50.4325008  61.4353180   4.6612994   4.0951116  56.7638302
   4.4403188   4.7749383  56.1272478   4.8211543   3.3139474  56.2342453
   4.7844633  67.9245090  11.3986921   4.1827807  67.2812510  11.0239482
   4.5697245  68.7427235  10.9507525  56.4741476  14.8901851  16.0039878
  56.1081798  14.2967231  15.3481674  56.8856128  15.5872924  15.4931343
  20.7735204   0.1019937  26.0657305  21.6914987   0.1155978  25.7948774
  20.7653808   0.5576783  26.9074625   6.1968741  66.0657406  53.4754944
   5.7343134  65.4039526  53.9896059   5.8659967  65.9513521  52.5846148
   6.5907511  58.0263281  64.0110302   6.7651018  57.6680136  64.8813438
   5.9856638  58.7513590  64.1673231   6.3445505  34.2214561  60.3584719
   6.0616716  35.0583553  59.9899530   5.5299887  33.7627053  60.5640602
  74.8790789  44.3218040  38.3642697  74.0028000  44.7014236  38.4295440
  74.8669767  43.5849237  38.9750791  70.4270029  70.1772928  33.5319066
  71.0552263  70.7348108  33.0728388  70.1362991  69.5491934  32.8706861
  72.1912288  30.7158333   0.2823299  71.9244194  30.6868320   1.2011379
  73.0454540  30.2842098   0.2672428  60.3581238  19.8639178  27.2760844
  60.9046936  19.3733120  27.8899264  60.5211115  20.7822299  27.4914241
  62.7809858  36.6447043  19.6946526  63.6220169  36.7473555  20.1400328
  62.4592590  35.7909560  19.9842000  31.8168799   8.1079585  59.6395683
  32.0600097   7.4273021  60.2671194  31.3689772   8.7701423  60.1659966
  70.1203489  50.8917332  49.3712187  70.2307272  51.7594099  48.9823914
  69.1891479  50.6978703  49.2638826  27.7936332   0.2535303   6.2428570
  27.0603148   0.7852704   6.5522605  28.0931537  -0.2171366   7.0206678
  65.2177763  45.5879307  47.4070978  64.6619463  46.2102985  46.9381142
  64.6294022  45.1658058  48.0330849  27.8419463   5.9586341  27.5224495
  27.0228068   5.9813697  28.0171537  28.3063762   6.7511470  27.7916288
  57.8375244  68.0696917  25.2943349  58.2459497  67.5385904  25.9779644
  57.4925995  68.8328171  25.7579112  34.5727443  43.7930399   2.5343842
  33.9721822  43.4789854   3.2103437  35.2116584  43.0872541   2.4349588
  34.1704226  64.9696827  22.6013303  34.7010612  64.1857672  22.4594593
  33.3605695  64.6430063  22.9933143  36.4996561  42.3166609  33.4179044
  35.6598124  42.0505619  33.7921953  36.7204889  43.1270266  33.8770032
  67.3753309  40.7295609  62.9607248  67.6582718  39.9063134  62.5626802
  67.7969456  40.7374716  63.8200331  63.0387115  67.5880051  59.6688795
  62.9007673  68.3699179  59.1342592  63.8726377  67.7447939  60.1118422
   8.4866652  69.8060751  53.8537645   8.7275442  68.9274979  53.5599756
   7.5352129  69.7729492  53.9530945   5.4839834  60.3133106  23.6520696
   5.5923876  60.4368782  24.5950508   5.4257235  61.2012196  23.2992935
  72.9755545  48.0426168  27.4353337  72.8581047  47.3814678  28.1174779
  72.5624895  47.6627111  26.6599107  50.6221437  68.0383396  45.7772112
  51.5640020  67.9070187  45.8862352  50.4142666  68.7727737  46.3548183
  68.0492496   2.4521929   4.4733614  68.4445953   2.0718103   3.6889881
  67.2480106   2.8708607   4.1587633  61.4586544  63.5268259  35.6456637
  61.6333389  64.4591045  35.7743883  62.1863794  63.2191658  35.1052976
   2.7219423  54.1109800  38.6909676   3.5376009  54.3011093  39.1544104
   2.2244104  54.9274206  38.7369823  16.6843923  28.9589268   0.7111734
  16.1466917  29.1995197  -0.0432926  16.3870462  28.0800968   0.9467072
  34.5478980   1.3472898  33.0677080  34.3151824   0.9948833  33.9267111
  35.1565902   2.0609624  33.2585025   3.9700159  52.2514486   7.4090582
   4.5825895  52.8010845   6.9202983   3.5109266  51.7480850   6.7366797
   7.9655966  60.9083176  41.1323643   7.5486883  60.2913332  41.7338276
   8.7802919  60.4774094  40.8738756  64.5437527  59.5472383  17.2872066
  64.8703718  59.2764521  16.4291716  65.3154087  59.5307589  17.8533387
   9.2838113   2.9513271  42.2532558   8.3741443   2.6556547  42.2170115
   9.4076411   3.4451110  41.4426565  78.2471085  61.2812996  13.6103177
  78.0255461  60.9012699  14.4604468  77.9293394  62.1828032  13.6608207
  54.7853088  68.2071543  27.3107624  53.9421797  68.4734488  26.9440818
  55.4133368  68.8293791  26.9438124  30.7586527  16.6890388   3.2201237
  31.3710499  16.7143684   3.9553541  31.2865925  16.3925320   2.4787754
  73.5860205  59.6155500  13.3898675  72.9449844  59.7658062  12.6950777
  74.4238186  59.5469427  12.9320252  19.7884115  24.4444132  52.4221373
  19.3284926  25.2361321  52.7012253  19.1083750  23.7716079  52.3886490
  55.4230594  13.7345081  25.6374640  56.3736248  13.6763340  25.5412096
  55.2602482  13.5024553  26.5517324  33.0122599  38.0491924  25.5882978
  32.7447828  38.8873124  25.9654546  32.7243933  38.0940914  24.6765113
  12.6564917  51.9417334  34.5653510  12.6939711  51.1455917  34.0352726
  12.6464209  52.6545334  33.9265656  51.0962772  65.0830984  50.0737286
  51.5319204  64.4622564  50.6576872  50.5791330  64.5346403  49.4838285
   1.5247854  35.5597115  27.9915047   2.0904192  36.3298988  28.0471849
   1.9424948  35.0027585  27.3345804  65.5810690  67.8964949  57.0939732
  66.2480974  67.7223682  57.7580404  65.4277802  68.8396788  57.1500254
  73.3979940  46.3925266  29.9755812  73.9319611  45.6930304  29.5989943
  74.0332031  47.0354271  30.2908802   9.6715323   6.6361625  23.1634569
   9.6590821   7.2437007  23.9030409  10.2818267   5.9481819  23.4288883
  63.3206511  38.8903260  60.3559351  62.5141001  39.3485284  60.5920649
  63.0980539  38.4087205  59.5592308   3.1559595  32.0390272  29.0536857
   2.2629484  32.2897100  28.8172054   3.6678537  32.8396440  28.9387774
  56.2101650  22.5989300   5.1884455  55.4815769  23.2094675   5.3008217
  55.7919216  21.7596775   4.9962133  39.0256087   4.6034772  57.8139496
  38.0980651   4.4709117  58.0097485  39.1761367   4.0989692  57.0145512
  20.6669347   4.9143798  41.6317272  20.4903046   5.3026016  40.7748032
  20.9074656   4.0081317  41.4391136  56.2722667  46.1328323   0.6869631
  55.4897387  46.4833648   1.1124147  56.4787729  45.3396709   1.1814140
   4.5163282  37.2045946  12.8799558   3.7389120  37.6086116  13.2654834
   4.2879328  36.2789536  12.7947688  69.4713402  51.5437460  52.2499418
  69.0366507  52.3897409  52.1423769  69.8752975  51.3721561  51.3992929
  61.2405539  54.6169281  31.1581349  61.9348717  53.9580202  31.1571765
  60.4440451  54.1252613  31.3583040  23.5065779  74.3124199  44.3696070
  23.0291590  75.0390768  43.9692688  22.8387007  73.8223267  44.8491764
  27.6043939  74.6881777  14.8350853  27.1008777  74.3589312  14.0905708
  28.3855295  74.1354662  14.8591513  56.8425703  59.3740463  29.4093227
  56.6244650  59.3599319  28.4774113  57.0535040  60.2896500  29.5920992
  52.4864101  68.3795261  59.1045666  53.1601381  68.7748432  59.6577787
  52.7723074  68.5642815  58.2099390  34.7133033  23.6138160   3.7415868
  35.3401820  23.3896644   4.4293422  34.5209281  24.5403678   3.8855645
  75.8154631  44.5924520  17.3078811  75.3751183  43.7452030  17.3749697
  76.4825964  44.5706367  17.9939461   2.8560289  63.5980701  29.9553108
   1.9653544  63.9132786  29.8017955   2.9247793  62.8056431  29.4228053
  72.6514387  53.6827183  19.7565579  72.1998787  52.8621483  19.5590973
  72.1394014  54.0735006  20.4646087  42.3176257  13.3139331  51.2735891
  42.1666781  12.5021846  51.7578506  41.5724055  13.8702209  51.5003538
  25.5260102   8.2462509  57.7997875  25.5419509   8.7106235  58.6366558
  26.4485471   8.1342513  57.5704145  15.7898299  16.2294490  33.6233497
  16.2852637  15.9538371  32.8521109  14.9811046  16.5990932  33.2689953
  23.6805360   5.0344474  40.4816294  24.3675486   4.7521074  41.0853910
  23.8433282   4.5334918  39.6823978  69.0599632  58.2236195   7.0227510
  69.7207975  58.3426714   6.3405848  68.4598732  58.9601660   6.9060451
  42.9269091   7.9273136  38.6614490  43.1706778   8.5954769  38.0208492
  42.1793715   8.3028896  39.1266012  60.6006622  70.7745934  44.1530895
  60.3893948  71.2969255  43.3792925  60.7010078  71.4169741  44.8555946
  46.0777425  36.5484911   4.1313976  46.9819069  36.8398148   4.2490953
  45.8609581  36.1033874   4.9506182  24.1896407   7.0967681  51.8504238
  23.6216561   7.0242412  52.6174688  25.0637214   7.2420413  52.2125149
  70.2147627  65.7647943  40.5560684  69.4508696  65.7073164  39.9821353
  70.5904675  64.8845005  40.5436182  58.8723564  22.1147352  22.4202627
  59.3389511  22.3698097  23.2161612  58.9429760  22.8775316  21.8463415
  37.2241084  12.2435386  48.4619665  37.6070563  11.7236907  49.1686153
  36.6255729  12.8452880  48.9045620  54.4910574  66.1867046   5.2680689
  55.1707554  65.7545662   5.7852674  54.4304657  65.6645346   4.4681317
  74.5836687  61.6165876  48.8962936  75.3793955  61.3110924  48.4607172
  74.6447277  61.2616205  49.7831392  63.0066919  61.2511683  35.1587391
  62.2702456  60.6815386  35.3810000  63.3086014  61.5918684  36.0007644
  21.7216524  68.6456966  30.8565927  21.5009436  69.5740128  30.7807779
  21.8087420  68.4963226  31.7980456  54.9086618  29.3871307  63.2644224
  55.6697226  29.3463731  62.6853180  54.1956520  29.6896291  62.7019787
  78.5528564  34.0906453  27.0672989  79.3893385  34.3251443  27.4692154
  78.7708664  33.8984680  26.1552835  65.6460102   6.7678554  22.6567531
  65.0302894   6.7316062  23.3887386  65.1133950   6.5722759  21.8858433
  74.1444397  66.7242336  40.0261259  74.9408436  67.1631670  40.3249693
  73.5518026  67.4378920  39.7901082   8.8826880  53.1868076  25.0423360
   8.9188513  53.8152981  25.7633948   9.6203646  53.4242153  24.4804621
   2.0010313  42.5510025  47.0868540   2.4232134  42.5198507  47.9453564
   2.2959169  41.7542553  46.6458750  46.1949253  71.1692524  21.3236117
  46.0354900  72.1005344  21.4770031  46.1052418  71.0637188  20.3764844
  19.1684088  71.0397577  51.5133238  20.0203260  71.2589741  51.1359549
  19.3182119  71.0391855  52.4587250  63.3945854   9.4206912  22.0137405
  63.4299262   9.3312461  22.9660988  63.5244043  10.3558357  21.8560219
  30.2173090  13.5579639   9.6118778  30.5090427  12.7723604   9.1493315
  31.0221481  14.0456730   9.7868103  64.9340391  59.2573643  55.5890083
  65.6186295  58.8338995  56.1069345  64.6694088  58.5928917  54.9528646
  45.3942919  71.7360020  27.2931409  44.8019409  72.1367407  26.6569328
  45.1942539  72.1781158  28.1182194  10.6606707  59.0063858  33.4127212
   9.7764238  58.9018583  33.0614185  10.8402571  59.9433327  33.3345294
  24.1894087  60.7371855   6.7083049  24.4992861  61.4651442   7.2470856
  24.0328535  60.0276804   7.3314607   4.8029932  53.6630344  24.2871547
   5.5665812  54.1738939  24.0184617   4.8373255  52.8765535  23.7426376
   2.8270086  29.9785334  18.1533712   2.0617613  30.3737074  18.5710520
   2.9456362  29.1456085  18.6098761  66.7907190  61.0807133  38.2267404
  67.7030182  61.2784719  38.0149961  66.8427372  60.4555988  38.9497590
  70.4781246  57.0372772  23.3038878  69.9217892  56.8971348  24.0701008
  70.9921026  57.8152752  23.5201693  28.7367122  16.4836604  37.1866298
  29.0155951  17.1214206  36.5295768  29.4931094  15.9076412  37.2975039
   4.2574279   7.1436889  32.4469256   3.7889926   7.9592998  32.6246285
   4.7624223   7.3253162  31.6543221  44.3988898  45.5542952   2.9221624
  44.8644754  44.7899824   2.5826115  43.5516688  45.5358988   2.4770636
  58.5673332  59.8791695  19.7637820  59.4896889  59.7953606  20.0055790
  58.3357286  60.7748222  20.0095344  72.4376488  59.9645185  41.7251301
  71.5316010  60.1109552  41.9969130  72.8964424  60.7650900  41.9797373
  42.7454090  73.1297350  54.8604059  42.5146341  72.4821806  55.5264759
  43.7024021  73.1487846  54.8662949  76.9087410  61.3146305  53.2320261
  77.5892067  61.4285564  52.5685358  76.7508650  62.1972227  53.5671949
  62.2991037  53.9756823  58.0316782  62.5284243  54.6642876  57.4076033
  61.4469051  53.6570263  57.7342844  14.7172928  57.1190363   5.7117743
  15.0143242  56.4912420   5.0530809  15.1350116  56.8304640   6.5232319
  61.5307601  50.5877946   4.9764008  62.2869737  50.4661463   5.5504889
  61.8835194  51.0350774   4.2071623   2.7029833  54.2604637  47.4067450
   3.4545454  53.6695099  47.4532318   1.9527086  53.7123299  47.6366615
   5.1612973   4.2954260   6.9681973   5.9433293   3.7790400   6.7732471
   5.4941940   5.1734644   7.1538300  23.2828442  10.7339580  23.6513495
  22.9700868  11.6078002  23.4172344  23.9655082  10.5435569  23.0079556
  74.8026371  53.2867670  27.8096056  74.1062117  52.8262043  27.3415136
  75.6078339  52.8512859  27.5298882  31.6166417  68.7023736  53.0825704
  30.9259479  68.3203126  52.5410872  31.1654012  69.3488599  53.6254054
  36.2785721  70.3989315  49.6957731  36.8411636  71.0863543  49.3391705
  36.4530373  69.6364355  49.1440535  64.7094710   3.4776456  39.2349887
  63.9670093   3.0653055  38.7934470  64.3284352   4.2234809  39.6984291
  71.5632486  71.3016558  27.2202039  71.3062000  71.6233063  26.3560867
  72.4427986  71.6543722  27.3551655  21.3789527  21.9958598  33.8822365
  21.9151608  22.1083457  33.0973434  20.8557765  22.7959068  33.9315772
  44.0458043  12.2761638  19.9132514  44.2101462  12.3269851  20.8548689
  43.0918689  12.2539146  19.8374689  77.4209881  63.0614090  56.7904997
  77.2908545  62.1175194  56.8819761  77.4905825  63.2032108  55.8464241
  62.5616026  70.0235224  61.4438772  61.9715071  70.7753038  61.3905191
  62.7541494  69.8049831  60.5320692  33.5577742   9.6498592  16.7146051
  33.2940165   8.7373550  16.8329477  33.1183211   9.9237163  15.9095514
  21.8399954   4.6564871  26.6864103  22.2003460   5.5432659  26.6830915
  22.4738979   4.1422373  27.1863646   6.0734002   3.0289132  40.1091814
   5.5271069   3.6759479  39.6629262   6.6716830   2.7127893  39.4321585
  75.1566124  40.1954794  36.5650177  75.8149529  40.1327467  35.8730006
  75.6637049  40.2200651  37.3764920  41.7236853  64.3887234  21.7749071
  41.6522312  64.4581318  20.8229065  40.9554863  63.8810396  22.0363712
  13.3510050  46.3341522  59.4081450  14.3063387  46.3566780  59.3528843
  13.1545290  46.6514492  60.2895927  72.2994423  54.6394491  26.2600398
  72.9845953  54.0359831  25.9725976  71.4881420  54.1386127  26.1752534
  18.8863659  42.8297239  14.0239233  18.3300781  42.1734863  13.6042398
  18.2864666  43.5379511  14.2579502  17.3959765  37.5199509  26.8668675
  16.8906149  36.7945671  26.4999080  17.1727594  37.5206327  27.7976775
  15.5663237  60.3041267  43.9070511  15.9128603  60.7695818  43.1458044
  15.6814608  59.3779898  43.6943483   1.0961565  71.1010504  59.4689703
   0.9260878  72.0400333  59.5439672   0.5261549  70.7011890  60.1258135
  58.4436274  49.1226768  13.2497001  58.9639807  49.4507170  13.9830875
  58.8500404  49.5111227  12.4749911  68.9032936  60.7278442  47.7518368
  69.3594027  61.3762045  47.2153378  68.1780767  60.4300070  47.2026730
  69.1576274  21.3415820  57.2970247  68.6661084  21.4833457  56.4879847
  68.7946923  21.9785316  57.9124975  62.7592182  47.7827597  13.7517250
  63.2989311  47.0045042  13.8905287  61.9233751  47.5719023  14.1678226
  63.6328077  74.8425674   1.9711851  63.8263273  74.5247459   2.8530991
  63.0904388  75.6189585   2.1100327  55.7201099  53.1804466  60.3499317
  55.4063272  53.9705181  59.9099779  56.5393114  53.4477091  60.7667160
  54.8491287  65.0570297  48.4697485  54.0447283  64.9881887  47.9555178
  55.3247643  65.7872581  48.0737925  15.7719151   4.2771299  28.3144927
  15.4662530   3.3893878  28.5008097  16.3372771   4.4961746  29.0551758
  12.2432646  55.1129532  36.0985732  12.6690516  54.2770338  36.2887740
  12.1919092  55.1436853  35.1432443  53.3084011  63.7531567  51.9442511
  52.7652264  63.9794254  52.6992321  54.0349579  64.3754816  51.9768000
  76.0204124  31.1381203  17.5336737  75.0743389  31.0323721  17.4336905
  76.3356971  30.2649313  17.7668375  28.0386893   7.0356567  35.2358842
  28.7925689   6.7788989  35.7668948  27.9531066   7.9778774  35.3812265
  14.6316640   5.5499942  56.0136318  14.2325656   4.8855884  55.4519224
  15.2784507   5.9797199  55.4539537  21.1608903   2.3797328  40.4778099
  20.6990640   2.8515108  39.7847176  21.8044917   1.8434865  40.0147247
  14.0693411  44.5322609  17.9632854  13.9307055  44.2660856  18.8722205
  13.5415014  45.3243923  17.8625214  75.9937906  71.8836641  57.4849987
  75.1136827  71.5380716  57.6340294  76.4751387  71.1534643  57.0959711
  12.4487607  69.6906541   0.5750889  12.8303735  69.5146965  -0.2849394
  11.5150086  69.5118211   0.4639191  38.1167285   1.1458881  39.7648120
  39.0590541   1.2449415  39.9005914  37.8648440   1.9192941  39.2602015
  30.4311418  43.1325346   6.0920376  29.5928812  43.4804159   6.3962168
  30.2048301  42.3134762   5.6514067  17.3245239  29.2911106   8.1757826
  16.8194103  28.4784752   8.2025236  17.6328993  29.4111114   9.0739721
  37.6604223  15.2825170   7.7458996  38.3081531  15.0107342   7.0956606
  38.0020332  16.1058765   8.0946249  71.4148092  67.1807575  31.7351246
  70.7834435  67.8190517  31.4031816  72.2046614  67.3330593  31.2163091
   1.4969191  26.1189413  27.4543977   2.0024809  25.7124710  26.7505383
   2.0635542  26.0562634  28.2233143  23.4000174  19.0763862  47.9637384
  23.4117143  19.2178256  47.0171165  24.1363494  18.4869773  48.1269598
  14.8718517  21.2318708  64.1687388  14.1745393  21.7559720  64.5628233
  14.6292035  21.1660577  63.2451474  71.3738108  68.3257914  40.3680229
  71.7281961  68.3537769  39.4792843  70.7863712  67.5700474  40.3679466
  12.2445313  11.5981300  53.7056637  11.8953483  11.5383537  52.8164339
  11.4690606  11.6446311  54.2648697  63.8265610  51.4826155  10.8634186
  63.2874727  51.2529516  10.1065350  64.4033670  52.1768999  10.5448270
  37.0600223   9.9232918  19.9004549  36.1969709  10.3208357  19.7850031
  37.6555919  10.6667667  19.9941439   3.9735159  45.3552061   7.4312061
   4.6591505  45.7508570   7.9693407   4.0670236  44.4139772   7.5780577
  69.9181414  15.4647464  61.7105174  70.6812382  16.0306806  61.8272590
  69.9548769  15.1996893  60.7914811  34.6983600  11.8237627  55.9238338
  33.9942980  11.5545440  56.5137911  35.4921937  11.4614415  56.3172579
  58.2900186  67.8222363  28.5866237  58.8109859  68.2677262  29.2547297
  57.4995299  67.5410407  29.0473723  18.8565850  10.3174651  29.5198703
  19.2101634  10.8261240  28.7901592  18.5173500  10.9745133  30.1276851
  11.6218781   5.8363378  28.8632107  11.8228400   6.5780818  29.4338775
  11.7606878   6.1712217  27.9773116  18.4654915  19.4378185  47.4335289
  17.9583573  19.8840988  46.7553854  18.8350797  18.6731672  46.9920015
  67.2621449  63.3910065  21.3198066  67.2100790  62.9357951  20.4793882
  67.9361160  64.0581029  21.1895156   6.2679331  70.1526253  42.5000286
   5.8096735  69.5015996  41.9686174   5.9610979  69.9923186  43.3924341
   7.2965258   4.8932540  47.5974178   6.6526020   4.4107801  48.1158876
   6.9050670   4.9545303  46.7260742  50.8934028  29.9338113   4.2333883
  49.9968489  30.1635198   4.4776386  50.9487660  28.9903592   4.3852562
  30.8762948  70.6204372   6.8935949  30.3805606  71.0954051   6.2266004
  31.7506473  71.0088532   6.8640542  23.9526908  74.2202984  53.0628103
  24.5446675  73.8341653  52.4172908  23.7652771  73.5068809  53.6728459
  54.4308210  50.9028465  61.1695471  54.9045348  51.5621835  60.6624979
  55.0649047  50.1970977  61.2963801   8.0283086  54.0275209  19.1315424
   8.7200467  53.9849942  18.4712994   8.4801714  54.2831152  19.9357343
   9.8153250  50.3265231  24.1233993   8.9591591  49.9692934  23.8876033
   9.8675005  50.2165620  25.0728297  46.7152643  18.2390285  22.1264815
  46.0942650  17.6063621  22.4874830  46.9505787  17.8818166  21.2701750
  31.5196435  48.1737869  19.6530819  31.5706651  49.1235011  19.5450366
  30.5817239  47.9878013  19.6972358  66.8431242  61.9744103  10.3351223
  67.3061081  62.6148384  10.8752406  67.5337501  61.5373914   9.8368424
  62.0512533  27.2076678  30.8765125  62.3176861  28.1048369  31.0773373
  61.3730669  27.0090151  31.5221381  62.4889135  15.6826079  13.7496161
  61.9402170  15.2967310  13.0667818  61.8770361  15.9052062  14.4512486
  24.0080929  26.0649514  37.3505569  23.9292336  25.6374621  36.4977598
  23.2870269  25.7045746  37.8667188  71.0433817  63.0915422  41.1508828
  71.6895867  63.4182710  41.7769056  70.7535172  62.2570414  41.5194112
  23.2681625  69.3175726   4.7204104  23.9548366  69.7404914   4.2048061
  22.4859874  69.3766647   4.1718310  24.4080591  10.0118315   3.2927907
  24.0139174  10.6284678   2.6758263  24.4436049   9.1837335   2.8140205
  63.8371420  22.7941775  29.8695683  64.1044426  23.5517669  30.3899956
  64.6580076  22.4281406  29.5402789  61.5400614  61.0425143  32.9098392
  62.2206052  61.2263065  33.5573816  60.7512160  61.4480012  33.2697511
   0.8688743   8.8628995   6.5192211   1.1293467   9.7254086   6.1960113
   0.5322708   9.0287280   7.3998070  43.1829818  47.7264796   1.3593716
  43.7487550  47.8484629   2.1217722  43.7887903  47.5906371   0.6308311
  64.7492695  14.6942961  15.0977051  64.5129061  13.7686145  15.1566827
  64.0238190  15.0967777  14.6202481  42.5432174  57.1379190  13.5877466
  41.6599481  57.2734695  13.9308107  42.8632705  56.3630455  14.0496635
  45.6615508  63.9574260  49.8200470  46.4711583  63.6680717  50.2408117
  45.3636682  63.1949181  49.3239814  31.0552502   2.3693393  37.5001645
  31.6218400   3.1234872  37.3374724  31.3560438   2.0203593  38.3391953
  26.3601589  19.7396660   0.8358182  25.4274035  19.9258649   0.9431975
  26.8016577  20.4739428   1.2626080  19.3588519  39.4428635   5.9000039
  18.5102892  39.0004635   5.9213895  19.2898905  40.0580692   5.1699352
   7.7181536   8.1288397  49.6729326   8.4664881   7.9866934  49.0932608
   8.0804533   8.6067963  50.4189444  58.3910848  73.3391974  55.4109764
  57.5107639  73.0246261  55.2052784  58.9751186  72.7188574  54.9747276
  59.8208110  54.6086829  25.3864050  59.8172347  54.6414726  26.3430357
  60.7415073  54.4874160  25.1543522  66.0328388  17.2073174  13.8665760
  65.2816343  17.7801704  13.7124324  65.6988764  16.5262699  14.4504213
  63.7718439   5.7801050  20.6634021  64.2952871   6.0777843  19.9193442
  62.8927422   5.6589520  20.3046036  21.4186446  66.9107722   1.4319733
  21.3610904  67.2643631   0.5443398  22.2958152  67.1521418   1.7295340
  27.0385695  19.4495928  39.5324802  26.1088467  19.6538317  39.4318247
  27.2785687  19.0159965  38.7135625  74.3089772  18.4395892  61.2764474
  74.8401928  19.1413111  60.9001118  74.5603323  17.6583666  60.7837581
  20.6201188  65.6881373  36.1261344  19.7994630  66.1197453  35.8884954
  20.5566041  65.5570834  37.0721912  10.2212870  34.9167156   2.1566279
  10.4594207  35.0924420   3.0669269   9.4957328  35.5152655   1.9790338
  68.0315685  24.7417736  43.5731411  67.3703098  24.0654302  43.4264040
  68.8435411  24.2556977  43.7168741  50.0131480  65.1912438  59.3515730
  50.9481733  65.0292878  59.2261791  49.8779409  66.0802459  59.0235090
  56.1940575  22.4280596  23.7457848  56.5270424  21.9814849  24.5241976
  56.8201303  23.1349373  23.5889792  31.2348239  52.0521133   6.9557667
  31.7736833  52.6979725   7.4126369  31.6667859  51.2153404   7.1273905
  26.0484283  65.9622561  51.5386915  26.4613168  65.3614848  50.9183455
  26.2215821  66.8328219  51.1804152  57.4367905  49.1389066  63.2264873
  56.8891597  49.9236793  63.2049508  57.1911574  48.6976761  64.0396370
   6.2459540  41.5734577  40.5179453   6.7482346  41.7465305  39.7217083
   6.5897572  42.1964645  41.1581755  19.3571822  69.3798505  43.7828016
  19.5212857  68.4448837  43.9058352  18.8724677  69.6429311  44.5651484
   4.4438927  51.9581025  52.9384899   4.9320619  51.1589854  52.7401590
   4.6383946  52.1354048  53.8587952  11.7717783  74.3229948  12.9463720
  11.0355656  74.8148047  13.3101630  11.9806282  73.6731171  13.6173952
  39.8298764  24.7413349  62.8878021  38.9871025  24.6934175  63.3390999
  39.6646190  24.3506908  62.0297098  69.5099640  47.2557378  61.1389079
  69.2572403  46.9933152  62.0240614  68.6825514  47.3153657  60.6613412
  34.7436094   2.5222218  37.6539898  34.0063906   3.1320116  37.6240706
  34.5164084   1.9057301  38.3500862  35.6100607  11.4728916  62.5128508
  36.4349580  11.0027719  62.6343536  35.8703351  12.3861170  62.3924017
  38.8419890  23.8526773   9.5431668  38.9547205  24.7864604   9.7208500
  39.6543980  23.4505749   9.8506343  21.5622966  66.6645091  46.4989281
  22.0853154  67.4015712  46.1836147  21.0832803  67.0146905  47.2500229
  66.9585896   3.9390683  37.7489042  67.3133755   4.7578463  38.0952597
  66.2824774   3.6861289  38.3774924  35.3310466  14.0840220  20.4928660
  35.2330637  14.8634708  19.9459755  34.6226454  13.5043728  20.2128553
  23.3573739  67.4748861  19.4200563  23.5589950  68.0071585  18.6504662
  24.1082732  66.8879269  19.5087194  51.1215496   7.6090592  27.3199010
  50.5089188   8.3428216  27.3700047  51.7522192   7.8690207  26.6484046
  19.6905296  68.2827990   9.0867174  19.7505014  69.2176561   8.8900518
  20.6004493  67.9925441   9.1502053  14.6068494  71.6024732   4.6413192
  14.0403287  70.8677631   4.4057682  14.0463750  72.3738023   4.5567495
  23.9850283  13.1693196  16.3391328  23.4033322  13.0526078  15.5879748
  24.4282103  12.3260128  16.4321721  42.3679924  14.0840888  46.5238476
  42.3084879  13.7103105  47.4030399  41.8455887  14.8849392  46.5681982
  72.3505974   0.6343246   2.8266263  71.8550539   0.4681024   3.6285219
  72.4443388   1.5864316   2.7960148  24.8825535  54.3476922  57.7362591
  24.3905434  55.0393540  57.2938072  25.4800066  54.8148150  58.3202767
  47.5485373   8.4433901   8.6616147  47.4929237   8.2133687   7.7341288
  48.1151390   7.7718425   9.0413743  57.5193739  16.0538828  34.1681194
  58.1587172  16.6414618  34.5708847  57.8623819  15.1759970  34.3351269
  55.6468296  29.9505210  16.1457038  56.3095474  30.3557920  15.5864239
  54.8207760  30.3399634  15.8589947  38.7292974  71.4125483  34.4338679
  37.9925124  71.1956053  33.8626313  38.3808915  71.3182407  35.3204060
  69.7297430   4.7997877  35.2598619  70.5145931   5.3457129  35.2128506
  69.9705887   4.0842628  35.8482909  12.6563017  50.5321877  19.7041655
  12.3205297  50.1783197  20.5277348  11.8780415  50.6518095  19.1598916
  24.6592641  13.2821238  10.0661612  25.2554440  13.1857991  10.8088064
  24.3870926  14.1993630  10.0949192  71.1280251   2.4113283  21.6766834
  70.2857351   2.5644535  22.1048546  71.7765617   2.5534952  22.3661900
  75.6336594  45.8582711  51.5576893  75.9885454  46.5757764  52.0825463
  75.0529862  45.3882164  52.1560997  43.7717645  73.8474848  28.6880231
  44.2703073  74.6629411  28.6358738  43.0064170  74.0681925  29.2188382
  24.7692983  66.0127466  16.1610663  25.4839151  66.1859940  15.5482543
  25.1441877  65.4080289  16.8013859  61.0063614  64.2683427  17.4069536
  60.8377077  64.0876191  18.3316839  61.7785348  63.7430041  17.1971929
  64.5876789   0.3805383  35.6502295  65.3806829  -0.1154745  35.8535814
  64.7849846   0.8188256  34.8224568  58.1808281  14.4400644   3.6749351
  57.9267979  15.0568438   4.3614367  58.3905268  14.9927163   2.9220513
  36.6059327  19.3717134  63.9540768  37.3506212  19.4820011  64.5452690
  36.6934156  18.4779310  63.6228228  30.3198600  30.2717638  24.1711855
  29.8395634  30.1323915  24.9873471  31.1909699  30.5530620  24.4509530
  29.7968595  46.5232437  29.8902535  29.9937837  46.8851369  30.7542467
  28.9215963  46.1467998  29.9820733  52.7710979  62.2037130  37.4150467
  52.7804439  62.7804880  38.1789017  52.3652332  61.3959746  37.7297831
  32.3089807  66.2666773  45.0850630  32.9541890  65.5604427  45.1192760
  32.7065723  66.9270437  44.5175505  66.4120961  56.1817915  38.6437446
  66.4776898  55.6685704  39.4490605  65.4922462  56.1107070  38.3886820
  12.9464380  65.9639292  14.5518899  13.7154691  66.5336900  14.5378518
  12.8583400  65.6582152  13.6491108  36.0207129   3.2471922  49.6209526
  36.2389731   3.8034242  50.3687477  35.7916522   3.8619623  48.9239454
  49.1664886  28.7288117  16.4471138  50.0382376  28.3338165  16.4308643
  48.9947510  28.9676738  15.5362451   5.5118358   5.6591123  29.9488664
   4.6696222   6.1036450  29.8524356   5.3527176   4.9852911  30.6098342
   7.2069423  73.2306603  16.4022660   6.3593380  73.2283210  15.9575224
   7.1519081  72.5070571  17.0264459  58.5601195  71.9901489   4.5909327
  57.6497515  72.2847952   4.5655194  58.9097859  72.2181310   3.7295449
  28.0405760  20.6949544  41.9082451  28.7132311  20.0139809  41.9147730
  27.4678707  20.4589176  41.1784983  45.2565289   6.1456311   7.5285059
  44.5264959   5.6061387   7.2248065  46.0362196   5.6266361   7.3311251
  75.9354830  54.2536706  50.7765823  76.8365097  54.4900114  50.9968656
  76.0044670  53.8071507  49.9327260  31.4247751  13.6147952  27.4108028
  31.7825437  14.5025027  27.4252295  31.9403553  13.1381667  28.0613661
  70.8038760  30.4163826  49.4536501  71.0933781  31.0365945  48.7845045
  70.4877663  29.6604300  48.9588338   9.0792768  72.0034187  42.9644012
  10.0325529  71.9203781  42.9398870   8.7672727  71.3746168  42.3136377
  65.3357172  14.5227897  19.2960966  65.3417206  13.9637864  20.0730848
  66.1082077  14.2517638  18.8000762  32.0282805  48.7322253  63.6759346
  31.9971562  49.5472282  64.1769684  32.9596931  48.5904795  63.5067889
  63.3512783  12.5060534  15.6083846  62.4271631  12.7104878  15.4653847
  63.3481503  11.8721533  16.3255966  76.5842632  13.8005245  35.3702950
  75.6667385  13.6886716  35.6190300  76.8516454  14.6128786  35.8002019
  49.5837609  73.7952741  48.0270910  49.0067975  74.5528710  47.9301834
  49.4905822  73.3163520  47.2035742  22.0138709  66.3062530  15.6851375
  22.9585664  66.2028914  15.7995892  21.6776721  65.4107933  15.6483424
  38.7344694  17.4282181  30.1901078  39.5892024  17.7551281  30.4708123
  38.4798098  18.0086470  29.4728327  67.3364075  58.4487646  10.3347874
  67.7918513  58.9593964   9.6654165  67.4297007  57.5403767  10.0478005
  30.1394288   6.7292453  63.4835239  29.2759244   6.3168193  63.5059102
  30.3453557   6.9038202  64.4018640  18.1831157   3.9974952  21.0652423
  18.1061828   3.7761417  20.1371717  17.2930861   4.2288369  21.3308740
   2.8675779   3.4602702  22.3990989   1.9561037   3.6984053  22.2295737
   3.2610830   4.2569944  22.7549362  30.5928922   7.7395666  36.4052701
  30.0962949   8.5549748  36.3364816  31.5048385   8.0034882  36.2830782
  15.6719613   5.8299339  17.1603227  15.2220607   5.8196890  16.3155043
  16.3465905   6.5021557  17.0642757   1.5482363   1.3674183  29.2758894
   2.3061689   0.8948459  28.9317226   1.8828520   1.8294522  30.0445151
  22.2919497   5.2954358  61.2648478  21.7149052   5.9534353  60.8771804
  23.0669340   5.2956528  60.7030356  60.5039930   0.8232198   4.1047618
  60.3838110   1.7726448   4.0852699  61.3262987   0.6762420   3.6373803
  76.8733311  22.9992461  38.8109708  76.1121798  22.4813581  38.5489225
  77.5594044  22.3516870  38.9728498  36.4682388  23.1429625  50.8219481
  35.8089280  23.5711408  50.2758694  36.3796544  22.2118115  50.6186247
  44.8790455  20.2845335  10.2897310  44.3733072  19.8741758   9.5882541
  45.7373428  20.4513216   9.9001908  56.3499498  11.7085266  59.8127699
  55.8751440  12.1935141  60.4877377  56.9292927  11.1235225  60.3009939
  15.3844056  36.9528862  57.8562313  14.7161946  37.4293433  57.3635703
  15.7239184  37.5937794  58.4809071  64.6823502  29.1492367  35.2501321
  63.8411093  29.1166306  35.7056308  64.6395826  28.4330010  34.6165633
  32.6136462  67.1700012  58.4350920  31.8602817  67.0197289  57.8640461
  32.2305123  67.4069380  59.2796659  21.1708140   7.4258101  22.7889538
  22.0469594   7.1508038  23.0590916  20.5835032   6.7903566  23.1982160
  66.8927510  60.2055495  45.7662964  67.2783263  59.6622830  45.0789642
  66.0391791  59.8070054  45.9360266  38.1687181  62.5410252  41.4402103
  38.6993234  62.1348624  42.1255732  37.3265187  62.0888393  41.4897537
  45.8047104   7.7303785  22.2402835  45.4101896   8.1868947  21.4971995
  45.0596428   7.3869860  22.7334213   0.7024281  71.5802761   2.7635092
   0.6117861  71.8978279   3.6619395   0.8281414  70.6357734   2.8548491
  19.6362607  72.3269137  20.0060534  19.8670451  71.5093382  20.4471207
  20.3527944  72.4768953  19.3893552  31.1664598  68.1080322  60.4478359
  30.2309816  67.9482018  60.5726194  31.4591329  68.4792500  61.2801647
   6.7149178  40.9598632   8.8299078   7.2539918  40.1908975   8.6446470
   5.8522622  40.6025101   9.0405172  20.8985934  48.6937350  58.5972196
  21.1440787  49.0746051  57.7540654  21.4343819  49.1626781  59.2369520
  43.4799354  62.7184098  36.6751075  43.1572358  62.2695475  35.8936858
  43.5305564  63.6392253  36.4186573  34.0759294  73.6208679   2.4407928
  33.5319917  74.1934987   1.8999968  33.6326091  72.7729789   2.4128182
  10.0437276  64.4315462   5.4432809   9.5739500  64.1973679   6.2437189
   9.5339005  64.0294259   4.7399977  57.0449543  11.3420451  20.5217600
  56.2257242  11.8132257  20.6736875  57.0513010  11.1701298  19.5801461
  19.7647560   2.3837541   5.4727083  20.2698636   1.8243822   6.0627949
  18.8530505   2.2347631   5.7233614   9.4383824  22.3299813  34.4363713
   9.0196329  22.2591949  35.2941990  10.0025213  21.5586853  34.3808532
  33.2766342  41.1186504  31.1865902  32.8167629  41.1530495  32.0253801
  34.0187311  41.7132998  31.2957358  17.1660440  48.5542886   5.7588470
  17.8544871  48.1518285   6.2882847  16.3501565  48.2727854   6.1727488
  74.4681175  74.3323586  10.5992067  74.2983182  75.2406805  10.3495038
  75.1721700  74.3891602  11.2452066  49.7225904   0.7816740  27.0901752
  49.2621803   0.2859450  26.4130425  50.6056499   0.4124027  27.0986700
  73.8328791   0.7987112  61.0256213  73.1582451   1.2080974  61.5673825
  73.5284281  -0.1004249  60.9027624  40.4659986  16.7439008  18.4551954
  39.5513177  16.9672871  18.2828915  40.5155420  16.6545606  19.4069278
  32.6628709   6.9671106  16.3454902  32.2792697   6.4469951  15.6394005
  32.2571921   6.6253930  17.1422887  54.5886707   5.4142100  18.0789769
  55.0861549   6.0247576  18.6230099  55.2204132   5.1005751  17.4318564
  75.9749945  59.4454055  54.8491240  76.3879712  60.0176852  54.2024565
  76.4949711  59.5671909  55.6434965  55.2925869  59.8553782  62.5138092
  55.6234475  60.3896945  63.2357979  54.3478976  59.8114674  62.6616812
  15.9737074  28.7145710   4.7562736  16.1751878  29.5213675   4.2822313
  15.0878203  28.4861994   4.4747025  26.4108197  53.4917848  24.3946743
  27.2482745  53.1716006  24.7299123  26.5822713  53.6930292  23.4747100
  56.3969612  20.3996491  11.2218356  55.6177807  20.9547091  11.1898959
  56.1104345  19.5632815  10.8549249  13.6553304  71.9090306  25.6585860
  13.4317414  72.6816546  26.1775208  14.4355457  72.1675732  25.1680255
  38.2734036  23.7237048   6.7289400  38.3474135  23.5506725   7.6674569
  37.3548722  23.9605618   6.6007620   3.4398398  32.0934308  58.7868756
   2.5455412  32.2455436  58.4813905   3.5467848  31.1429018  58.7509739
  20.4945771  63.1307392  19.9726605  20.7628123  64.0406447  20.1005411
  20.2626149  62.8239684  20.8491969  31.1192155   3.7743467   5.8555043
  30.3749585   3.3303031   5.4491341  31.8842673   3.2847342   5.5534995
  49.6791124   8.1829005  51.6644430  50.3865242   8.1251699  52.3066807
  48.8892508   8.3131951  52.1892023  72.9142769  59.8640685  55.9283352
  73.3059557  58.9925950  55.9862375  72.5729139  60.0320749  56.8066692
   2.3126062  10.3610790  27.3254466   1.8970808   9.6273047  27.7783728
   2.3348078  10.0937796  26.4065933  26.2775819  65.4819440  28.8137650
  26.4270847  64.6541076  28.3570743  26.3206451  66.1461531  28.1258678
  77.3041010  17.0048153  61.7221880  76.5025949  16.9060147  61.2083197
  77.6634216  16.1193836  61.7781258   3.4360823  26.6855687  52.1971076
   3.3958039  25.8132237  52.5890547   3.5080370  27.2804374  52.9435557
  67.8827715  36.7519951  15.9509325  67.1607161  36.1425495  15.7978225
  67.6201296  37.5531888  15.4977906  64.9263620  11.5693331  33.6734295
  64.1259670  11.9775867  33.3433843  64.9825335  10.7375979  33.2030106
  66.9836760  13.1636727   8.6457753  67.3267984  13.9302778   9.1049236
  67.6803398  12.5109744   8.7155998  22.9519305  62.3145312  62.9413263
  23.7589154  62.1082729  63.4129879  23.1686863  63.0897898  62.4234241
  29.1575925  47.1140211   3.3064994  28.9154021  47.7454226   3.9839262
  29.2272489  47.6355474   2.5068808  52.9559183  16.0076773  42.6853848
  52.8056812  15.8777249  41.7490244  53.1714344  15.1358652  43.0166435
  62.6833010   6.4574587  35.5630445  61.8878937   6.0299397  35.8805132
  62.8213072   6.0889870  34.6904540  77.1112013  21.2196302  11.1659360
  76.6230869  21.4080572  11.9674778  76.4362669  21.0484552  10.5091333
  29.3550746  69.3985300  27.3370814  29.3356340  70.0716792  28.0173182
  29.1101567  68.5921769  27.7910018   4.4151816  29.0372044  56.4426070
   4.1689572  28.7847591  57.3324811   4.1099676  28.3136761  55.8952665
  26.2175910  70.6285342  28.6851215  26.4829700  69.8671298  29.2009401
  27.0386712  71.0732310  28.4746504  60.3027534  28.6180663  22.1989679
  59.6048641  27.9895973  22.0140123  59.8431158  29.4218826  22.4415469
  56.4918232  48.1568527   8.2622641  56.9421530  48.0652857   7.4225903
  56.8676901  47.4691868   8.8118738  78.3612680  53.7108088  10.4561341
  77.5921822  53.6478376   9.8897648  78.4757900  52.8263426  10.8037496
  51.4545059   5.6318533  29.8580384  51.8768406   6.1512429  29.1738605
  52.1308756   5.5205542  30.5261469  39.7081828  21.0100174  16.6361451
  39.9842238  20.1781917  17.0209813  40.0540543  21.6755438  17.2308540
  73.4158373  20.1032615  15.2343798  72.8584433  19.3903494  15.5463099
  72.8098059  20.8245564  15.0649869  72.2531891  19.6713567  45.7332611
  72.0972395  19.7616839  44.7931814  72.2708416  18.7261677  45.8833933
  56.4712620   3.0228424  52.5143147  57.0664787   2.5700954  51.9168425
  56.6923141   2.6781029  53.3794832  18.2517084  20.5822539  35.3274703
  18.9228949  20.1811624  34.7753263  17.4344954  20.1681995  35.0500631
  47.8038916   8.0246115  15.5688441  47.3016104   7.4233550  15.0189018
  48.4962591   7.4821407  15.9464526  53.2808781   3.9922813  25.0446534
  52.5087214   4.4472030  24.7084236  53.0767155   3.0631763  24.9382925
  38.3586264  20.4582429  37.8291655  37.5518513  20.1390338  37.4248743
  38.8800931  19.6695435  37.9783535  43.1254339  14.9317801  26.6753960
  42.5455379  15.2888060  26.0027218  42.7556801  15.2446258  27.5010133
  43.4886186  71.9525122  19.8133957  43.5954635  72.8746595  20.0467610
  43.3505361  71.9595920  18.8662338  64.3502903  23.7383604   1.9861148
  63.4074545  23.6653185   1.8379468  64.6808481  24.1878915   1.2083709
  77.8374577  26.5931797  24.8896194  78.7673235  26.5572715  25.1138926
  77.7081442  25.8613300  24.2863727  11.7531769  72.4783944   7.6970112
  11.3033693  71.7381762   7.2896039  11.3447325  73.2511141   7.3067445
  62.2684050   5.8398706  13.3577001  61.5608358   6.4231867  13.0832601
  62.3652363   6.0055017  14.2954755  35.8930850  18.8048410  13.4019315
  36.4345813  18.3335328  12.7687788  35.3979206  18.1195199  13.8506818
  78.8418674  36.4774489  16.5445995  79.1434813  36.9543338  15.7713985
  79.5833778  36.5078855  17.1491349  65.9655952  12.1387982  13.9992571
  65.4598236  12.0326912  14.8049653  66.8789339  12.0931959  14.2820442
  49.8673868   6.3926244  44.9433374  50.5458117   5.7178235  44.9680281
  50.0481892   6.9420511  45.7060099  71.1031723  55.6489700  64.9784685
  70.3537798  55.3427261  64.4677263  71.7235947  54.9204749  64.9538368
  71.1110353  18.6638606  36.9935584  70.8023930  17.8739965  37.4375010
  70.3293657  19.0241563  36.5747356  50.0064802   3.5359460  54.1352987
  49.6522093   2.7211827  53.7790918  49.3656301   4.2032683  53.8898993
  42.5695865  64.6549564  12.9567003  43.0947654  64.3765323  13.7069654
  42.8157632  64.0521424  12.2551000  37.5950837   6.9413555  40.4482365
  38.1878662   6.1977339  40.3392935  38.1445575   7.6339102  40.8152199
  72.4223089  36.8329144   9.0573728  71.5401936  36.4879441   8.9191848
  72.4526644  37.0462847   9.9899948  42.5299358   5.4381669  30.8585310
  43.2377768   5.0404686  30.3515530  42.4749899   6.3355654  30.5300665
  11.5887102  66.9772863  17.8592515  12.3793158  67.0454264  17.3239660
  10.9862837  67.6167059  17.4791789  56.5337133  60.2729940   4.0079251
  55.8435678  60.6670380   3.4743920  56.1152077  60.1000214   4.8512322
  62.6541471  21.5196204   4.7336400  61.7800999  21.8965030   4.8348051
  62.6669312  20.7784176   5.3391862  70.2272463  42.7733922  64.7196713
  70.5163431  43.2581204  65.4927790  70.2259016  43.4227968  64.0164616
  55.8395004  24.9000740  37.5579906  55.7220221  24.0689969  38.0181456
  55.4486656  24.7541738  36.6964841  22.5650518  63.4929721   3.2221124
  22.3304717  64.1769807   3.8492775  23.4316175  63.1982284   3.5021454
  73.0029678  18.8359129  29.4339967  73.7838078  18.9792323  28.8992214
  72.4256563  18.3113933  28.8791800  72.2010422   5.0624436  26.7267108
  71.8621445   5.3021926  27.5892067  71.4261770   4.8015532  26.2289572
  76.3603258  19.6243250   5.1797539  76.1924696  20.0048232   4.3176183
  77.2757006  19.3466425   5.1449013   6.8083700  19.0514541   9.1829282
   7.2613844  19.2873025   9.9924922   7.4799570  18.6298740   8.6467594
  13.6875948  66.4388699  62.8284536  13.9102969  67.2176284  62.3183802
  14.4508633  65.8680958  62.7397273  45.3146744  20.9266758  21.9616556
  46.0013866  20.2735829  21.8270254  45.4674864  21.5792727  21.2782836
  35.9317558  68.0359190  37.1998739  36.2613122  68.1876825  36.3141012
  35.3250520  67.3013877  37.1071219  70.6024075  12.8831637   0.5257176
  69.7103024  12.7072906   0.8247997  71.1407518  12.2397196   0.9865826
  23.5982625  46.3844364  21.4868164  24.4124858  46.8875330  21.4997554
  23.8648860  45.5040329  21.2221766  78.0842352  74.6068859  26.6619110
  77.3585033  74.8023176  26.0691619  78.7070751  74.1172934  26.1246943
  18.0951230  18.8705407  14.0563244  18.1736295  18.0945765  13.5013908
  18.9876906  19.0412723  14.3569941  25.0824086  70.6177606  37.0455837
  25.1502673  71.2373810  37.7720118  24.7273891  71.1345707  36.3223243
  56.2897587  23.3634353  19.2251325  56.9788122  22.8880978  18.7609208
  55.8949280  22.7097797  19.8022592  73.4380865   3.4468523  29.6681285
  72.9507446   4.2650110  29.7648001  73.1711531   2.9187375  30.4205084
  51.9238138  19.6063960   5.0025314  51.8959332  20.1166439   5.8119148
  51.4128113  20.1206326   4.3774945  60.1837826  24.7180462  27.5963068
  60.9569979  25.2307224  27.3606491  59.6283293  25.3303623  28.0787730
  55.7583761  22.6869583  39.0081239  56.5623093  22.2596002  39.3035722
  55.3372908  22.0399928  38.4421229  23.0311505   8.4220172  61.5869769
  22.8626840   7.9190017  62.3837393  23.6063687   7.8610565  61.0667115
  41.2309361  11.0151017  61.8476200  40.9960222  11.5225923  61.0707664
  41.8177462  10.3335083  61.5200281  16.9063775  69.5377325   2.1841802
  17.0874087  69.1885446   1.3115251  16.0046022  69.2730318   2.3657410
  14.2577538  70.3719396  55.4989320  13.9661154  71.1237473  56.0146540
  15.1608786  70.5809659  55.2603847  63.1722546  18.6803997  33.9238691
  64.0960169  18.9073253  34.0306497  62.7207279  19.5237601  33.8907290
  40.1695967  11.7974865  19.1953981  40.4543209  12.4495912  19.8356521
  39.9660611  12.3057020  18.4102106  54.4959354   6.3600218  24.6853089
  53.7817574   6.6226417  24.1046095  54.2572403   5.4796654  24.9755335
  36.3403153   3.6025554  40.9994555  36.7394090   2.9589808  40.4139900
  36.0379744   4.3002331  40.4180193  57.8522348  26.1269188  32.2101116
  58.5523701  25.6555939  32.6616621  57.3562479  25.4440022  31.7586112
  32.1114159   5.9402859  47.4135447  31.3299823   5.5736548  47.8272724
  31.7779541   6.6334271  46.8438148  51.7460108  28.0554652  16.7650688
  52.2322941  28.8706899  16.6418982  52.2475672  27.4015093  16.2782276
  60.7237816  46.7322683   5.4013193  60.8153963  47.5985098   5.0044960
  60.6142473  46.1388254   4.6583158  69.2822266  10.3043258  12.7766931
  68.5318804   9.7739631  12.5085020  69.4820786  10.0052881  13.6637485
  16.1457905  58.3404058  65.1184657  15.6739840  58.5347218  64.3086074
  16.3908944  57.4186582  65.0375981  56.8095446  10.0041819  22.9460192
  57.3473978  10.5082393  22.3353863  57.1033669   9.1001081  22.8339839
  75.1714182  12.2833014  43.6400700  74.4589949  11.6976082  43.8962889
  74.7320747  13.0848634  43.3559799  10.5109501  16.2918198  27.9683304
  10.7323074  16.5048420  27.0617700   9.6615827  16.7091846  28.1119013
  50.7103586   7.6140887   5.1815867  51.5218306   8.1085140   5.2968860
  50.7556438   7.2854590   4.2837092  10.0701794  63.1577677  59.5704114
  10.9808573  63.3345479  59.8063105  10.1272806  62.6266331  58.7761402
  73.1015444  34.7253537  48.8660240  72.7430248  34.6878195  49.7527504
  73.9379168  34.2637205  48.9260960  62.4893999  29.8956013  23.7506056
  62.0255327  30.0209808  24.5784569  61.8802118  29.3946958  23.2081866
  51.4597034   4.1243449   0.7248761  52.3445272   3.8501483   0.4837565
  51.0802746   4.4528180  -0.0902128  40.2556705   5.7253784  40.9689760
  40.4508638   5.6381923  40.0359535  40.2222586   4.8248962  41.2918472
   0.6924662  55.4622173  18.2435310   1.1504969  54.6909428  18.5775769
   0.4993185  55.9825325  19.0234005  15.1021242   8.1351047  37.2627062
  15.2266502   8.4344727  36.3620943  15.8983135   8.4085804  37.7182669
  44.6539800  65.6204729  41.5484953  43.8023727  65.4740213  41.1367273
  44.5259969  65.3630691  42.4615097  47.2535276  52.0432901   6.3769329
  46.3937521  52.4154282   6.5732145  47.7517843  52.1510744   7.1870899
  26.1477447   9.8603737  61.9470739  25.4517055  10.4931903  61.7701387
  26.7481518   9.9516100  61.2071991  43.7437248  19.8872435  23.9461827
  44.3958855  20.3002310  23.3801794  42.9302740  19.9274111  23.4432721
  71.8453853  74.4438692  52.7542925  71.5971152  75.2642243  52.3281384
  72.2252814  74.7137209  53.5904074  19.3054709   5.2873719  27.6740766
  20.1109442   4.8683017  27.3710728  19.6037897   5.9921485  28.2489920
  16.8843031   7.7899688  10.3570724  16.1654985   7.3824400   9.8738825
  17.5337124   8.0020398   9.6866065  53.6536360   4.7955719  27.8609204
  52.9169703   4.2408273  28.1174731  53.7500000   4.6459240  26.9204140
  63.4703445  26.8223286  52.6891518  64.1816521  26.4915395  52.1406460
  62.7775192  27.0522642  52.0700026  46.2366343  55.2907562  20.9649444
  45.6718969  55.8997250  21.4408207  46.1735201  55.5696058  20.0514388
  25.3016822  59.9802976  36.4182615  25.1226918  59.0587585  36.6052389
  24.6234386  60.2337842  35.7921934  31.3230912  64.9349170  17.8287923
  30.6568687  65.0134020  17.1459913  32.0918243  65.3741460  17.4649763
  43.8436954  70.0447981  38.9793682  44.6081607  70.4430296  39.3955827
  43.0950992  70.4819648  39.3852234  75.4922819  21.5677023  22.7642655
  75.4636717  20.6150675  22.6753664  75.2191019  21.7323446  23.6667609
  43.3981228  17.1138668  46.1467409  42.7078772  17.6618004  46.5203190
  44.0693903  17.7344799  45.8630610  52.4108934   3.6928579  18.9211178
  53.0184364   4.4324505  18.9098072  51.5826035   4.0585291  18.6105549
  79.0449858   6.3375235  40.7721472  78.7777424   7.2563362  40.7477331
  78.2537222   5.8647156  41.0301876  32.9656863  23.6674929  42.2251225
  32.2102332  23.1873465  42.5642157  32.6838231  23.9817381  41.3660336
  37.9259181  62.2000456  15.6887722  37.4986649  61.3489342  15.5923426
  37.7867866  62.4353218  16.6061163  67.5456285   0.4209799  21.0132217
  67.2570419  -0.2332437  20.3768706  68.4293222   0.6564721  20.7306361
  52.5777912  14.3466163  16.6606116  53.5217476  14.3616450  16.5026510
  52.1929359  14.1938269  15.7976079  65.5863047  33.6725473  17.8348911
  65.2913189  33.2634306  18.6484265  64.7790861  33.9340568  17.3918998
  66.4586401  31.8502212  14.8844695  65.6016922  32.2753215  14.9185824
  67.0856476  32.5673318  14.9785280  73.0142403  25.3728867  61.1181164
  72.4845791  25.2868104  60.3254747  73.4697437  26.2080789  61.0122776
  48.2662590  57.5299739   3.6991114  48.9988835  57.5479351   3.0833429
  47.5313599  57.8970431   3.2077736  59.9166679   7.0925021  13.2475543
  60.1749039   7.8040892  13.8333774  59.0570068   6.8189043  13.5674870
   5.7737438  58.8876717  35.6560040   6.4092509  59.4705539  36.0714674
   6.2274711  58.0475216  35.5888486  27.1856420   5.5299713  41.9737297
  27.1448629   4.5742942  41.9382626  26.3211934   5.7950927  42.2878486
  55.3378916  21.9670534  32.8284693  55.1432133  22.8157306  32.4308825
  54.5728493  21.4276910  32.6283979  32.8487086  18.5218978  39.3327117
  32.7311230  19.4717383  39.3471289  32.6932335  18.2751203  38.4210324
  11.6334662  34.3401456  34.0667558  11.6700491  34.6510863  33.1622052
  10.8360132  34.7320771  34.4226813  53.5690689   3.6430392  11.1314869
  52.8151226   4.2274892  11.2103558  53.5353899   3.1009611  11.9196796
   1.0404715  16.6137218  21.1426234   0.4893431  17.3869622  21.2633872
   1.1654982  16.5542614  20.1954889  37.6935117  64.0866487  38.9716077
  38.3255832  63.3707910  39.0368915  37.0997874  63.8187127  38.2702255
  54.5572154  74.6127680  19.2443419  54.7440498  74.2600185  20.1143384
  54.3659370  75.5381387  19.3971002  22.4112909  63.3208590  40.8050728
  23.1265561  63.2869296  41.4402676  22.4339120  64.2158859  40.4664803
  17.3628268  39.6605614  56.9175601  17.6260266  39.1088736  57.6541733
  16.4493641  39.4245532  56.7559546   3.5873064  40.4434252  28.0993009
   4.2197069  40.4620647  27.3810053   2.8482851  40.9620190  27.7812767
  60.9094667  29.0314364  28.9175534  59.9909544  28.7677455  28.9726257
  61.3992262  28.2142687  29.0103340  50.1683664  12.5332427  35.9052038
  49.3378639  12.9413331  36.1500597  50.0493097  12.2780728  34.9903560
  64.6201897  31.8618059   3.8099587  65.2107525  32.5941920   3.6336753
  64.6470928  31.3348484   3.0113199  51.6815853  43.6049032   7.1479553
  51.7498684  44.1858387   6.3902736  51.0815334  44.0556717   7.7420765
  57.3085451   7.4983352  10.8971381  56.7150927   6.8353015  11.2498891
  58.0361986   6.9970244  10.5291152   2.6453528  34.4374970  51.7693943
   3.3401808  34.2350474  52.3958629   2.1669850  35.1640442  52.1687978
  65.5690956   6.2808555  33.2039690  65.4695225   5.4402620  32.7570677
  66.0779047   6.0762316  33.9884901   7.8319344  38.7665870  59.3292600
   8.0704436  39.6808854  59.1762811   8.0741724  38.6052176  60.2411329
   7.9098639  18.1964850  16.6197729   8.2972559  17.8796196  17.4357116
   8.6296495  18.1760812  15.9891272  32.4228859  25.9318519  46.7904568
  31.7758131  26.6332293  46.7156363  32.8113532  25.8702803  45.9177971
  63.8264370  28.2146263  39.2158008  64.0502024  28.1016564  40.1395988
  64.4258976  28.8932562  38.9054155  73.3547735  15.1962364  31.9802260
  72.9551458  15.1597333  32.8492498  74.2193317  14.8024952  32.0974445
  38.9784837   5.9253627   5.9874290  39.1010833   6.5769649   6.6778028
  38.4616089   6.3773626   5.3205198  30.6469679  10.7015264  36.6201758
  30.4102087  11.6288495  36.6359663  31.3040900  10.6103206  37.3101759
  33.6654449  18.1077635  18.7814593  34.5028830  17.7488041  19.0748441
  33.1944585  17.3551929  18.4236312  48.1032436  71.5767201  58.0320978
  47.6994531  71.2869342  57.2140455  48.0893771  70.8017289  58.5937262
  28.4371662  15.5048370   3.8579419  27.7699494  15.9398067   3.3270431
  29.2030382  16.0755277   3.7948248  18.3028857  52.0551239   2.1189207
  17.6885287  52.7288376   2.4103111  18.5013978  51.5537881   2.9097981
  52.6639843  15.7780719  19.2093730  52.2132254  16.3338935  18.5736740
  53.1638336  15.1604593  18.6755788  69.2147923  43.1132936  16.9642687
  68.5431099  43.1111336  16.2823069  68.9832020  42.3773909  17.5308764
  27.8086297  68.7910609   3.1420025  27.8573577  68.1608151   3.8607851
  28.0581109  69.6259462   3.5381815  63.5725737   3.2853881  21.8001175
  63.3101177   4.1718683  21.5521240  64.5089340   3.2493469  21.6047668
  47.6881599  22.5046158  14.2525339  46.8574429  22.3560166  14.7042632
  47.7032471  23.4464860  14.0825868  48.2539654  10.5594969  27.7054834
  47.8476334  10.8033073  26.8738079  48.1356764   9.6112555  27.7609563
   2.2377428  28.3100891  25.7555580   2.6259550  28.8031507  26.4783382
   1.6413054  27.6931024  26.1796141  65.2717305  44.0330172  58.9289361
  65.1440549  43.5923612  58.0888450  64.5491624  43.7224704  59.4745433
   3.1670508  62.7144879  44.2118913   2.4326310  62.3149771  43.7457901
   2.7972302  62.9893464  45.0508886   7.2996315  66.0511250  64.9058229
   7.3601326  66.6386718  65.6590567   6.5421709  66.3689250  64.4144043
   6.7203840  12.5336969  21.2229061   7.3114618  12.8629100  20.5457997
   6.9423136  13.0425823  22.0026588  28.0593801   9.8816735  35.5807376
  27.4563909  10.6143045  35.4546833  28.5324717  10.0964403  36.3846588
  37.3671357  69.2485594  23.0411243  37.9520099  68.5024958  22.9086709
  37.8174035  69.9829333  22.6237702  62.8716707   1.8804452  37.8533626
  61.9558096   1.9717728  37.5905156  63.2582140   1.3170642  37.1829772
  51.1763334  22.5224876  22.7012897  50.3901768  22.0018840  22.8660965
  51.1350298  22.7296877  21.7676973  15.4915651  31.5059805  53.6321115
  14.8327192  31.0127616  54.1208649  15.8051714  32.1652961  54.2511272
  61.9597769  67.2204018  22.8843236  61.5571451  67.4991846  22.0618868
  62.1637106  66.2949419  22.7495360  44.7256947   3.3913746   7.7312809
  45.4959345   3.8515094   8.0648124  45.0765514   2.5954884   7.3316580
  55.7619190  17.8551054  19.8925781  55.0137234  18.4454393  19.9816871
  56.3275003  18.2808256  19.2482877  47.6778984  14.1333628  27.1936321
  46.7634296  13.8687599  27.2934675  47.9879284  14.2663074  28.0894208
  72.4145763  70.1868783  23.9330125  71.6164462  69.7832232  23.5920048
  72.9069488  70.4407405  23.1524014  75.2963209  38.6459899  15.1167405
  74.6072912  38.0932069  14.7480965  75.2976942  39.4275522  14.5641172
  24.4345364  62.1095652  59.1565311  24.4121870  62.0388598  60.1108551
  24.7495684  62.9978675  58.9894867  79.6170521  27.7874517  21.4143944
  78.9775085  27.3914695  20.8224368  80.3537560  28.0208969  20.8495975
  45.3428555   9.8733395   5.4939651  45.0283575   9.2950666   4.7990373
  46.2479639   9.5994073   5.6422043  73.7189674  13.3222854  10.4873550
  74.5103073  13.3067214   9.9490565  73.9793873  12.9043591  11.3081777
  51.7914724  17.6069570  10.9941602  52.0011473  16.6738021  11.0327613
  52.5790405  18.0430579  11.3194025  17.8548082  27.5273919  15.7720327
  18.3437475  26.7631435  15.4669154  18.5195383  28.2062745  15.8881760
  63.7021732  20.2540612  19.1870332  64.0638304  21.1296964  19.3237627
  63.4064102  20.2565479  18.2766759  78.4054804  36.9528389  33.4247446
  78.0028296  36.5417981  32.6597953  79.3285894  36.7053056  33.3715582
  48.1886721  41.8847656  11.6795337  48.9399338  42.4541807  11.5133750
  47.4824190  42.4842501  11.9204795  44.4686286  69.7247456  42.7501583
  43.7122361  70.1528489  43.1511879  44.0911834  69.0426712  42.1946907
  73.4638786  69.7728395   6.6511458  74.3422985  70.0205517   6.3626063
  73.4332752  68.8229561   6.5370601  69.8040056  46.1734152  43.9576817
  69.5406580  45.3349543  43.5783815  69.2751217  46.2538862  44.7514296
  71.5503740  33.7185335  45.1089954  71.2073994  33.6744165  44.2164373
  72.4891043  33.8689637  44.9976969   6.2316164  35.4589558  21.6910720
   6.0659441  34.8556137  20.9666681   7.1733030  35.3911018  21.8487000
  60.9633303   9.0216583  47.5343275  60.9331608   9.9138349  47.1888685
  61.6128016   9.0585446  48.2365084  14.6082911  48.4569216  28.5010552
  15.3567061  47.9133320  28.7472367  14.4094214  48.9619398  29.2894959
  74.5213413  42.0346308  18.1483305  73.6820078  42.1864653  18.5827160
  75.1701164  42.4126196  18.7420094  26.2546572  15.5739200  58.3723497
  26.7169031  15.2085662  59.1267204  26.1733183  14.8402631  57.7629566
  21.2411913  46.2458992   9.3246388  21.7138800  45.7886648   8.6291260
  20.4065069  46.4914322   8.9255846  53.5919094  20.1985621  21.8648505
  52.7437162  19.9368501  21.5066481  53.4356213  20.2953577  22.8042316
  21.7170080  44.8003626  39.8324561  21.3641390  44.8316622  38.9432216
  22.3627314  44.0941572  39.8091745  41.3102166  72.2199284   1.7225461
  40.6291835  72.5373410   1.1295230  41.0291211  72.5135951   2.5891361
  70.4391050  25.0202513  32.5463367  71.1207438  25.6870890  32.6295543
  70.1179028  25.1166606  31.6498041   0.1038345  48.5779476  44.7451019
   0.8890852  48.1553507  44.3972158  -0.4497210  47.8529644  45.0353003
  13.0373129  68.2232380   5.1906747  12.5499281  68.6140108   5.9159267
  12.5277170  67.4499083   4.9487847  56.9981956  24.3770361  29.7804165
  56.7505550  24.7497606  28.9342570  57.4180794  23.5450387  29.5619869
  31.5332064  74.3039370  19.6508682  30.8302340  74.5252895  20.2616572
  31.4196714  73.3682680  19.4839358  32.4999475  25.2058816  18.6302435
  32.7854538  25.9959865  19.0889955  31.8740964  24.7954106  19.2269468
  53.2480955  19.6978998  35.7534838  53.9525747  19.1423535  35.4198503
  52.4468136  19.2962003  35.4176021  58.6763477  31.3259029  16.2049747
  59.3175888  32.0365524  16.2007761  58.4412766  31.2099671  15.2843595
  10.7371935   3.8500115  61.1070681   9.8867163   3.8187003  60.6689548
  10.6169828   3.3289292  61.9009542  71.6765308  44.2495632  18.4479415
  70.8274174  43.9748526  18.1018627  72.0069408  43.4796572  18.9108694
   6.5483221  73.1637144  25.4001713   5.8579859  73.4526062  25.9970045
   6.0824713  72.7160740  24.6938896  66.8004990  27.9196191  37.4765563
  67.6163912  27.8884363  37.9761314  66.3381720  28.6839795  37.8204155
  72.7825308  67.0833540   7.5522894  71.8816376  66.7625761   7.5107569
  73.0440664  66.9456577   8.4627116  75.4584837  58.3748955  63.2407719
  75.4528237  58.7065977  64.1386435  75.5454731  59.1576833  62.6967960
  59.9006939  32.0209885  13.2147229  60.2151155  31.1511517  13.4612024
  59.3441486  31.8670583  12.4513125  71.5915775  25.2008390  40.9320211
  70.7355499  25.5100203  41.2284279  71.9646549  24.7602940  41.6955423
  64.0362740  25.3902984  49.8454094  63.0865002  25.4846787  49.7729206
  64.1984510  24.4624329  49.6751261  76.1151886  20.6948543  46.9357777
  76.3138676  21.3563228  46.2730455  75.2634335  20.9553337  47.2863436
  46.9764075  48.2767684  63.6380568  46.2421927  48.6631161  63.1606686
  46.9920287  47.3626662  63.3544996  76.2169106  40.9573938   4.5100779
  75.3233607  40.9397285   4.1673178  76.4361413  41.8878399   4.5594734
  77.1470690  23.8821173  23.9618897  76.5890074  23.1701279  23.6490464
  76.9571543  23.9415765  24.8981762  77.0151186  44.9863482  40.6870317
  76.9975996  45.8862495  40.3612995  76.4047623  44.9865961  41.4243889
  13.0757841  21.4629030  34.4144821  13.0724367  22.1190953  35.1113534
  13.6756262  21.8149686  33.7568617  70.3158379  35.9248590   1.3432671
  71.2260818  35.6628704   1.4812817  70.3702641  36.6815591   0.7595952
  73.5267448   6.0971028  31.8372655  72.7077675   6.1060601  31.3418555
  74.2037582   5.9442616  31.1780810  30.5980349   1.2447082   9.8100811
  30.1795650   0.8157738  10.5564928  30.7756710   0.5339334   9.1940641
   9.1098913  31.2010646  12.7827895   9.5475897  30.4349852  12.4116123
   9.3644365  31.9237471  12.2090602  73.7816095  54.1339779  33.0516958
  74.0012646  53.2054329  33.1277347  74.2448187  54.4261694  32.2666526
  58.7253666  32.7596998  28.6485100  58.0085421  32.4518514  28.0938721
  58.2918787  33.2257676  29.3634224  68.2545900  33.1029654  47.1008015
  67.9958248  32.6617122  47.9098558  69.1175890  32.7425694  46.8968964
  72.0688009   6.2898701   1.4752030  71.4235830   5.9829628   0.8382314
  72.9142046   6.0606468   1.0892221   1.6503653  41.3802624  42.0950270
   1.3807901  40.5157423  41.7849302   1.1416945  41.5174103  42.8941965
  74.8888731  26.7801404   8.8510519  75.6904411  26.3421440   9.1371894
  75.1789951  27.3933649   8.1757635  49.3840361  10.8252025  18.8233650
  48.7171888  11.2755668  18.3049822  49.0911198   9.9143434  18.8510883
  33.2900111  49.9637483  12.5238508  33.2572238  50.6285261  11.8359369
  33.8834636  49.2948173  12.1823973  64.7483921  29.8448086  13.8968372
  65.0296736  30.6435919  14.3429983  64.9484968  30.0026751  12.9741943
  58.7836695  23.1719255  57.6735449  58.9518309  23.9564919  58.1954765
  59.1068125  22.4509597  58.2139301  42.0943403   5.8400786  15.1461637
  42.6621866   6.5753102  15.3768504  41.4589167   5.7948595  15.8605993
  67.9560804  28.1059003  32.0512080  67.1672726  28.4361053  31.6211152
  67.9919243  28.5796070  32.8822017   5.6352552  46.2256336  46.6417313
   5.2150759  46.0780382  47.4890232   5.6435141  47.1774864  46.5410519
   5.1629099  39.2776513  42.0101881   5.4129824  40.1183414  41.6268682
   4.6611437  38.8404965  41.3221788  72.7030373  38.7516189   7.4552101
  72.5398540  37.9246521   7.9087853  73.3701897  39.1878629   7.9851437
  13.0088648  40.7332516  21.0002685  13.4657606  41.1905956  21.7061830
  13.4857306  39.9092889  20.9006786  63.6610556  42.0824242  39.8213124
  63.7708330  42.4819374  38.9584279  63.6102724  41.1428738  39.6455336
  63.4613466  13.6160362  40.9789038  63.0913925  12.8245437  41.3699293
  63.9523220  14.0275705  41.6901112  71.1679173  53.4124470  46.4351511
  71.9770145  53.2547998  46.9217110  70.9544373  52.5651073  46.0444164
   2.4891790  12.4650240  46.3217449   3.2258734  13.0225599  46.0714054
   2.7701887  11.5793276  46.0919476  67.9861116  66.4905548  39.1887426
  68.2658768  66.5063620  38.2734776  67.1149254  66.8870211  39.1797853
  47.1908188  35.4133081   9.2045945  46.5869713  36.1451244   9.3312800
  47.9123449  35.7834268   8.6960220  25.0224034   5.9844024  24.7505474
  24.3299548   6.3320072  25.3126144  24.9211804   6.4581306  23.9249778
  54.7083330  62.0787477  49.8853111  54.7033358  63.0242348  50.0345182
  53.7948513  61.8606234  49.7003841  78.7906027  21.8584442   3.6038736
  78.0530643  22.4542761   3.4725389  79.5103121  22.4255633   3.8806897
  70.6894302  19.8445284   9.0630442  71.1567402  20.6049275   8.7171519
  69.7972250  20.1583672   9.2103934  14.6465334  58.3364105  47.7030897
  15.3651175  58.4607077  48.3231115  14.0312037  59.0412283  47.9051733
  11.4467749  14.8955452  23.6228299  11.0530218  15.2209818  22.8133368
  12.2909292  14.5355606  23.3507085  38.2729578   8.2485372  21.5703869
  37.8070521   8.9250338  21.0789442  37.6269150   7.9182547  22.1947074
  29.3070459   0.0895983   0.3235239  29.2109489  -0.3133673   1.1864370
  29.0034342   0.9893161   0.4441780  19.7401381  45.6559229   2.1965967
  18.7979150  45.6315517   2.0296982  20.1197195  45.9803391   1.3799542
   1.0794577  55.8574438   6.1501050   1.7548307  56.3417721   5.6752032
   0.2812609  56.3694477   6.0198808  54.6338940  33.0498362  20.8553505
  54.8229074  33.9819789  20.9631085  55.4857731  32.6214576  20.9391785
  13.9740976  50.0830603  37.9990864  13.9142927  49.4534111  37.2806144
  14.1198381  49.5452404  38.7773800  62.3414373  32.9638839  31.5667963
  61.7945957  33.7452412  31.6485000  61.8654013  32.4011707  30.9560800
   6.0222515  49.7897882  53.6714345   5.6610092  48.9055676  53.6090499
   6.8029961  49.6916479  54.2164427  76.2091255  30.1186848  29.8834705
  75.5266905  30.7195234  29.5842862  75.7313871  29.4047856  30.3057814
   3.4015879  37.6000643  51.7192888   3.9900335  36.8455315  51.6938972
   3.1833109  37.7025032  52.6456213  63.3793719  20.2223594   2.2200452
  64.2233475  19.7897632   2.3496570  63.3103783  20.8366783   2.9508552
  46.0376501  70.6830311  32.8315687  45.3171396  71.2561893  32.5696802
  46.8279266  71.1663389  32.5905132  55.7401657  16.8267703   6.4425355
  55.0630379  17.4556959   6.6919082  55.3076887  15.9746420   6.4979672
  62.0056915   3.0169794  29.9070239  62.4756098   2.6243278  30.6427097
  62.6282120   2.9848605  29.1806173  26.3373351  13.8452280   0.9391882
  25.5852604  14.4165981   0.7837848  27.0247436  14.1945255   0.3720064
   3.9697584  65.4932594  15.1171970   3.7051806  65.5642843  16.0343599
   4.2174276  64.5749187  15.0097930  72.7322578  19.5140076  38.9000964
  73.3391619  20.1282406  38.4870362  72.0049000  19.4436777  38.2818460
   5.9574160  73.2988358  47.0058441   5.1587519  73.2012558  46.4873314
   6.6367849  73.5029364  46.3631678  74.7204399  42.3522472  49.0822887
  74.3083239  43.2125711  49.1612244  74.4996834  42.0611906  48.1975412
  63.7655973  36.1722207  23.1131482  63.5401392  37.0750141  22.8887248
  64.2722559  35.8585858  22.3640394  68.3938837  46.1281300  26.8486142
  68.6383533  45.9187269  25.9471607  67.7420282  46.8240023  26.7645097
  35.2185027  55.6841498  13.2262790  35.4386918  55.5621176  14.1497803
  35.9865682  56.1156051  12.8519082  69.6115637  36.8678665  61.1383295
  70.1327515  37.1883655  60.4022074  68.8653135  36.4287710  60.7302380
  57.7532482  22.2312140  26.9078708  57.0086813  22.7912259  27.1275067
  58.1173944  21.9737959  27.7548456  72.3974276  64.6435738   5.7351452
  72.9449606  65.4209757   5.6252128  72.9818106  63.9100170   5.5437875
  18.4793314  33.7813854  39.7203922  18.8905176  33.0563760  40.1910496
  17.6444944  33.9154053  40.1690722   4.2139475  71.8092321  18.2352889
   5.0184338  72.0448696  18.6973608   4.5080464  71.5364935  17.3661792
  50.0586860   5.7827236  60.5058464  50.2001159   4.8718883  60.2477693
  50.9129159   6.1993314  60.3919807  34.7473845   7.6766235  45.2835846
  35.2120337   8.4101653  44.8807812  33.9415392   8.0628788  45.6265783
  35.4921913  66.9379520  32.5786901  35.1649761  66.0782719  32.8434896
  36.2879276  66.7486143  32.0815110  25.9446558  23.9441299  36.0945415
  25.7007155  23.9986753  37.0185280  26.8924746  24.0777302  36.0887647
  57.5477982  34.4403362  23.1851006  57.6726484  34.8000288  22.3068833
  56.6042757  34.2936206  23.2519317   3.4756216  17.7593267  10.9463036
   3.5896048  18.6564505  10.6326020   2.6203856  17.4941337  10.6079769
  64.2770450   2.5902273  61.6869697  63.4375159   2.6568462  62.1419400
  64.6171443   1.7309739  61.9364494  55.1518583  50.5565929  13.0417442
  55.0852394  50.7777071  12.1128190  54.3833923  50.0125694  13.2141614
  69.8651774   0.6274040  19.6171749  69.8426135   0.8443839  18.6851645
  70.4516251   1.2794549  20.0007629  69.3811417  39.5782280  14.1978133
  69.3724680  40.3160763  13.5881126  69.6004963  38.8212323  13.6546087
   2.8035864  30.9944892  31.4847207   2.9644522  31.3133693  30.5966473
   1.8565401  30.8609295  31.5233779  26.3629755  19.0088093  20.6344652
  26.0726484  19.4548512  19.8388565  26.6726049  18.1553626  20.3311706
  59.3165827  21.2058949   2.7252340  59.7125053  20.4241681   2.3400360
  59.4724321  21.1149025   3.6652672   1.8427500  49.6359873  52.1357012
   1.4760336  49.4786692  51.2656403   1.4999517  50.4931450  52.3887014
  65.9402561  19.1652179   3.3909509  66.5770531  19.8527718   3.1960458
  66.3986540  18.3497417   3.1882173  10.0319704  63.6215162  28.2222962
  10.9570059  63.5839510  28.4654403   9.8065790  64.5499897  28.2803512
   4.8408732  39.5531988  14.9075937   5.5819258  39.0898299  14.5172513
   4.1671595  39.5432520  14.2277110  73.8682890  23.3378196  45.4093885
  74.7991943  23.5590363  45.4359770  73.5877180  23.3722162  46.3239002
  67.8990460  63.6913985  63.0208330  67.9642344  62.7445859  62.8962241
  67.9879475  63.8152927  63.9658084  18.1994661  22.4723911  53.6845684
  17.4148592  22.2285318  54.1756487  18.7157663  21.6674495  53.6429071
  63.9448881  66.3923502  12.3743320  63.0566025  66.0534048  12.2634435
  64.5088577  65.7096100  12.0109618  15.4642424  -0.0282823   7.0038152
  15.6111082  -0.3145902   7.9053074  16.0819563   0.6919467   6.8776047
  57.4446392  29.1529822  22.2967029  57.1048450  28.7472916  23.0943131
  56.8557310  28.8513994  21.6049886  57.0975304  31.6708446  43.9431620
  56.9055557  31.9315004  44.8439598  57.1931219  30.7193208  43.9843607
  62.8409100  11.8621910  18.7658250  62.1695328  12.5076246  18.9869571
  63.3765030  11.7933333  19.5561588  75.6721671   3.3124168   3.8589489
  76.1889298   3.5342462   4.6335346  75.6366093   2.3558814   3.8606277
  53.5737181  21.9971395  14.1786253  54.3257380  22.5733662  14.3152201
  52.8592968  22.4183583  14.6565461   5.7294687  54.0629101  11.8859684
   4.8310408  54.1789389  12.1951318   5.6362661  53.8191509  10.9650314
  75.9543228  47.2430277  27.2954011  75.1182985  47.6938963  27.4137974
  75.7369947  46.3133955  27.3645902  11.9079718  17.4450684  35.7721114
  11.3072714  17.0478928  36.4027023  12.7147421  16.9369888  35.8570552
  78.4395361  19.8677158  35.7662225  77.5501871  19.6514261  36.0464096
  78.4620762  19.6331751  34.8384762  68.8084030  23.5277033  18.3954000
  68.4591770  23.4731388  17.5058508  68.0990171  23.2053900  18.9513886
   8.9672216  38.9429498  37.6570797   8.4320387  39.1107726  36.8814206
   9.4434198  39.7607231  37.8010201  75.6366158   6.5319377  40.1940060
  75.9596348   5.8528388  40.7862186  76.1676598   6.4330149  39.4037890
  64.4795227  23.8787413   8.6448532  64.6913528  23.4394288   7.8212249
  65.2791166  24.3509746   8.8769740  44.8326302  16.8349195  29.1283679
  45.2784729  16.9256389  28.2862139  45.0732708  17.6244795  29.6130514
  51.7926264  25.9802938  18.8344669  51.8234634  26.7577696  18.2769585
  52.5740433  26.0478735  19.3831527  10.1197783  48.3702956  10.7397169
  10.5951850  49.1423391  11.0465855   9.8991982  47.8915821  11.5387196
  12.5008902   4.7866443  10.2695799  11.5543970   4.8304287  10.1337004
  12.7200159   3.8648629  10.1334333  64.0005827  13.4826553  10.5046940
  64.6843815  13.5859382  11.1664975  64.3811655  12.8886449   9.8577470
  61.0631180  12.9803097  31.2156034  61.3504028  12.0684242  31.1690903
  61.8663931  13.4901512  31.1105132  68.6352491  20.0202942  38.7855411
  67.6807499  20.0158310  38.8572097  68.9320612  19.4629788  39.5049405
  61.6716909  27.2676802  19.9362218  61.6704845  28.0172420  20.5315256
  62.2672987  27.5224376  19.2315376   2.5652536  46.0324478  48.1435299
   1.6807875  46.3091040  47.9039240   2.8581461  45.4997492  47.4041510
   4.7614321  32.6523876   1.4164078   3.9619669  32.9214168   0.9639558
   5.2494654  32.1514106   0.7628970  63.5994625  40.9851122  49.5298576
  64.2733574  41.1015844  48.8601351  63.5730553  40.0403357  49.6812963
   5.7570776  56.7401361  27.0309114   5.9449705  55.8588982  27.3539424
   6.5327200  56.9797659  26.5237617   0.4581007  60.3177452  29.5773244
   0.1256737  59.8294830  28.8241172   1.1732039  59.7787571  29.9154878
  69.8998690  27.8351021   7.0867556  69.8177290  27.8008962   8.0398113
  70.7639551  28.2177019   6.9344079  60.2876091  43.5884953  15.3622961
  60.7262039  43.8184738  14.5431638  60.6185246  42.7156973  15.5743158
  20.7930979  21.6334486  20.0436950  20.6886229  22.4863243  20.4655004
  20.9969267  21.8406558  19.1316915  61.4557171  25.5392599  54.5719957
  62.1574068  25.0022697  54.9400997  61.5008068  25.3789663  53.6293936
  14.3380467  45.5436532   5.5033916  14.8834054  45.1843588   6.2031931
  13.9939324  44.7746013   5.0491041  14.7644934  44.5877171  47.5849819
  14.8826155  44.9337053  48.4696102  14.3474516  43.7359619  47.7146387
   8.7031111  30.8210135  44.5268822   9.6188768  31.0571647  44.3791151
   8.4729036  30.2732778  43.7763977  16.8530783  70.0418949  21.4147592
  16.1147627  69.5794153  21.0182405  17.6132330  69.7606611  20.9055448
  58.6705446  13.8250029  20.4012918  58.3554268  12.9294538  20.2791333
  59.2663002  13.7694573  21.1484337  74.9515533  63.4664679  26.4280391
  75.0250435  63.3721209  25.4783392  74.8596001  62.5702333  26.7513609
   1.8785636  66.0651969   2.3661083   2.2290294  65.9734820   1.4801115
   1.1054055  65.5009888   2.3774427   5.3845247  55.4921722  41.3988066
   6.3380083  55.4495668  41.3260174   5.1904520  55.0863838  42.2437382
   2.4089751  70.4606647  62.8091679   2.7377352  70.4031438  63.7062961
   1.5180334  70.7981342  62.9017499  21.1241182  26.5968323  22.2313070
  20.5306753  27.0377374  22.8393030  21.5145239  25.8912182  22.7469850
  60.3864288  63.2573986   4.6555755  60.8328724  63.5006523   3.8445586
  61.0897207  63.1687164   5.2988052  62.7627151  14.9640466  38.3971768
  63.5873382  15.4352619  38.5162407  62.5916640  14.5616866  39.2486936
  61.4136028  31.7059875  29.1576791  61.3652658  30.7510924  29.1121960
  60.5001497  31.9914246  29.1764879  71.1523485  49.9804497  31.7346144
  70.5774927  49.3057251  31.3733315  70.5745268  50.7264471  31.8953753
  47.0342636  49.5328140   5.0533640  47.9674149  49.5117903   4.8411971
  46.8825865  50.4200888   5.3788936   3.4786638  42.4810076   8.1018478
   3.7435755  41.5779972   7.9268551   3.4593138  42.5441647   9.0567660
   0.3344568  20.0562334   2.1398817  -0.0697247  20.7513666   2.6591656
   1.1453470  20.4438901   1.8106100  11.2673887  52.0971012   1.8214175
  10.9886869  52.8322792   2.3673800  11.5115961  52.4975061   0.9869875
  76.7224836  65.5443621  28.1464934  76.2036324  65.5429363  27.3421192
  76.3551617  64.8319435  28.6697149  16.7073092  70.3262472  53.8504553
  16.6509375  71.2278557  53.5339880  16.8494734  69.8037910  53.0611134
  16.7529282  62.3764795  64.0513693  16.0804972  62.3514742  63.3706055
  16.6690335  63.2476443  64.4390106   2.9246649  29.9380040  23.6586833
   2.6845583  29.3212962  24.3502426   3.7262854  30.3537154  23.9762020
  67.6404190  26.5049005  45.8805323  66.8738127  26.3828397  46.4405775
  67.6727629  25.7135606  45.3429747  73.2094526  25.1551914  16.4825475
  72.5041389  25.2254176  15.8392537  73.0301189  24.3372488  16.9462693
   7.4870619  36.6905594  36.7800426   7.9148993  37.4952745  37.0726442
   6.7311701  36.9910121  36.2754822  49.3958568   9.8001629   2.0374531
  49.0924740  10.7075220   2.0673126  50.3218651   9.8647982   1.8038792
  56.2942410  43.5878754  37.1701741  55.5481863  43.2750130  36.6585636
  56.5496302  44.4066477  36.7451739   5.9641394  33.8305068  47.0208740
   6.3026079  34.5860195  46.5403843   5.3570112  33.4112406  46.4110899
   5.6161722  53.3035851   5.6497723   6.3620123  53.8849306   5.7980788
   4.9754557  53.8479662   5.1922095  35.8061251  61.5616560  42.1614027
  35.2014860  62.2928238  42.2880411  35.6880793  61.0158300  42.9388142
  22.5581202  35.0051737  22.8441405  22.3960146  35.6926680  22.1981454
  23.1298670  35.4159188  23.4926987  15.1735624  31.3192654  41.8460608
  14.9444994  30.3984642  41.9721031  15.9771856  31.4376450  42.3524237
  23.0517260  19.3339736  35.3412962  23.6532323  19.9524505  35.7559133
  22.4623505  19.8830993  34.8242569  20.8843741  70.5532646  38.0907679
  21.0356649  70.8948135  37.2094679  19.9425062  70.6542397  38.2283521
  46.4298820   2.7974847  33.7197471  47.0695543   2.3260918  33.1860423
  45.5993891   2.3548383  33.5448861  76.1815405  43.2717657  19.9647212
  77.0531130  43.5192108  19.6559072  76.2129498  43.4150934  20.9106088
  33.1857905  59.3957323  57.8057903  32.5676951  59.1896171  57.1045714
  32.6384291  59.5029730  58.5836893  11.8591913  69.3244743  39.4926643
  11.2078127  69.2032003  38.8018489  12.5987944  68.7801027  39.2227149
  70.0045633  58.5157871  34.0812969  70.5967236  58.1430626  33.4281158
  70.1680422  58.0032158  34.8729873  77.9154825  17.4772692  28.7512326
  78.4760094  18.0382836  28.2152271  78.4289789  16.6800368  28.8815165
   7.5641188  74.3877029  35.7995367   7.2668394  73.4798098  35.8594251
   6.7610106  74.9063349  35.8472133  79.0511513  46.0364771  42.3519135
  78.7109804  45.9131622  43.2380915  78.4513760  45.5412054  41.7940521
  51.2848584   3.9514924  48.4302824  51.6319291   4.8181917  48.6415046
  50.3676669   3.9881231  48.7016624  16.9421991  37.3141336  29.5461202
  16.9163355  36.6394663  30.2246380  16.2256464  37.9075980  29.7710156
  19.8590311  66.9947958  29.6777344  20.5497107  67.6508665  29.7713208
  19.1666922  67.2898436  30.2692151  20.0187239  41.8271732  61.0631132
  19.0887102  41.9633913  61.2440729  20.0773844  41.8136406  60.1078081
  15.6535181  70.5239696  36.4603787  15.8523974  69.6358484  36.1638623
  14.7623810  70.6859345  36.1507541   9.5616755  49.0158653  40.2014732
   9.4894918  48.0621958  40.2406597   8.7806734  49.2957687  39.7240686
  34.2938582  58.3773945   9.7674603  34.4988219  57.5344967   9.3628067
  34.2692534  58.9944886   9.0361446  24.4578775  56.9780970  12.0253003
  24.1576990  56.7353487  12.9011989  24.5663008  56.1434507  11.5693998
  23.2795414  74.0079087  62.7107469  23.4983858  73.2936996  62.1122125
  22.9700980  74.7118277  62.1406808   1.5626463  18.8036871  33.4010077
   1.1435160  19.5438182  32.9619503   2.4513849  18.7865710  33.0459309
   5.3110632  27.7837825  40.0117397   4.5181974  27.2481012  39.9863267
   5.0710997  28.5887027  39.5526600  64.0497494   8.8720167  11.2589121
  63.4177399   9.3521845  11.7939186  63.5927200   8.0680013  11.0121012
  45.1768621  73.6775446  41.5357828  44.8574957  72.8915834  41.0924959
  44.6379885  74.3863535  41.1844444   2.2975859   2.2733168  41.8481731
   3.0285486   2.0786926  41.2616253   1.7756781   2.9205343  41.3738728
  68.7260580  38.0155063  18.4504592  68.4974194  37.5890398  17.6245749
  67.9310322  37.9539013  18.9799607  69.3335564  12.9557617  22.3299170
  69.7404178  13.6519725  22.8456640  69.2837270  12.2113521  22.9295802
  17.8692183  37.7341056  41.6713333  17.7618918  38.6661649  41.4816523
  18.4072527  37.7111340  42.4626780  69.4720030  39.0472436  24.9158931
  70.3739786  39.2748260  24.6903324  69.3103790  39.5005107  25.7433343
  70.8240128  54.0477180  51.0885143  70.3302002  53.9425087  50.2753019
  70.1636839  54.2801476  51.7413378  12.0924791  62.5618124  49.2500496
  12.0361361  63.2966709  49.8608208  11.3229593  62.0275259  49.4465303
  67.4019670  47.6527834  10.2009332  67.8733540  47.8791618  11.0026658
  68.0905819  47.4772787   9.5596528  71.5087080  22.6545238  59.8144293
  72.3684931  22.2522879  59.9377537  70.9946489  22.3556566  60.5645323
  25.4231469  73.3008503  13.2696671  26.0560243  73.1685351  12.5638384
  25.5401151  72.5422453  13.8415665  70.9110165  49.2890501  60.2420759
  70.5144024  48.5209703  60.6531525  70.3873682  49.4364166  59.4544792
  76.2940009  15.6329543  57.4273443  77.0594533  15.5044467  56.8671608
  75.9350236  14.7538288  57.5477600  18.5864195  70.5272669  60.5623147
  18.2531199  70.4139179  59.6722036  18.5942778  69.6433276  60.9294969
  63.7835693   4.5845380  43.1866169  64.3690825   4.1166830  43.7820292
  63.4986115   5.3510547  43.6840916  62.2696368   9.8586513  59.2154729
  62.9767673   9.5770027  59.7958797  61.5465133  10.0722648  59.8051327
  61.4250278  23.3087897  56.5130949  60.9964943  23.0726886  55.6903887
  60.7066393  23.5584927  57.0943022  15.9664790  56.5266131   8.7143463
  15.2274672  56.8824552   9.2077726  16.7401521  56.8774615   9.1554493
  53.3088525   1.9213207  29.3860745  52.5897606   2.1510513  28.7975502
  54.1003020   2.1366508  28.8926458   5.6273874  34.2806220  37.6547885
   6.1286673  35.0310731  37.3357654   5.4739412  33.7463522  36.8755317
  47.9184293  30.1900965   3.8494152  47.7232027  30.9885174   4.3399614
  47.4131870  30.2761131   3.0409807  15.3084628   7.4373062   8.1967449
  14.3685834   7.3113067   8.3270568  15.5012528   6.9751079   7.3810029
  38.0509981  68.1800813  61.2850880  37.3508772  68.3189887  60.6473052
  37.8182825  68.7438697  62.0228004  26.9225058  68.1568909  50.0358438
  26.2532171  68.8402939  50.0711441  26.7827066  67.7281237  49.1915369
  33.9243650  61.3430500   5.2654141  33.9182639  62.2118139   5.6672162
  33.0000567  61.1374235   5.1253927  56.2734842   4.5936081  15.9639776
  56.8460369   3.9427781  16.3699746  55.7086563   4.0856612  15.3815734
  69.3559647  41.1752272  32.7763939  69.9321842  40.9794712  33.5152316
  69.8389673  40.8698368  32.0084882  71.4825821  52.1026039  12.9405808
  71.7033863  52.7956390  12.3183477  70.6194067  51.7967129  12.6620269
  14.9289640  64.6968842  30.4863119  14.2079386  64.4699049  29.8990870
  15.1797613  65.5832577  30.2261782  70.8575487  31.9223213  35.3659844
  70.9098721  32.0990086  36.3052797  70.6343317  30.9932518  35.3091025
  64.8783557  10.0532676  61.0447609  64.2147414  10.1614286  61.7260435
  64.7845237  10.8301498  60.4935083  61.9228268  39.4949770   9.3206149
  62.2425079  39.7177577  10.1949179  62.4799728  38.7691212   9.0396321
  39.7532821  66.7422199  16.8893993  40.0705147  66.0024977  16.3713241
  38.8492751  66.8668222  16.6004694  22.8807196  41.6299438  35.7773614
  23.3151278  42.1122217  36.4808750  22.6711401  42.2969770  35.1236248
  48.4528732  32.1487904  55.0446653  48.7260008  31.2559032  54.8339891
  48.6451054  32.6511765  54.2529058   4.4126829  43.3217382  44.1021585
   4.4327864  42.9787397  43.2087469   5.3327784  43.3666372  44.3622351
  59.7830391  23.1303787  18.4209430  59.9722910  23.8417125  19.0328443
  60.2146626  22.3656130  18.8018167  30.0338332   5.6059463  11.5098131
  29.7305266   6.2961681  10.9200370  30.9551684   5.8127220  11.6667163
  30.9551558  48.7169743  12.0795953  31.8369040  48.8176203  12.4382210
  30.4211554  48.4506130  12.8280127  53.7111998  32.9598784  26.0390830
  54.1090822  32.3218250  26.6313720  52.8349686  33.1043482  26.3962674
  46.5164757  73.4476042  47.9241753  46.5811682  73.7579060  48.8273668
  46.3556051  72.5074768  48.0048561  21.9319471  66.7312431  24.7727489
  21.2098440  67.2787094  25.0811028  22.4907240  66.6165590  25.5414128
  55.1423041   2.3277242  19.9196422  55.1138369   2.3431737  18.9629900
  54.5947711   3.0657632  20.1874971  54.9956481  29.1669752  54.6832627
  54.8694293  29.2577030  53.7387699  55.9127681  29.4010354  54.8259133
  77.5347662  12.8783977  37.6984668  77.2904015  13.0713332  36.7933202
  78.3697844  13.3296156  37.8225017  61.0810089  40.5748987  16.3271844
  61.6049814  40.8954620  17.0612967  60.7057238  39.7524858  16.6418695
   7.5412211  65.3474140  27.4411559   8.0349287  64.7369242  26.8936229
   7.0418963  65.8768177  26.8193579  23.2717928  55.4508591  27.1313739
  24.0452227  54.9371147  27.3639870  22.5324663  54.8869610  27.3586178
  15.6319078  24.2916894  45.1604939  15.8222994  23.5490847  45.7336664
  14.7390112  24.1345215  44.8534775  12.3533663  72.5389910  48.4031820
  11.6260180  72.1529198  47.9151821  13.0729612  71.9176483  48.2920074
  31.4767012  44.9195290  19.2342222  32.1897062  45.5545235  19.1661239
  31.4662966  44.6692514  20.1580644  23.5455164  14.7549081  35.6609058
  24.4607004  15.0353432  35.6560183  23.3986887  14.4012749  34.7836280
  21.8244092   4.0744645  23.8343644  21.9549100   4.2848022  24.7590041
  21.1211602   4.6595104  23.5525870  51.7732334   6.0428542  10.9821141
  52.0920753   6.9277346  10.8044684  51.0364103   6.1692691  11.5798998
   3.7122854  51.3646793  14.5937455   3.5087332  52.0515442  13.9589095
   4.5264658  51.6533089  15.0061047  77.7812099  52.1292591  59.1521978
  77.7909565  51.7697287  60.0392580  76.8722343  52.3939466  59.0110207
  50.7214785  18.5580695  34.4395232  50.2872753  17.7051020  34.4274735
  50.1367807  19.1314900  33.9439917  10.0716528  61.3675547  38.2948017
   9.9297461  60.4660654  38.5836005  10.8854803  61.6313076  38.7241697
  62.9987097  64.1962290  42.0107365  62.8205061  65.1232624  41.8523741
  63.7390614  64.1948843  42.6174593  43.3537674  21.9900423   4.2666382
  42.6686907  21.7185265   3.6557526  43.9259767  21.2261921   4.3397326
   0.0965723  68.5609913  25.9995675  -0.0969425  67.7945185  26.5392971
   1.0390219  68.5098982  25.8401465   9.4310411  35.9307337  35.1224184
   9.2332205  36.1854291  34.2211819   8.6197027  36.0977125  35.6020808
  73.9514987  27.9399921  61.7095008  74.8437564  28.2427265  61.5407943
  73.9786403  27.6014329  62.6044163  73.5207748  68.9846611  31.9318652
  73.8769341  68.3428431  32.5462389  74.0294027  68.8575077  31.1310124
  20.6688913  29.4187045  55.3608513  21.0640081  30.1280117  54.8538971
  19.9817404  29.8445725  55.8733845  71.2668991  30.4817843  22.8249240
  71.9369364  29.8103976  22.9534674  70.9997797  30.3817320  21.9112134
  71.2289286  35.0672245  24.0639186  70.5809784  35.4271221  24.6696091
  71.9805813  34.8532891  24.6166253  10.6930098  65.2787304  31.2847471
  10.5839571  64.8529673  32.1350813   9.9363932  65.8601665  31.2092328
  39.4465288  34.4491959  18.4731257  39.8213419  33.5973573  18.2492530
  38.5033640  34.2918444  18.5168409  69.0125751  33.7584352   3.4769738
  69.5709372  34.0665317   2.7631527  68.2127714  33.4602332   3.0438203
  53.4567229   0.0417782  65.2245618  53.4557216   0.0318338  64.2674139
  53.1654899   0.9239389  65.4552256  76.7410040  63.3448505   8.9975768
  76.5616798  62.6177597   8.4014106  77.3536301  63.9023733   8.5178971
  79.5430756  53.9957476   4.4580775  79.8373175  54.5341587   5.1927644
  79.7327089  54.5241785   3.6828166   0.6836828  46.4631605  39.8476267
   1.5646967  46.8337107  39.7953629   0.5401453  46.3176107  40.7827425
  75.7338238  57.7320004  13.3164692  75.5999947  57.5696707  14.2502630
  76.0809135  56.9069529  12.9772711  62.3965311  49.7720432  34.1186261
  61.4780092  49.5055294  34.1575694  62.6474524  49.6340227  33.2052708
  43.9691114  43.1392485  15.5354303  43.8177824  43.7081247  14.7806353
  44.9202251  43.0379301  15.5721182  17.1516642  72.6485890  49.0599650
  17.5555786  73.1900615  49.7381180  16.2153134  72.6774401  49.2565614
  34.3244490  72.4698967  54.5532685  33.5679755  72.4757237  53.9668041
  34.7784933  71.6520256  54.3503862   0.1426348  59.1792488  35.3662586
   1.0621580  59.4240141  35.2623057   0.1698336  58.3129406  35.7724667
   7.9261908   7.7536875  37.3776722   8.7228140   7.8327215  37.9024386
   7.3443255   8.4312248  37.7220559   4.9579748  62.5308990  22.5137091
   4.4119200  62.5554943  23.2994890   4.4459662  62.9953384  21.8516064
  56.7622423  28.6126995  47.9598141  56.2568712  27.8339124  47.7267408
  56.5583229  28.7631631  48.8828564  72.6026964  27.6107717  21.4634681
  71.8282795  27.4221683  21.9935012  72.2536325  27.8365016  20.6012416
  47.2958755  72.4603653  24.9181437  46.4117002  72.3479414  25.2671719
  47.8442526  72.5893688  25.6920147  29.1218409  38.5387635   4.5351252
  29.7905668  39.2158914   4.6377400  28.3878359  38.8443065   5.0681555
  47.6765792   1.1910922  31.8550539  47.2952525   1.4044578  31.0034084
  47.7710406   0.2386339  31.8433332   9.5882448  32.3150301  49.3912840
   8.8574537  32.7902007  48.9958239  10.1672968  32.1117449  48.6567020
  12.9443869  26.7621756  17.6254547  12.9489836  27.1961379  18.4786165
  13.0307707  27.4757361  16.9933152  37.2692332  72.0312280  63.0952057
  37.7887854  72.4732799  63.7666882  37.1571669  71.1403770  63.4269544
  62.5696945  52.1310902  32.0541549  62.7446842  51.2104845  31.8589759
  61.7141104  52.1265030  32.4833274  61.8284178  20.9523845  34.4310594
  61.9761944  21.7695785  34.9070740  60.8941507  20.7761502  34.5420194
  15.2947633  47.3703842   9.6012682  14.3954150  47.1800511   9.8680634
  15.2379434  47.5207131   8.6576551  45.0571983   5.3883363  55.3228402
  44.5781772   4.7172405  54.8366326  44.7837846   5.2664186  56.2320226
  27.5650915  69.8451662  11.9322312  28.4877142  69.8824787  12.1844327
  27.5072321  69.0902662  11.3465571  46.8181993  41.6158058  62.1169784
  47.5388623  41.9571401  62.6464756  47.0797921  41.7933704  61.2135002
   0.5513605  28.8853359  61.0332584   1.2620100  28.4357524  61.4905214
   0.1954207  29.4924951  61.6820240  30.8196084  46.4442922  61.3775930
  30.0855033  45.8512117  61.5375274  31.5466611  46.0638143  61.8704083
  78.9293766  42.5556612  28.5662651  79.2882109  43.4288454  28.7244368
  78.8355589  42.1735859  29.4388771  78.4280777  59.1859913  20.8369613
  78.2445526  59.6580553  20.0247359  79.0433884  59.7486019  21.3071752
  63.5459010   7.4061973  62.5376511  64.3906657   7.8562934  62.5343704
  63.6097304   6.7718418  61.8236780  79.5474911  32.1415234  46.1778736
  79.1859436  33.0247521  46.2515068  80.3660107  32.1757412  46.6729307
  25.1623568  45.0256777  10.9657848  24.6493944  45.8331537  10.9986997
  25.5815538  44.9730444  11.8247032  50.7384460  27.9532100  63.0556757
  49.8568790  28.0953266  63.4004640  50.7007329  27.0862819  62.6516479
  12.0977720  67.5705338  32.4825740  11.3941607  67.7220249  33.1136250
  11.9873652  66.6580820  32.2152233  13.5310873  60.9668636  14.8636794
  13.7413057  60.8547115  13.9366090  14.3685946  60.8576584  15.3141010
  67.5114250  55.4173994  48.3878469  66.8409777  55.8270597  48.9345694
  68.3264065  55.8487511  48.6447096  57.3854637  51.9201952   2.9669613
  57.2302150  52.8387075   2.7468103  58.1208133  51.6617208   2.4113745
   5.4187712  36.5559363  50.2104139   4.9442038  36.6069198  49.3807030
   5.6140932  37.4666691  50.4309750  23.0255532  35.2013397   5.6735826
  23.8603449  34.9146390   6.0439324  22.6646733  35.7976651   6.3296258
  56.8443966  11.2729418   9.3437338  56.9146919  11.1621201  10.2918947
  56.5572643  12.1788383   9.2291081  58.8720655  11.3791716   7.3946100
  59.6473932  11.2155163   7.9315650  58.1827974  11.5857220   8.0258578
  60.7693005   7.6527435  10.6295943  60.2086830   7.1549392  10.0345087
  60.3951931   7.4977762  11.4969242  44.6905708  13.5259712  45.1443243
  43.9026403  13.6837685  45.6644154  44.7552299  12.5724602  45.0907755
   9.1486773  13.6368191  24.8339295   9.9320253  14.1578627  24.6575212
   9.2691454  13.3186162  25.7286167  40.3192918  59.1839950  18.3031726
  41.1149995  59.7156673  18.3233428  40.3849141  58.6854761  17.4886763
  37.0890713  19.6547270  19.6978545  36.7933512  20.3118968  19.0678477
  36.4039779  19.6382463  20.3661418  34.8510472  59.9999528   7.2321129
  34.5208661  59.1174679   7.0634985  34.5035331  60.5272095   6.5127629
  17.9367368  63.1077247  13.9278877  17.7674787  63.0256932  12.9893494
  18.1243961  64.0374177  14.0570617  46.7213106  21.5710950  31.4490843
  46.2821579  22.3803234  31.7108583  47.2645140  21.8240356  30.7026386
   3.2276663  19.3327493  42.7554112   3.3707461  19.9561900  43.4675079
   3.9958128  18.7621039  42.7787167  77.8509521   1.3026355   4.2016426
  78.5464525   1.6663916   3.6537397  77.1419048   1.1059394   3.5894379
  66.0430861   8.3499903  39.2952186  65.3417611   7.8421349  38.8872295
  66.6378260   8.5588163  38.5748654  78.6197042  44.1124058  18.6240268
  78.8866949  43.2614899  18.2763362  79.4191790  44.6385813  18.6095953
  10.1978430  38.6090075  62.5651508  10.6235251  39.4071508  62.8781882
   9.9450621  38.8099925  61.6640743  76.6826057   9.9729425   9.3767750
  76.0800982  10.3068125   8.7121344  77.5144148  10.4061329   9.1852713
  68.9883184  11.2877345  19.6619833  69.1824198  11.6550589  20.5243230
  68.6816597  12.0341802  19.1471910  13.7286219  37.0017893  61.8472194
  14.6447167  36.9753681  62.1234539  13.2942423  36.3482306  62.3953145
  11.1898264  69.6655512  25.9681153  11.7153582  70.3420639  26.3951802
  11.5379557  69.6183157  25.0777197  35.1791398  14.5299722  54.9386161
  34.2762725  14.3077184  54.7113126  35.4804437  13.7934495  55.4705798
  69.4933891  26.3176179  25.1971865  69.8710442  25.8746362  24.4373345
  69.1825342  27.1560311  24.8556256  35.7489308  72.4229487  15.8700967
  34.9246057  72.6745858  16.2865078  35.7780405  71.4698028  15.9531450
   4.0189680  33.3396935   3.8809112   4.2668470  33.2074952   2.9658651
   3.2707151  33.9354110   3.8426921   8.1107840  56.5531487  61.4637545
   8.2473549  55.9946293  62.2290236   8.4545836  57.4070972  61.7260572
  49.9856472  41.7771626   3.4019384  50.2110767  42.5434685   2.8744984
  50.7705688  41.2298918   3.3769700  42.2302946  47.5564868  64.1076709
  42.0918879  47.9328448  64.9768268  41.9363818  48.2372242  63.5023257
  64.5640850  14.8463166   5.6065756  64.5152760  15.8009648   5.6565481
  63.7959051  14.5416057   6.0895693   8.0576739  42.3967350  48.9278382
   7.1957001  42.1644202  48.5824889   8.1682000  43.3187342  48.6956018
  12.6195368  61.4058113   9.7392029  12.0248541  62.0397282  10.1401210
  12.0766577  60.6328058   9.5843601  50.9450722  13.7424934  40.9561110
  51.8997431  13.6930239  41.0049343  50.7558966  14.6796310  40.9090281
  30.7928133   4.7524950  22.6016164  30.9163928   5.4765427  21.9878459
  30.1225591   5.0652945  23.2091928  23.5511112   6.9470286  18.5988891
  23.7677026   6.8164980  17.6756978  23.5764956   6.0682273  18.9774334
  43.8515155  58.1476014  18.0764008  43.9338987  58.3514445  19.0080082
  44.3651311  57.3483317  17.9597747  38.9889352  74.9132864  48.2547140
  38.1844728  74.4795667  48.5392475  39.6215408  74.7229515  48.9473963
  47.8126240   2.0278826  24.7404385  48.3431482   1.2337774  24.8050547
  48.3195400   2.6091096  24.1734767  77.9995203   8.0739778  27.8743243
  77.3305130   7.5794995  27.4008799  78.1035471   8.8804245  27.3692942
  38.3699529  71.2691261  10.3153646  37.6032369  70.8918386  10.7466757
  38.3927314  72.1768325  10.6183207  33.7201715   4.8625961  19.3392134
  32.7813435   4.9169889  19.1606808  33.8051748   4.1342595  19.9544632
  46.2808561  16.7458975  26.6759324  46.7066479  17.3993826  26.1210537
  46.8569708  15.9827256  26.6323996  66.4789359  63.9013271  16.8035519
  66.4443748  63.6138122  17.7158964  66.3982646  64.8540168  16.8494368
  30.7761607  43.0796969  58.0596012  30.0333819  43.6151701  58.3384990
  30.3889975  42.4050418  57.5017696  55.6582737   6.1311746  28.7715530
  54.8074055   5.9205508  28.3869839  55.5525208   7.0179701  29.1159964
  63.4392405  18.7506950  41.2072611  62.7117872  18.1376565  41.3132477
  63.2691002  19.4379342  41.8514538   6.4918122  70.9913248  61.0374537
   7.1390995  70.3782624  61.3858890   6.2042508  70.5943817  60.2152765
  72.4337816  15.5403185   8.6349183  72.8805828  16.0337961   7.9471123
  73.0929899  14.9242151   8.9544350   2.8181204  15.1067400  39.5556259
   2.2847780  15.3891075  40.2986240   3.7153563  15.3241336  39.8085070
  75.0659227  37.0612645   9.9383467  74.1573000  37.0304918   9.6388680
  75.0379753  36.7029262  10.8255017  76.5580464  65.8944649  57.3092979
  75.7381916  66.1771029  56.9041019  76.9101143  65.2398771  56.7061448
   4.3463311  60.6350035  64.0066443   4.4349512  60.1074785  64.8004298
   3.8294157  61.3930768  64.2793268   0.1384863   1.3259161   8.7854868
  -0.2034918   2.1115160   8.3587396   1.0739073   1.3310426   8.5825342
  63.0314302  23.1614757  46.4322424  62.3328590  22.7419329  45.9300327
  63.3988857  23.8121462  45.8340454  79.6984768  39.0563852  58.8737619
  79.3238211  39.6786365  59.4971931  79.1218376  39.1046855  58.1112754
  60.5439043   7.3379654  17.5674117  59.6383190   7.2380620  17.8609502
  60.6488800   8.2795179  17.4307024   8.6570963   6.1487067  43.7383938
   9.5731195   5.8769083  43.6813021   8.2279715   5.6988311  43.0105925
  45.4966164  12.6321065  28.5205889  44.8166609  12.0362270  28.8349462
  45.7211399  13.1635809  29.2843652  77.7766514  25.9618742  48.7870854
  77.1010256  25.8266074  48.1226593  77.2998953  26.2871713  49.5507055
  65.7563162  13.2291973  23.8142562  66.0611534  14.0724897  24.1491652
  66.1502266  12.5824296  24.3997121  28.2025211  47.6783674  34.0764451
  28.5354964  48.0754058  34.8812556  27.8569524  48.4144228  33.5714364
  32.5235240  48.4554427  32.8467131  31.7972200  47.8354542  32.9124713
  32.1746652  49.2718547  33.2044864  53.0047941  13.7280440  34.1714263
  52.8012085  13.4088385  33.2922840  52.9737949  14.6815360  34.0931821
   8.5125670  21.4883041  32.0229459   8.7503752  21.7534447  32.9114175
   8.5378775  22.2998190  31.5159607  66.2918711  21.4792061  29.4890118
  66.9628143  21.3380742  30.1569581  66.7693567  21.4497495  28.6599326
   9.9777254  11.0291600  18.7989390   9.2000803  10.5750096  18.4745169
  10.4417738  10.3703547  19.3155348  68.1687689  43.3316225  47.1519524
  68.2832623  42.4432832  46.8143493  68.9415741  43.4824574  47.6962405
  76.2470245  28.3896947  17.8578329  76.3606930  27.4913406  17.5475574
  75.2986526  28.5032320  17.9205585  40.3071246  42.1995813  61.0079816
  41.1689791  42.0500976  61.3966989  40.4946265  42.5520551  60.1380175
  22.4342076  45.2782314   7.1077257  23.2493179  44.7851126   7.0146704
  22.6535670  46.1616366   6.8115699  44.5508289  27.3464012  17.3635566
  44.0771961  27.6309443  16.5819311  45.3641367  27.8508949  17.3476946
  71.6165161  18.8491058   3.6104602  70.7461500  19.1009414   3.9191279
  72.2193861  19.2775750   4.2180741  49.4404380   7.1078159  30.9093886
  48.9047973   6.4001800  31.2679535  50.1291291   6.6610576  30.4171091
  55.2838469  14.7076464  18.4463012  55.4240179  15.5426812  18.8927329
  55.8907557  14.7268140  17.7063513  20.2716860  43.6150629  55.7245385
  19.5003447  43.1470192  55.4048538  20.3723606  43.3206857  56.6297674
  78.8514662  73.9892960  30.4395485  78.9366627  73.4867477  31.2497425
  79.2111778  74.8503160  30.6528258  22.5038449  72.8079717   7.3217988
  21.6955011  72.2955068   7.3078030  22.9286687  72.5627907   8.1437731
  76.4420748   8.3203590  30.1823401  76.9034719   8.1147736  29.3692732
  76.5975666   9.2553198  30.3161407  27.8683409  58.8979215  63.5696114
  27.7230677  59.8431582  63.5289223  28.7853369  58.8074655  63.8287934
  10.6031215   4.7145271  35.9572697  10.8891499   5.4419112  35.4047012
   9.6597123   4.6557286  35.8064294  71.1291265  13.1214273  16.5241814
  70.7975769  13.5923386  15.7596231  71.8908882  13.6280525  16.8057489
  47.3279779  73.2651049  60.1886129  47.8554456  73.1004228  59.4070244
  47.4676101  72.4942266  60.7385969  57.4810569  74.6737306   9.6523136
  56.5439098  74.4819763   9.6174592  57.8573100  73.9416950  10.1409781
  67.4164915  24.5245081  63.5596871  68.1648159  25.1077515  63.4329226
  66.6616154  25.0371152  63.2705068  72.7235270  26.8350983  39.2881894
  72.2528219  27.6469231  39.4768906  72.5505495  26.2762928  40.0458527
  51.5359466  60.0807517   8.5133797  51.5043323  60.8718913   9.0512741
  50.8986680  60.2390211   7.8169185  11.1500486  33.1755710  23.5528350
  10.8312544  32.7361369  22.7644825  11.4070639  34.0477061  23.2535744
  58.8260603  21.6764903  15.3460920  59.0807247  20.8365941  14.9640548
  59.2928457  22.3286581  14.8235762  66.2878633  53.1042487  59.5630753
  66.2486553  54.0603334  59.5874941  66.0776568  52.8789836  58.6568182
  46.6820209  62.2978096  10.4969335  46.8972079  62.8776055   9.7663420
  47.1311013  62.6835351  11.2491155  72.4234295  21.3642049  26.2882614
  72.0945549  21.3330197  27.1866465  71.6622925  21.6112018  25.7630086
  44.6575689   2.9904795  36.6898584  44.7742128   2.3391092  37.3814821
  44.2938662   2.4968527  35.9548187   9.0432493  54.1448014   4.8714665
   8.5062639  54.9352067   4.9274728   8.8967530  53.8181226   3.9837435
  29.9780321  13.6088181  30.0577521  29.2102718  13.0826020  29.8344302
  30.2336025  14.0216947  29.2328596  48.3659267  14.1289568  19.5613515
  49.0379763  14.2550433  18.8915157  48.3990955  14.9280214  20.0873065
  22.9778894  18.6006093  13.5190129  22.3838266  19.0109253  12.8905535
  22.8235659  17.6615047  13.4165609  77.8707695   8.7812728  40.6236696
  78.5263729   9.3392956  40.2053022  77.0356512   9.0846026  40.2675772
  56.0092768  71.8703574  54.4968790  55.7756361  70.9421128  54.4993466
  55.1885542  72.3233980  54.3034678  77.4173117   6.9627136  10.5123043
  76.5775537   6.6997063  10.8889508  77.2112274   7.7320087   9.9813187
  17.1161684  26.1302400  47.4055719  17.1125349  25.1969862  47.6183033
  17.9220900  26.2587357  46.9053507  53.2362318  26.3751245  15.2240896
  53.6756182  25.5683708  14.9551702  53.5946178  27.0475912  14.6447980
  51.8348789   1.3059638  11.4262772  52.0428658   0.9962230  12.3077714
  52.6027012   1.0744880  10.9036887  22.5234064  24.1598773   3.7927747
  23.3582052  24.5835471   3.5931584  21.9440779  24.4234037   3.0778214
   7.3119196  60.0481242  59.9455857   7.0314869  60.6679291  60.6189579
   8.0820975  59.6202368  60.3197181  30.6117392  27.4204683  14.1928577
  31.2311625  28.0703402  14.5248377  30.8039021  27.3626375  13.2569301
  56.3419788  70.4561989  27.0398903  57.1214358  70.6432598  26.5167475
  56.3883273  71.0752114  27.7685237  55.2433563  15.5299253  61.0174468
  54.4282174  15.4959315  61.5180725  55.8151245  14.8938841  61.4472863
  11.0237329  64.3943625  41.1091805  11.2623732  64.5100098  42.0289135
  10.1524512  63.9988952  41.1357069  52.8128529   5.1974368  15.8915508
  53.1644249   5.4233623  16.7527056  51.9071627   4.9393004  16.0628033
  58.3402491   2.8411177  10.9126139  58.6933184   1.9655746  11.0707283
  57.5692797   2.8940734  11.4774454   1.5044531  21.1914635  32.1126056
   0.8000216  21.7502141  32.4409580   2.1087297  21.7960882  31.6818929
   2.6842817  15.0598633  16.7098749   2.4916681  14.5051825  15.9539235
   3.6399302  15.0676799  16.7639172  11.4923510  40.7916689  59.1021132
  10.5507359  40.6223601  59.0717190  11.8766436  40.1067519  58.5549021
  18.4792074  17.9349291  22.2841287  18.3612093  17.8291321  23.2281184
  19.2741808  18.4613490  22.1996331  46.2778155  13.8883830  56.4541131
  46.3578479  13.4712221  55.5963242  45.4962747  14.4363119  56.3819921
  66.9728661  37.1013308  25.3758788  66.9009352  36.5023899  24.6326923
  67.8667116  36.9795895  25.6959605  55.0617568  11.9724656  50.8857304
  54.1576068  11.6881944  51.0196489  55.1966064  11.9047691  49.9404973
   7.7839407  43.8618135   1.5327023   8.5667738  43.8583326   0.9818926
   7.3172983  44.6586609   1.2806883  76.2299585  25.3910375  39.7007084
  77.0663881  25.7975817  39.9272776  76.4261580  24.4559813  39.6423292
  36.4317736  32.0927548  13.1765389  35.5275663  31.7788029  13.1853759
  36.6480574  32.2260594  14.0994060  71.5849781  48.5753489  21.2138224
  72.3392057  48.8185167  21.7507029  71.9456482  47.9962683  20.5423927
  16.1627993  39.8209524  38.2370281  16.2010988  39.5736504  37.3131180
  15.7175001  39.0883756  38.6627984  75.4724121  22.2372127   0.4003829
  76.3542843  21.9747448   0.6642863  75.4747820  22.1594071  -0.5536468
  67.3927562  20.9381629  64.1834097  67.4718539  21.5938236  64.8762931
  66.7688434  20.2993680  64.5282329  45.4794995  10.4976989  39.2193800
  45.3714626   9.5470001  39.1922980  45.1002328  10.8054019  38.3961493
  66.6685104  33.5268426   1.8452853  66.4261818  34.3428731   1.4075594
  66.7076206  32.8797460   1.1410359  73.1772184  22.9270577  28.8428760
  72.7614260  23.5529160  28.2498741  72.5106049  22.7456164  29.5054007
  56.6333008  27.9996610   8.4077841  56.3515472  27.8572440   7.5041449
  56.6471863  28.9515901   8.5071349   7.9533800  29.0423942   3.4044570
   7.2014364  28.4527445   3.4604153   8.6399492  28.6033034   3.9064968
   2.6311811  31.9765687  50.1612616   2.6687559  32.7793312  50.6812572
   3.2615408  31.3903379  50.5798388  79.9754858  22.1871287  50.7972592
  79.2948008  22.3840958  51.4407664  79.4945383  21.9181675  50.0145834
   1.9483980  54.2004824  29.8326135   2.7326902  53.6754131  29.9920225
   2.2793516  55.0861883  29.6835256  16.3690647  64.2180628  58.3558446
  15.7930979  63.7716216  57.7352166  16.5296110  65.0746864  57.9600489
  13.2714018   2.9118985  61.3934356  13.3008227   2.2990984  62.1281758
  12.3445067   3.1330651  61.3029837  47.1794844  57.1327448   7.9869378
  47.2042465  57.8235388   8.6490732  47.8656340  57.3730707   7.3643059
  37.0996873  61.6520362   8.5070002  36.5955608  61.0280340   7.9847807
  36.8708102  61.4458876   9.4132841  27.8409640  10.3327466  48.5802513
  28.5208528  10.8199598  49.0456658  27.4716727   9.7465755  49.2407506
  64.5975368  23.1531526  62.1193719  64.1704147  23.6708976  62.8018224
  63.8865344  22.8995897  61.5308082  44.7481076  57.1969657  11.9040740
  44.4074504  57.0628994  11.0196483  43.9684837  57.3282831  12.4436796
  24.1202673  56.0577625  60.3308654  23.4460530  55.8775717  60.9859997
  23.8158306  56.8481857  59.8850178  74.0810442  22.8922629  40.2573490
  74.3139982  22.2395992  39.5970511  73.4169722  23.4356713  39.8331404
  71.2623549  36.6419458   4.9436706  71.7594910  37.0960188   4.2632982
  71.9020605  36.4731908   5.6354296  69.7797441  21.1169863   4.0357178
  69.5029068  21.6600800   4.7737178  70.3797722  21.6742396   3.5400662
  58.5774851  22.1848607  11.6658545  58.4471560  23.1161761  11.4872634
  57.7084303  21.7972255  11.5623343  10.0335440  37.0618320  29.8034644
   9.0853247  37.1417975  29.9069881  10.2754244  37.7951837  29.2378473
   9.8882612  23.9062095  27.1582770   9.4371828  23.1255388  26.8368554
  10.7627234  23.8533974  26.7725968  22.2885498  50.3277129  60.2759251
  22.6527771  51.0772962  59.8050827  22.8956494  50.1827020  61.0016191
  64.0878344  51.3096571   6.1479831  64.9211216  51.0699177   6.5534341
  64.3261433  51.9316292   5.4605323  78.7712240   3.5379899  11.8533051
  77.9997635   4.0958694  11.7540276  79.5112228   4.1189384  11.6768610
  50.5455033  74.6617673  17.4711478  50.2322309  74.5327737  18.3663881
  49.9801795  74.1039400  16.9368577  66.0985374   2.4291770  19.7927892
  66.5995979   1.8132034  20.3273392  65.4570532   1.8841147  19.3371129
  72.6102400  43.4387493  28.6693358  73.4372616  43.3544827  29.1438532
  72.8630066  43.4413481  27.7461147   7.9519209  34.6463203   5.8282918
   7.3874411  33.9003420   5.6255186   8.8355001  34.3409276   5.6227356
  20.6590621  -0.0545209  33.8536525  21.3424413  -0.3297513  34.4647717
  21.0352437   0.6977041  33.3966208  79.2633915  20.7447815   9.6660453
  78.5112858  21.0435438  10.1772296  78.9838505  20.8328032   8.7548161
  56.7703152   3.8603035  27.5869226  56.5723801   3.1926760  28.2436776
  56.2313509   4.6104515  27.8379726  27.9309782  15.6467581  47.0531130
  26.9889101  15.5849302  47.2109652  28.0513987  15.2817440  46.1764765
   5.2605757  55.0024557  44.1544485   4.5527491  54.3664217  44.2577410
   4.9184450  55.8069658  44.5442438  18.4774193  65.9975070  56.5992617
  18.6355671  66.7908520  56.0875761  19.0970740  66.0541290  57.3266232
  65.0384617  27.1976709  18.1457984  64.6129227  27.8467774  18.7059844
  65.8132172  26.9271421  18.6385453  11.1424860  48.1305027  13.6996746
  10.9199366  48.9250326  14.1848791  11.8781408  47.7533627  14.1821730
  71.6112041  24.8227692  14.0062034  71.4828825  23.9399815  14.3532646
  70.8047962  25.0109196  13.5260558  12.5869402  31.6283011  32.7641964
  12.0037397  30.8750105  32.6711440  11.9985994  32.3813057  32.8195715
  75.4247332  33.7712169  42.2807503  75.4816771  33.6929011  41.3284636
  76.2953901  33.5258102  42.5937414  20.3600821  53.5509604  57.4748271
  19.9186882  53.3445555  58.2987195  21.0900339  52.9331893  57.4328631
  78.4626389  10.3313458  13.9707351  78.7102795  11.2355888  13.7777340
  78.6069393   9.8628151  13.1486094  57.6993339  35.4275466  43.5452705
  57.4506633  35.1297189  44.4203096  58.6415736  35.5852653  43.6047202
   7.7375254  29.0151834  27.0724368   7.5943026  28.7451673  26.1653471
   8.3641562  28.3782744  27.4158311  75.2975941  30.4851985  50.1688004
  76.1598778  30.2934694  50.5374956  74.7255087  29.8101926  50.5339241
  79.0369034  46.9515944  17.4528718  79.5177507  47.7453852  17.2185206
  79.6675825  46.2429857  17.3250127  37.9534309   9.6874811  62.0127657
  37.7704494   8.7570335  61.8823251  38.5692279   9.9106313  61.3147467
  25.5315146  26.7383647  34.9580359  25.4599794  25.9535861  35.5013943
  26.4614233  26.9637871  34.9841070  17.5238642  59.9320269   0.8410627
  16.7428907  59.5524931   1.2438785  17.3596129  60.8750248   0.8419429
   9.8306791  12.2678615  55.2190011   9.0905111  11.8866588  54.7466999
   9.7685687  13.2068540  55.0438803  42.2697799  58.3381550   6.6681308
  42.9807298  57.6997106   6.7243904  42.4703233  58.8516133   5.8855873
  65.0820541  46.5909100  50.5445766  65.0542974  47.4516344  50.1267052
  64.5259333  46.6822386  51.3182783  52.3317337  33.6603880   1.9897261
  53.0633783  34.2658067   2.1096852  52.0559502  33.7946486   1.0830010
  73.7994576  -0.0252837  43.6275339  73.2226181   0.7103799  43.8331795
  73.2542562  -0.6206342  43.1131887  42.6178312  21.7049861  13.4325278
  43.4140968  21.2413955  13.1731486  42.9253817  22.4068046  14.0061951
   1.1873850  56.5875959  38.9529896   1.7892393  56.9769526  39.5873332
   0.3279051  56.6479588  39.3699884  57.7928877  37.3024964   5.4035807
  57.9421425  37.0933414   6.3256478  58.1009912  36.5299320   4.9298251
  74.8034048   6.3359016  63.9305983  74.9933863   5.4554004  64.2544140
  74.3206644   6.7542762  64.6434478  57.8181887  45.2091169   9.5001882
  58.5224152  45.7450771   9.1354287  57.9447412  45.2598810  10.4476273
  71.2014675  29.2708206  40.1727295  71.0369015  29.7964931  40.9555578
  71.7739153  29.8166680  39.6336675  39.8720312  26.3731694  10.3049588
  40.6952286  26.7083216   9.9496377  39.9545670  26.4898276  11.2514317
  25.3879151  35.3247337  63.4429855  26.2632450  35.7110714  63.4151183
  25.2959618  35.0043807  64.3402870   5.5488428   8.2059658  14.4246292
   6.3802275   8.3131033  14.8867464   5.0673231   7.5621152  14.9440801
  58.3497143  53.8549471  20.3003693  57.7276421  54.2813206  20.8898354
  59.1997814  53.9705181  20.7249355  10.5927977  19.4890082  15.6443584
  10.4841932  20.3087449  16.1265075  11.5263018  19.4559932  15.4352736
  67.3211384   9.4092387  23.1274486  67.7811384   8.9661509  22.4144936
  66.7373896   8.7414700  23.4873796  59.1556311  20.2347660  35.2681661
  59.0719175  21.1107779  35.6447697  58.4923649  20.2061176  34.5786119
  77.1881914  47.8479385  19.3146849  77.7519512  47.4674988  18.6411333
  76.2985516  47.7008009  18.9935482  70.9008074  20.0754309  23.9579296
  71.8096828  20.0470090  24.2568803  70.5944824  20.9479070  24.2052841
  21.4993509  32.3987412  14.2932975  21.5081438  33.0697370  14.9758792
  21.6763147  32.8781152  13.4839058   1.4092382  17.8319621   9.0297407
   1.9689688  17.8523684   8.2535207   0.5353579  17.6394641   8.6898798
  77.7662849  38.8466048  37.5400257  77.8564119  39.0337443  36.6056347
  77.8335619  39.7024965  37.9632926  11.2780031  30.2166915  19.9220347
  11.5608248  30.4424000  19.0358615  10.9387144  29.3249369  19.8453295
  39.8975024  35.7563393  64.1143208  40.0089487  36.5392314  64.6536647
  40.7086977  35.2633059  64.2373015  75.5041075  30.4467535   2.0643233
  76.1180496  31.1550403   1.8703133  76.0209560  29.6474290   1.9634016
   9.2070612  41.3232040  46.4596796   8.8120874  41.4678431  47.3195076
   9.9492773  41.9270372  46.4324188  51.9236343  67.7261143  18.5698569
  51.8898551  66.7718147  18.5035038  52.1830241  67.8941833  19.4757819
   4.4866022  13.6750281  42.3251820   5.4076609  13.6671638  42.0647430
   4.1739115  12.7924883  42.1262503   5.8384832  26.4022136  54.1893673
   4.9681982  26.6698742  53.8940907   6.2781462  27.2224116  54.4134426
  43.7360112  57.8612511  30.4276967  43.6037080  57.0697920  30.9495401
  43.8398950  58.5596638  31.0739636   4.3218168  25.8135724  49.6506071
   3.4238943  25.4917645  49.7306442   4.3907389  26.4989638  50.3152275
  31.3939699  23.8797212  20.5562067  31.4447626  24.2295361  21.4457464
  30.6060442  23.3362055  20.5572081  59.4838095  35.2440119  12.4494898
  59.8522234  34.4785833  12.8906476  59.9938965  35.9817481  12.7838433
   8.6271605  63.0899239   3.0595234   9.3215498  62.7288866   3.6106288
   8.9895758  63.0699587   2.1738094   2.4057802  30.9611797  37.3047423
   1.6323599  30.3972363  37.3002434   2.2258791  31.6197920  36.6338491
  47.8523922  24.2146587  17.4096382  47.0074368  24.4712615  17.0402706
  47.7194834  23.3154702  17.7096844  76.7266941  29.5147657  26.6592455
  76.6739082  30.4447985  26.4390492  76.8006706  29.4983721  27.6134419
  61.2543488  47.5098753  17.1482003  62.1833706  47.7388144  17.1753895
  61.0149240  47.3712111  18.0645406  70.3174734  70.5915070  60.7341671
  71.1782932  70.9917212  60.6114769  69.7024965  71.2315893  60.3759336
   3.4000525   5.8436298  20.5050015   3.0721983   5.2333629  19.8444593
   3.7842211   6.5599924  19.9995637   2.4310653   9.2723752  50.3137535
   2.0730560   9.2239620  49.4273466   3.3750193   9.3665220  50.1859992
   2.0574888  73.3348465  25.9869552   2.9204592  73.6204195  26.2868953
   1.5614637  74.1461277  25.8772993  57.8485267  19.7511674  60.6905773
  57.1717040  19.6734048  60.0181967  57.3695056  19.7113086  61.5183371
  40.6992960  73.5771704  10.2558744  40.8769894  74.4285250   9.8560637
  39.7633624  73.5969973  10.4555464  20.4464850  46.0872746  26.3806796
  21.3872274  46.1755991  26.2276292  20.0756678  46.9160652  26.0776401
  57.3888016  58.2417774   6.8690264  56.7765474  57.6117754   7.2491229
  57.2232962  59.0546513   7.3465979  73.2437658  65.3697062  12.6512468
  74.1416979  65.6374979  12.8467822  73.1224155  64.5592785  13.1459308
  70.1009798  42.2798061   6.5071261  70.5182648  42.8420305   5.8544332
  69.2713404  42.7151918   6.7030042  11.9491856  72.1982216   1.3188614
  12.2013919  71.4359947   0.7976760  12.2076909  72.9495292   0.7850604
  10.1234564  50.1706409  18.7848473   9.7355112  49.5932770  19.4424069
   9.5925554  50.0313187  18.0006480  72.2610378  42.1271086  19.9824035
  72.2507286  42.5753927  20.8280802  71.8461752  41.2817955  20.1543403
  51.0037374  42.1974134   9.5741552  50.8996105  42.7555847  10.3447604
  51.8945789  42.3719931   9.2705709  45.4551825  12.6362634  15.4745328
  44.5152124  12.7813053  15.3666341  45.6200728  11.8000960  15.0387967
   7.2966417  44.9272394  44.5380163   8.1760820  45.0103426  44.9066830
   6.7301783  45.3748417  45.1665163   9.0502295  73.3928389  55.0806206
   9.2733845  72.8003806  54.3626886   9.0977606  74.2669314  54.6934050
  67.8630057  35.1137453  19.8852533  68.1125978  34.2809206  20.2856821
  68.5993269  35.6974703  20.0678057  62.7250913  57.0013809  50.8212948
  62.0778957  56.6409349  50.2151155  62.7523712  57.9356527  50.6148386
   6.3415885  45.0114536  60.0915241   6.1704212  45.9269285  60.3125191
   6.2955397  44.9831104  59.1358519  53.6022853  26.1875635   1.8757051
  54.5578003  26.1311203   1.8818277  53.3209434  25.5586248   2.5401730
  62.7848116  29.4705796  47.4044228  63.1028572  28.8345647  46.7636681
  61.8894723  29.1910076  47.5953102  76.3439995  56.1930704  53.0110359
  76.9327557  56.4386082  52.2973776  75.8144781  55.4817343  52.6506948
   9.0236157  72.8501463  23.4823680   8.4276497  73.5219955  23.8135457
   9.3168408  73.1864548  22.6355243  36.3107777  68.4216309  52.3622656
  35.4608321  68.5586977  51.9438887  36.9214988  68.9416075  51.8398905
  74.6770858  63.2018541  14.6496433  73.7606190  63.2672332  14.3812365
  74.7457646  63.7793039  15.4099554  10.9454961  -0.1745360  41.7448521
  11.2053759   0.6957204  42.0470953  10.2109809  -0.4147904  42.3096466
  78.3142504  36.4477181  50.3561020  78.0668809  36.4955235  51.2795496
  79.2331609  36.1799550  50.3678513   9.1069984  14.7669226  13.8748735
   9.8682141  14.2956835  14.2135662   8.5244846  14.8547178  14.6293253
  75.3689218  11.1003244  41.0838079  75.8078555  11.6836917  41.7028809
  74.4933364  10.9770918  41.4504099   6.5956360  55.1189756  47.5424576
   6.7383450  55.8162212  46.9023657   6.9643968  55.4619646  48.3564615
  23.7620674  64.4171737  27.6942343  23.5764755  64.8852752  28.5082716
  23.0447944  63.7889098  27.6103395  13.6021721  49.9436617  56.8701458
  14.5066059  49.8949146  57.1797514  13.1083548  50.2679586  57.6232767
  44.5014986   7.0014482  17.5681681  44.8608121   6.2353474  17.1207232
  44.1074434   6.6496569  18.3664221  36.7083748  16.3560111  44.1846466
  36.4821650  16.2288387  43.2632971  35.9168221  16.7244823  44.5769596
  17.7707767  26.9520002   3.3226484  17.2007703  27.7009016   3.4972090
  17.4072551  26.2449413   3.8557047   7.8091073  11.8951279   8.1186861
   8.4332728  11.1694437   8.1133122   8.3215499  12.6538759   7.8395075
  59.9624232  30.9596062  47.2980642  59.0872160  31.0962200  47.6608038
  60.2210895  30.0945711  47.6159286  27.8117037   1.0600083  52.1828127
  26.9665790   1.2045711  52.6083708  28.3512855   0.6459120  52.8563166
  26.9209638  13.7191206   7.6067060  26.5488187  14.5639473   7.8597111
  27.8061476  13.7286287   7.9708380  45.7251175  25.3683292   0.7116837
  45.4234047  24.9142109   1.4984364  46.3151355  26.0474895   1.0385651
  53.8537804  68.9421940  56.8397808  54.4999519  69.5631599  56.5034866
  54.2630926  68.0846357  56.7245054  28.5396719  60.0124502  56.5887117
  28.4340286  59.6360922  55.7149696  29.3185472  60.5644846  56.5191460
  26.2959814  56.2817574  64.1975594  26.9121814  56.9866705  63.9984941
  25.4438663  56.6257143  63.9295626  63.7683812   1.3378626  18.3034128
  63.9884964   0.4378801  18.0629725  62.9537240   1.2606793  18.8000101
  20.6768537  37.7939939  60.6708813  20.2097011  37.8132629  61.5061235
  21.0337019  36.9074678  60.6164360  36.7046070  37.9815078  61.8917370
  37.3097372  38.5867739  62.3203373  35.8678579  38.4462523  61.8819046
  62.6933232  52.4500704  60.4214287  62.7477411  51.6093731  59.9670076
  62.6520840  53.0995274  59.7194767  50.4327732  30.4873425  19.9376291
  50.2917463  29.8421102  20.6304640  51.3759530  30.4631716  19.7762007
  31.0225962  68.2272314  12.0130295  31.8217666  68.0917715  12.5221581
  30.3317715  68.3132313  12.6699919  11.8171549  46.6640425  48.5018873
  11.7398047  46.9887877  49.3989849  12.0948565  47.4265528  47.9942465
   6.5701562  57.6684809  52.6738167   6.4454085  57.4866724  51.7423582
   6.1493546  56.9334412  53.1197739  60.5072191   0.7076674   9.1567940
  60.5054721   0.8373767  10.1051611  59.6357521   0.3638130   8.9604754
  23.8801265  70.2283716  46.8125629  22.9660892  70.4389000  47.0034790
  23.8338685  69.5438528  46.1450911   3.3940816  14.0761572  10.8890623
   4.1997194  14.4898897  11.1989111   2.7047562  14.4566780  11.4333719
  70.6563577  51.0256529  54.7914124  71.4388100  50.4826641  54.6956873
  70.2373848  50.9957647  53.9312983  15.5242813  67.4306011  50.7985067
  16.3503277  67.7666521  51.1462879  15.0058234  67.2193050  51.5749025
  42.9501486  67.7865410  37.9103708  42.2698545  68.2517910  37.4235678
  43.4504175  68.4782887  38.3433247   2.5053596  39.5439649  37.3215389
   1.8370923  39.1247797  37.8636956   2.8359467  40.2619982  37.8613257
  56.2842205  50.2372938   4.9317593  55.9978816  50.7346540   4.1656775
  57.2381321  50.2105623   4.8571247  23.5309458  73.2565355  49.4284916
  22.7860498  72.8430080  48.9921904  23.7742066  73.9809418  48.8520432
  47.9283619  35.1242256  59.2971563  47.3479557  34.7722507  58.6222696
  47.3372364  35.4391432  59.9809885  15.0045288  55.9407568  46.7248678
  14.7634077  56.7937374  47.0861435  15.9098852  55.8087587  47.0061827
  16.6027136   6.5223606  54.6411896  17.4211867   6.4398868  54.1517687
  16.8019779   7.1483333  55.3373766  57.8987274  26.2350517   6.2778944
  57.2924858  26.9326883   6.0288805  57.9665220  26.3052231   7.2301096
  59.5949224  24.8419577  21.2456697  58.8533053  25.1892429  20.7500643
  60.2452233  25.5440956  21.2271685   7.5738734  39.9355197  65.1188231
   7.0932478  40.5824709  64.6024084   8.2556510  40.4409742  65.5614614
  41.0029037   5.6746776  59.5748615  40.6249757   5.1134117  58.8978243
  41.0809036   5.1063354  60.3411102   5.4204470  64.5699739  47.1364975
   5.5547261  65.4735613  47.4223900   5.3841233  64.0646887  47.9486513
   6.2651080  68.0042982  58.5769224   6.1984146  67.3831415  57.8517008
   6.6038132  67.4853086  59.3064165  10.6020331  74.9607420  58.8781643
   9.8089659  74.7018909  58.4088326  10.9556019  75.6890583  58.3675003
  12.0551546  58.2786940   5.7952875  12.2781236  59.2057084   5.8799166
  12.9006203  57.8317426   5.7545990  53.2905239  23.0060202   5.4505104
  53.0908747  22.2085196   5.9407801  53.0827465  23.7177092   6.0559505
  13.8416262  67.6540946  38.4891123  14.7820051  67.7993773  38.5930914
  13.6763819  66.8247245  38.9375204  68.6685255  49.3617010  28.5764861
  68.2657674  48.9315891  27.8221536  68.6285416  50.2953720  28.3693910
   4.9622992  64.3562603  62.9664040   5.8015347  64.3267298  62.5070095
   4.3074101  64.3671417  62.2683811  57.2086087  65.9329224  41.9038439
  57.7708546  65.9586763  42.6780844  56.3269511  65.8008671  42.2523737
   8.8384103  14.3560511   7.4110884   8.6371159  15.0127417   6.7443985
   9.4238519  14.8053127   8.0207247  10.2511120  16.7700964   3.5715670
   9.9647379  16.6264254   2.6695818  11.2032866  16.6780144   3.5380978
  27.3238039  30.7527357  22.5824541  28.1294536  31.0570866  23.0002207
  26.9991922  31.5155560  22.1039480  67.8360119   5.5664211  12.0885653
  67.2924772   6.1276203  12.6416058  68.2163361   4.9298101  12.6938004
   1.5652943  52.9252815  36.0050654   1.2989512  53.1682634  35.1183558
   1.2207960  53.6257553  36.5590453  26.8026304  25.0970798   5.2330393
  27.5207901  25.6746059   4.9743027  27.2215795  24.2518908   5.3954166
  22.3404883   3.2113321  62.8245974  21.4515765   2.9019458  62.6503944
  22.4622770   3.9430625  62.2196436   4.3700456   9.7113329   7.9546589
   4.5855403  10.3929049   7.3180670   4.7511100  10.0216776   8.7760633
   0.9163475  52.5254065  25.1875490   1.5056658  53.0007082  24.6018690
   0.1782942  53.1205183  25.3192991  76.4666715  14.0152889   9.1747898
  76.7381111  14.6015888   9.8810476  77.2433439  13.4871822   8.9900822
   7.4433053  16.8562984  52.8094864   6.5519118  16.5825522  53.0256128
   7.3508227  17.3531187  51.9965601  35.1994194  68.5500811   2.7014965
  34.5163710  68.0779933   2.2252506  35.8082230  67.8682564   2.9855865
  70.0006488  39.9562693  56.5733910  70.0980792  39.6384478  57.4710131
  69.0547350  39.9785352  56.4285374  17.7096689  44.6042490  61.6197205
  17.7242899  43.6471939  61.6118574  17.2904694  44.8305702  62.4499512
  54.9110363  25.4088312  21.0925955  54.5570043  24.7502857  21.6902632
  55.7117522  25.0135952  20.7478136  79.4727583  70.7672596  41.7151213
  79.2628040  70.7582903  40.7812738  78.7276419  71.2076283  42.1239138
  25.3967150  59.8875259   4.4473022  25.4774366  60.7663773   4.0767139
  24.8240432  59.9992298   5.2061171  71.2113127  74.1637802  39.1394567
  70.6370119  74.9134922  39.2954898  71.0397604  73.9156342  38.2310390
  51.9381741   4.7534710   8.5651917  52.5333425   4.1826921   9.0512127
  51.6266829   5.3835875   9.2149252   2.4238348  28.9839512   3.0473560
   2.4286866  28.3786493   3.7888521   1.7125225  29.5944410   3.2411808
  65.8788577  39.8265367   4.1584915  65.0806847  39.6284967   3.6686653
  65.7016566  39.5086580   5.0438065  45.9566815  74.1070365  20.7779306
  45.9702738  74.1740750  19.8231787  46.3610382  74.9200176  21.0808939
  69.5799771  29.2372519  24.4424528  70.2066770  29.7571474  23.9392752
  68.7740758  29.7535282  24.4277662  47.9394916   3.2966190  27.5404543
  47.6624581   2.8569180  26.7366213  47.5857148   2.7534109  28.2447237
  29.8557214  65.5776166   2.9766983  29.8337029  65.1182102   2.1372408
  30.5409671  66.2374924   2.8707069  26.0459590  71.5383244  47.6137924
  26.2426257  72.0268059  46.8144512  25.2954316  70.9914303  47.3817396
  72.2704819   6.5936762  15.8864397  72.1789888   7.1161705  16.6832155
  71.3984993   6.2275606  15.7386583  71.7601135  51.9862848  35.9490484
  71.4288691  52.4838167  35.2014059  71.1815229  52.2273737  36.6724676
  64.4462279  11.1184793  -0.0108009  63.9841667  10.2880102  -0.1250368
  63.8711944  11.6370779   0.5518908  27.8677212   8.9958484  59.6530962
  28.1943987   8.2493694  59.1508198  28.5700548   9.1934020  60.2727175
   3.6465430  49.2921305  59.3011141   4.2854998  48.6445045  59.0035486
   2.7998126  48.8574600  59.1994333  72.2035340  40.5558067   1.1235947
  72.0778182  41.3375813   0.5857748  71.3406685  40.3828293   1.5001244
  63.0923048   0.7151562  12.9471773  63.2899407   1.1887699  13.7551779
  62.1806523   0.4410439  13.0470985  40.3019837   7.0964437   1.5669054
  40.2126911   6.1497789   1.6768450  41.1577013   7.3016506   1.9435638
  69.6761588  30.2353024  59.8215485  70.3005025  29.5491552  59.5856905
  69.9533889  30.5226493  60.6914949   0.5185363  51.5417389   3.5037506
   0.2613645  52.2867112   4.0469921   0.0287449  50.8023505   3.8638199
  58.9402762  58.2486153  62.6265335  58.3839050  58.1131792  61.8594980
  59.6074477  57.5652647  62.5621510  34.9584794  48.8913012  59.6465635
  35.5805206  48.7249279  58.9383173  34.1680026  49.1997194  59.2035580
  59.7552355  10.4832561  63.3633280  60.1292355  10.7621486  64.1991377
  59.6106942  11.2978561  62.8818989  22.3244385  54.6912395   5.1182074
  21.6719429  55.0286137   4.5044798  22.1772008  55.1894353   5.9221643
  79.6281489  71.3351870  63.0818748  79.0502465  71.2268877  63.8372135
  79.6441249  72.2794724  62.9259729  73.7212673  17.7214247  12.4570173
  74.1993395  17.6164061  11.6344255  72.9810241  18.2856041  12.2334808
  69.8764840  34.7722822   5.9929127  69.5754305  34.3105799   5.2103323
  70.2762941  35.5750948   5.6584257  12.8846037  66.5848207  47.1712017
  12.0804572  66.0747528  47.2682285  13.5866332  65.9654236  47.3705339
  45.2489360  64.4447707   2.8225655  45.2148123  64.4901942   3.7780804
  44.4154115  64.8174118   2.5351519  17.5176334  32.5358176  58.7248516
  16.7618716  33.1066298  58.8635206  18.0648482  32.6707458  59.4985342
  29.0845314  14.3235546  26.2983221  29.7677365  13.8744503  26.7960829
  29.5567074  14.7819000  25.6031984  13.6373544  51.3143682  45.6968594
  12.7853954  51.1278725  45.3023767  13.5152352  52.1505451  46.1464548
  21.5593147  34.1043240  12.2729773  21.0758018  33.6603123  11.5763420
  20.8806514  34.4508272  12.8522676  69.0892926  62.6349449  39.0927339
  69.6992448  62.3106098  38.4301639  69.5986012  62.6440907  39.9031353
  15.8503647   2.9154165  53.0639935  16.6688181   3.0105646  53.5511398
  15.2313609   3.4837158  53.5223627  76.5938369  47.3848772  56.0814142
  76.5526441  48.2686281  56.4468145  77.4088052  47.3709488  55.5795527
   9.4500059   8.4840667  61.4745998   9.3685597   7.6040304  61.8422079
   9.7890741   8.3438981  60.5905104  78.1302395  41.4685875  60.0874037
  77.5420490  41.9519144  59.5071787  77.5482860  40.9314686  60.6250566
  55.2622087   1.4012439  48.5257864  54.4132908   1.7986543  48.3317900
  55.1297791   0.4659564  48.3710909  63.0867967  21.4548164   9.6955437
  62.1597102  21.6924816   9.7115368  63.5365620  22.2615295   9.4442457
  44.7915295  30.7804781  10.8078426  44.2192259  30.0254160  10.9441465
  44.4498906  31.4500338  11.4004702  55.2799164  31.8833452   4.4201321
  54.5444620  31.7308241   5.0134939  54.9985418  31.5041214   3.5875172
  22.0901205   5.5793102  48.4934282  21.2305333   5.8436973  48.1656456
  22.6477520   5.5608852  47.7156496  29.4784260  62.5187159  30.9391665
  29.9978495  61.7733335  30.6377697  28.8066268  62.1312666  31.5002394
  35.5082418   7.5339706  22.6580787  35.6960769   6.9556625  21.9188213
  34.8079409   7.0907504  23.1369948  60.2574213  13.3567150  42.7591515
  59.4111879  13.8005550  42.8150463  60.8816393  13.9844806  43.1231499
  37.9467817  11.8853958  64.9985313  38.1382878  12.2248275  64.1242647
  38.0654533  12.6374061  65.5787277  40.3986938   6.7542179  35.4336762
  41.0814901   6.8274505  34.7668505  39.6633156   7.2541625  35.0794053
  28.1976190   1.6390687  13.8299269  27.5518909   0.9981948  13.5323519
  28.0429879   2.4076229  13.2807011  37.4019034   4.1128929  60.8458376
  38.0870183   3.4449680  60.8727169  36.7472728   3.7604005  60.2429819
  60.1264532   1.5320880  37.3754478  59.9940689   1.6396530  38.3173275
  59.2458184   1.4039428  37.0228982  74.7747484  47.1081167  18.5682482
  75.0690666  46.3624102  18.0452436  73.8512602  47.2119528  18.3388609
  10.6757895  10.1547439   5.8858001  11.3742320   9.7731025   5.3540421
   9.9716632  10.3347881   5.2628851  26.3714004  66.7772770  64.6890926
  26.2636495  65.9173203  65.0954151  27.0638919  66.6506577  64.0405130
  11.5657640  36.3949823  60.1345348  11.3332462  35.4914904  60.3487062
  12.2840548  36.6053200  60.7312298  21.4514398  37.6915985  20.7719320
  20.5383873  37.8045851  21.0361284  21.9578314  38.0486017  21.5015501
  67.7177456  46.9554239   1.8930334  67.9614452  47.1942144   0.9987062
  67.7087417  47.7860266   2.3686975  19.6005523  37.6020360  63.2425690
  19.0974355  37.7296615  64.0468216  19.8242879  36.6713548  63.2451630
  38.0856219   0.0009113   0.1482862  37.6849976   0.0462728   1.0164303
  38.9619961   0.3662902   0.2695364  75.2927509  38.1013447   2.8718466
  75.5433241  37.6006561   2.0954746  76.1217156  38.4189516   3.2298655
  49.9164304   8.3140999  21.7602629  49.3755022   7.6676136  21.3067431
  49.4598237   8.4709650  22.5867838   6.6556907  73.0899858  62.8138733
   6.6673386  72.2990417  62.2748899   5.9386897  72.9481030  63.4319448
  61.2529714  74.8770927   4.5649714  61.4346631  75.4540514   3.8231224
  60.3180917  74.9926423   4.7349113  50.7976767  20.8742910  10.3044027
  50.7289363  20.8870607  11.2590450  50.2734900  20.1194769  10.0366014
  43.9480701  25.3146845  19.7043795  44.2558917  26.0736423  20.1998133
  43.8386473  25.6402355  18.8109106  51.7971391  18.1389624  17.5534910
  51.1341245  18.0422741  16.8699068  52.1121711  19.0375858  17.4562162
  68.7967053  48.9054871  53.9197493  69.3180386  48.1861687  54.2761517
  69.2781452  49.1878366  53.1421089  12.7094245  43.4289694  28.0563307
  11.7762768  43.6400747  28.0263519  12.7773404  42.5808907  27.6177120
  37.4253757  67.7717923   0.6607622  37.2869571  68.6232613   0.2459473
  37.7117403  67.9821013   1.5495771  34.2537951  46.8415022  61.1835623
  35.0089073  46.5796232  61.7103052  34.5225763  47.6624107  60.7711363
  73.8107243  42.0007807  25.1499456  74.1278091  41.2406355  25.6376642
  73.0494335  41.6762167  24.6689791  69.8880723  14.4957167   8.2834667
  69.8177293  14.1488987   9.1728491  70.8030906  14.7649914   8.2030672
  44.8348577  15.0013645  51.4070177  43.9393647  14.6722705  51.4845943
  44.7658844  15.9339054  51.6115999  17.5144780  37.6593208  53.8255596
  17.3444235  37.0399356  54.5352650  18.3957279  37.4404716  53.5226822
  69.6465448  68.7537432  36.0587502  69.8898515  69.1948605  35.2448392
  70.4697791  68.6666107  36.5392971  29.8305474   3.9312751  14.4939661
  29.2400987   3.2412965  14.1914248  30.4344161   3.4861190  15.0884497
   0.6851005  61.3140303  43.6060328   0.0235462  61.3018328  42.9143423
   1.1428284  60.4783731  43.5144323  74.8306987  64.6654892  62.8984213
  75.0388372  65.5636024  63.1559181  73.8743493  64.6277571  62.9127121
  16.0067653  10.7975918  15.0155920  15.8964109  11.5265518  15.6260675
  16.8472957  10.9667498  14.5900053  51.7493044  37.5720221   6.2395901
  52.2084607  38.3385521   6.5828747  51.2482165  37.9062563   5.4956573
  32.9252179  66.6205715  16.5914053  33.0336364  66.5847849  15.6410307
  33.4825642  67.3476361  16.8688387  75.1040331  19.0775925  25.7820410
  74.6640626  19.9226480  25.8744520  74.8928586  18.7936073  24.8926634
  55.7740243  19.9408061  40.5601501  56.4671476  19.8240573  41.2099028
  55.5404527  19.0507610  40.2965403  42.4339882  18.8209921  17.8350824
  43.3354810  18.5156923  17.7334208  41.8969384  18.0755144  17.5666136
  35.2175263  31.8703276   4.6682781  35.8792463  31.9147926   3.9780754
  35.1886216  30.9454304   4.9131483  78.5538927  41.1538988  18.6322588
  77.8740659  41.2918430  17.9726786  78.6331669  40.2023369  18.6991304
  74.2245355  25.5082422  21.7215342  73.7393895  26.2807995  21.4316839
  74.0666929  24.8562056  21.0387701  23.1334676  12.5798423  42.6317406
  23.1573670  11.7383487  43.0872965  23.8165565  12.5106246  41.9647837
  47.4772835  31.4087343  60.0088835  47.4828339  31.6467094  59.0817547
  47.8354168  30.5213189  60.0305271  18.4691866   2.0790202  33.7460589
  18.9291359   2.7791650  33.2829428  19.1238774   1.3880069  33.8466358
  14.6345615  23.5246092   8.5527319  13.8023758  23.9909798   8.6314816
  14.4055080  22.6034599   8.6762136  28.5232973  71.5310240  48.6287689
  28.4437275  72.0729876  49.4137383  27.6219463  71.4053297  48.3321238
  19.6496558  16.4834690  61.9788933  19.5621741  15.5332971  61.9030428
  19.3522263  16.6812432  62.8669548  51.4276022  47.8543097   9.3657393
  51.9540747  48.2150274   8.6523384  51.3324210  46.9270712   9.1480202
  59.9054106  70.6689952  10.4697746  60.4141791  69.8778533  10.6472105
  59.0535052  70.3452800  10.1770348  10.0546670  20.3106600  12.2400326
   9.9862790  19.3613201  12.1385092   9.3307519  20.5420738  12.8219503
   2.3879038  59.2902660  44.4905138   1.7855358  58.8091230  45.0578642
   2.8716815  59.8629284  45.0857019  41.2486179  13.7940414  29.6767497
  41.5079625  14.6407039  29.3132591  41.1682673  13.9517314  30.6174469
  16.7056036  51.9754702  19.7607321  16.3300228  51.0983854  19.8374838
  15.9915495  52.5125891  19.4174189  62.2674134  41.3523155   7.2251791
  62.1789965  41.0109526   8.1150574  61.5123078  41.9299990   7.1141285
  36.0216573  62.8804499  21.9796843  36.1604372  63.1051260  22.8997320
  36.3179365  61.9731241  21.9073862  47.9153362  70.8571058  13.7305969
  48.6321801  70.6623846  14.3342966  47.3995480  70.0512224  13.7033648
  33.5481270  -0.2531092  42.3563099  34.0136571   0.4650934  42.7849150
  32.6237835  -0.0792496  42.5340557  14.5507765  52.1126371   2.2430748
  15.0491285  51.3329226   1.9982904  14.3540573  51.9894033   3.1717009
  39.2474671  10.5391796  36.4073873  39.0339632  11.3538558  36.8623042
  38.4999926  10.3843696  35.8298492  66.8188360  28.5618978  44.1299147
  67.0263031  29.3475538  44.6358198  67.1430984  27.8387838  44.6667570
  56.4407712  52.2725683  14.5704025  57.0911795  51.8054872  15.0948423
  55.9598294  51.5818506  14.1145271   8.7396538  53.2727337  60.5482531
   9.5722520  53.3576107  61.0128021   8.2148576  54.0097713  60.8606482
  62.0608714  20.2190739  12.8134293  62.8366140  19.7138887  13.0568260
  62.3419991  21.1322552  12.8708691  76.2807221  63.6271858  54.2872763
  75.4249379  63.2623577  54.5125914  76.0973469  64.2530107  53.5866022
  69.3202928  22.6125198   9.0712351  69.6843544  23.4873444   9.2067760
  69.5457748  22.1330982   9.8684496  23.3980846  16.1598021  59.8139853
  23.7796592  15.3909880  60.2377314  23.2490682  15.8853394  58.9091677
  37.8097887  74.0014623  17.1434015  38.1607325  74.3994497  16.3467306
  37.1056528  73.4306501  16.8358320   4.7481751  22.1912485  10.3825039
   5.6282210  22.0480352  10.7306999   4.8007583  21.9011074   9.4718498
  76.6301504   1.1913544  11.2296146  77.5779691   1.0742622  11.2941402
  76.4534846   1.2008649  10.2889055  79.3531576  22.5574833  16.7183298
  79.9474016  22.7006060  17.4549574  79.2518225  23.4223181  16.3208097
  50.6963396  72.6529217  50.0689554  50.1994658  72.9225683  49.2965317
  50.3599358  71.7814970  50.2779579  23.9702367  56.9846636  14.7067064
  24.5482540  56.4920717  15.2893538  24.0560293  57.8930288  14.9960798
  60.7901433  16.6354328   1.7172712  61.1326739  16.6978794   2.6089043
  60.6527123  15.6983572   1.5785736  58.1984475  36.6054731   1.6229099
  58.0144760  37.5377327   1.5077108  59.1406855  36.5657383   1.7867416
  55.2775253  28.8004690  18.7641329  55.1664627  29.3936068  18.0211061
  55.3112227  27.9282194  18.3713526  42.7802709   2.8743988   0.6422276
  42.9153052   3.1638151   1.5445799  43.2117859   3.5422951   0.1093668
  75.5536333  31.0630423  23.9458078  75.8296719  31.7543941  24.5475286
  76.3563171  30.5783373  23.7534708   2.7234864  57.5318151   4.9476236
   2.3637008  58.1946283   4.3581671   3.2915640  58.0224997   5.5415577
  68.6371234   8.0585152  32.3483652  67.9011074   8.4893566  31.9137472
  69.4016591   8.5746532  32.0927805  19.5731449  14.1609341   4.8919577
  20.3400659  13.8187176   5.3512520  19.2949485  13.4434277   4.3227285
  18.7095451  10.7544905  34.5896620  19.4246673  10.8512693  35.2185244
  17.9449272  10.5464750  35.1266092  15.1838250   7.8654773  49.3526173
  15.3387256   6.9210346  49.3688917  15.0998552   8.0784423  48.4231949
  24.0866661  22.9106146  29.3834681  24.7786474  23.5658079  29.2934031
  23.4644794  23.1221634  28.6875052  28.2324225   7.4825961  57.3147917
  29.1670512   7.3657710  57.1443415  27.8977464   6.5937526  57.4339008
  10.0624466  74.1341501  10.3572744  10.9910178  74.2715651  10.1699060
  10.0432801  73.3572393  10.9160990  49.0983517   1.7051805  13.9240545
  49.4157393   2.0151532  14.7722382  49.6429141   2.1620668  13.2830090
  76.8154732  38.1190681  58.0357838  76.0742927  37.6582623  57.6426697
  76.4403984  38.5793900  58.7865543  40.8526185   4.8713976  21.1542219
  41.0781434   5.3015381  21.9790548  39.9303010   4.6347004  21.2518877
   1.3730478  18.6316734  16.4765066   1.5176749  18.8299280  15.5512995
   0.6317210  19.1831499  16.7265886  10.4405951  62.6716995  45.8872509
  10.4431117  61.7148352  45.8620167   9.5280361  62.9130793  45.7284927
   6.1013931  61.7118549  52.3811865   5.1585412  61.8563509  52.3013020
   6.2848008  61.8367529  53.3123112  18.6611581  65.7517433  45.0869703
  19.2911744  65.0609684  45.2922440  19.0825534  66.2625694  44.3957996
   1.4024520  16.7298370   0.0409264   0.7234406  16.2606579   0.5257458
   1.0244059  17.5932556  -0.1258617  77.3656026  29.5536810  19.8767847
  76.7396775  29.1330963  20.4663176  77.3796240  28.9918333  19.1019529
   3.6079788  33.9303595   9.0437359   3.1496858  34.4927126   9.6682018
   3.0353737  33.1702429   8.9408869  70.0059858  29.8480755   2.4662155
  69.4534901  29.8150402   1.6852612  69.4457486  30.2335888   3.1398195
   0.4138732  54.9733931  27.0883936   0.9007334  54.1670996  26.9178576
   0.7106662  55.2538305  27.9541201  21.6543388  11.5910154  10.0149530
  22.2256708  11.1748081  10.6603855  22.2428751  12.1298223   9.4862312
  45.5118914   1.7983682  53.2124758  46.0716827   1.7981727  52.4360323
  45.5987175   0.9149272  53.5705662  10.1580524  47.7612310   5.6584353
   9.8885321  47.4667555   6.5284199  10.0287938  46.9973379   5.0963015
  28.9555406  27.9677540  30.2429766  28.5919618  28.5272556  29.5566744
  29.7652244  28.4058004  30.5051989  71.5329448  74.2753935  28.0625105
  71.4269099  75.2257967  28.1040764  71.8016902  74.1036224  27.1600127
  72.3939028  43.6695581  22.7171415  71.6132215  43.8945394  22.2110266
  72.5801793  44.4548040  23.2318491  73.3258930  34.0189510   8.9669413
  73.7207881  34.1629797   8.1069750  72.6647058  34.7066694   9.0450996
  11.7478823   2.4324184   2.6728767  11.7442798   2.1639877   1.7540926
  11.9200372   1.6251594   3.1575722  25.4017486  48.6198543   6.3894362
  25.4794855  49.5158170   6.0616583  24.6061018  48.6276661   6.9215244
  66.6288999  21.3573670  51.8163586  67.2249535  21.6005063  52.5247622
  65.8979979  20.9235525  52.2566080  55.2419916   5.4314309  52.6794243
  55.5197254   4.5167732  52.7294016  56.0590259   5.9301156  52.6783895
  30.4294658  35.3748822  64.6070576  31.1659884  35.6543708  65.1507998
  30.4433155  34.4191360  64.6579266  38.8240972   9.7295260  40.6200886
  38.3036200   9.7230828  39.8167872  38.4276787  10.4158092  41.1568356
  47.3716831   9.0324473  53.1131744  46.8682909   9.7680509  52.7643013
  46.9563437   8.8346606  53.9525795   7.9935689  66.5940736  16.2941736
   7.3698695  67.2150754  15.9178919   8.8498504  66.9103502  16.0061068
  34.3452454  18.2848716  44.7936106  33.4324503  18.3716762  45.0683832
  34.6683931  19.1847432  44.7484684  22.2415034  27.9788099   3.6609358
  23.0354042  27.5177334   3.3900827  21.5374525  27.5490736   3.1752724
  74.0159938  39.1912889  25.2628732  74.7455094  38.7099671  24.8725271
  73.3826980  39.2848682  24.5512462  11.6226387  14.3115282  41.6861343
  12.5639045  14.2894113  41.8586397  11.4371860  15.2291667  41.4866877
  34.6990450  37.4970197  28.9084238  34.6929772  36.5407209  28.9495081
  33.8235648  37.7290044  28.5986704  13.0174267  16.6629505  25.4304576
  12.2613883  16.1404419  25.1628304  13.6154842  16.0315537  25.8303285
  61.2208084  18.3399463  55.2305984  60.9164515  17.6367688  55.8043003
  62.1023158  18.0723548  54.9706507  64.6612568  72.5852080  65.0227737
  64.8461040  71.8854468  64.3963575  64.5964797  72.1395900  65.8674431
  47.1084499  13.6975241  50.2686310  46.5550756  13.6515057  49.4889593
  46.5409327  14.0699732  50.9434938  15.9885442  27.0318103  32.8883338
  15.2720380  26.6338992  32.3938465  15.5618858  27.4400496  33.6416817
   4.5321362  75.1142407  43.6424398   3.9322083  74.9598860  44.3721628
   4.4145744  74.3553185  43.0710840  70.5858842   4.2404848   4.0677065
  71.4965203   4.1359097   3.7919563  70.1015666   3.6048895   3.5407490
  60.6323943  17.3012787  21.1487001  61.2003371  17.8650814  21.6738600
  61.1235675  17.1524864  20.3407091   7.9141498  17.5968182  61.3753223
   8.7214601  17.6461077  61.8872356   7.9762250  16.7627037  60.9098864
  72.8086046   2.3026742  23.8109136  72.2612003   2.1669905  24.5843291
  73.6871055   2.4486078  24.1618705  24.7148943  41.7933369  29.8177314
  25.4198885  42.4088907  29.6169639  24.8273349  41.5953445  30.7474566
  72.4759695  45.8744669  13.9291275  73.2949588  45.9086227  14.4234157
  71.7934743  45.8331299  14.5989954  49.4658430  57.4351107   6.6444391
  49.8337705  58.2719349   6.3605637  50.1811822  57.0058309   7.1137375
  34.4114375   1.8276644  55.8839607  35.1579356   1.5511839  55.3524256
  33.8459396   2.3018931  55.2744102  10.2601850  26.7806935  46.6214895
  10.2184999  27.6237750  47.0728302   9.5975286  26.8442154  45.9336758
  54.7912708  72.0199345  39.9701500  55.6217845  72.4690788  40.1274633
  54.8526186  71.7128776  39.0656137  58.4331742  38.8542867  36.9260693
  58.5122362  39.3827105  36.1318731  58.9997736  38.0990314  36.7686296
   3.8290875  68.0365538  62.2747374   3.5922305  68.9632087  62.3126841
   3.2462160  67.6673310  61.6112852  15.4625344   9.2494595  52.0112371
  14.9316132   8.8762426  51.3076258  15.0384378   8.9505702  52.8156233
   0.8545327  64.0701151  52.3502588   0.4004414  64.7574377  52.8377199
   1.7640853  64.3656874  52.3104715  72.9194470  73.5233723  57.6489401
  72.7021678  72.7380294  58.1511974  72.3733159  74.2105534  58.0307198
   0.4311055  38.0291390  29.5378470   1.3681605  38.1632829  29.6798515
   0.3748283  37.6343536  28.6676693  78.8798430   3.5902461   7.1764964
  78.2304465   3.7186959   6.4851093  79.2621111   4.4575599   7.3101747
  54.8227547  74.9265489  64.0514994  54.4242283  75.2001854  64.8776579
  54.1013729  74.9373482  63.4224367  64.6006528  21.4225650  47.7148724
  64.7143904  20.7599926  47.0334816  63.9453712  22.0224881  47.3585939
  72.4250498  22.6938301   4.8163218  71.8084267  23.4007030   4.6257061
  72.9199842  22.5823599   4.0046305  18.1880331  26.3155913  56.9119596
  17.7845657  26.7507768  57.6630020  19.1268623  26.4640880  57.0250082
  59.5583645  55.4705238  62.0941257  59.9297884  55.1834822  62.9283190
  59.0074602  54.7399044  61.8131781   0.7381319  26.8315196  45.5059195
   1.1509621  25.9679341  45.5008602   0.5353520  26.9946647  46.4270544
  55.3585459   1.8231231  10.6230921  54.8285960   1.0794145  10.3362459
  54.7350454   2.5450426  10.7025236  37.3791666  70.5488227   0.1505798
  37.0701893  71.4136551   0.4204506  38.2839592  70.6933926  -0.1263338
  71.3936720   6.9885778  35.4966450  72.2113690   6.6884041  35.8935070
  71.3155452   7.9022753  35.7710266  65.8213607  29.0897423   7.7925772
  64.8689547  29.1745621   7.7483124  66.1267570  29.3648869   6.9281334
  19.2034912  52.7668762  59.6732330  19.4417536  53.4052372  60.3455162
  18.3234131  52.4798012  59.9167156  32.3446655  17.2078395  59.1151237
  32.6261544  17.7879298  58.4076691  31.3931608  17.1608496  59.0220642
  30.4835691  56.2320052   6.9063276  29.6017875  56.2740503   6.5362925
  30.8450918  57.1067713   6.7637867  61.7936106  67.0763611  29.8221564
  62.3424162  67.5348406  29.1858864  61.4582892  66.3167690  29.3459082
  29.8716378  46.2124109  36.0446882  30.0862217  47.1420240  36.1221623
  29.2012668  46.0649300  36.7118335  62.1960238  56.7005348  28.7539744
  62.5078085  57.2720575  29.4556737  61.8157104  55.9488487  29.2084670
  67.4024470  73.0646562  44.6387243  66.8614860  72.6294302  43.9798069
  67.6427897  72.3679565  45.2495241  73.0651352  23.2546830  57.6559353
  72.6109538  23.0199313  58.4651613  73.7573615  22.5990677  57.5709534
  30.7448132  33.1701516  19.7414106  31.0447611  34.0180914  20.0689215
  31.5334506  32.7562474  19.3907541  10.4295087  29.1493821  47.9567862
  10.8614135  28.9527869  48.7880754  10.5060911  30.0991678  47.8658247
   5.6201744  11.2063509   9.6374792   6.3480520  11.3985210   9.0462965
   6.0366273  10.8498245  10.4221338  46.6664680  32.5095369  46.8332606
  45.8384408  32.9728557  46.9595033  47.3212721  33.2041551  46.7627924
  18.3640750  53.2353471   6.5956444  19.0512456  53.5610484   7.1769756
  18.7805606  52.5257443   6.1065239  79.2541344  30.3793788  49.8892498
  80.1257299  30.7735467  49.9236536  79.2537715  29.8692441  49.0793133
  60.1006177  52.7480316  23.4080696  59.8597399  53.3658075  24.0984082
  60.3829184  53.3010578  22.6795793  21.6798925  58.3736992  33.0365443
  20.8008075  57.9967546  33.0733609  21.9794703  58.3720398  33.9456558
  16.2844598  25.0343418  55.2961159  16.1288333  24.2797136  55.8640480
  16.5025222  25.7460690  55.8978844  25.0810896  31.7007475   4.5169920
  24.9083586  31.0438435   3.8425488  25.0677148  31.2097572   5.3385633
  40.5330992  67.0659065  26.1213279  41.1121511  67.4302912  25.4518843
  41.0956717  66.4862633  26.6348982   4.9904057  11.8739128  31.2009907
   5.1614112  11.4384007  30.3659368   4.2278734  12.4269605  31.0309482
  76.9117803  13.2295346  49.2784309  77.5952706  13.8652205  49.0663528
  76.3636852  13.6739695  49.9251938   4.1745472  47.7324015   5.8078331
   4.1338134  47.1159082   6.5389341   5.0349569  47.5827509   5.4160017
  19.4883990  29.5033884   0.2701009  19.4317448  30.4587722   0.2538208
  18.6337948  29.2074013  -0.0433867  38.1428388   1.0167867   8.3555454
  38.8340488   0.5087000   8.7801737  37.5383261   1.2377435   9.0640491
  71.8288020  40.2422428  63.2240248  71.0020587  40.6180000  62.9214811
  72.4786017  40.5550337  62.5946188  63.7859658   6.1708421  24.6493125
  63.9252976   5.2318048  24.7719002  63.3616498   6.4575976  25.4579902
  39.5101435  55.2907418  16.3157934  39.4732042  54.4325648  15.8934111
  40.1544209  55.1856052  17.0158476  69.9311582  41.8756914  22.0203710
  69.8222557  42.3417521  21.1914206  69.6419469  42.4999189  22.6858950
  64.1478709  48.4566116  35.6522894  63.6473921  48.8431168  34.9337029
  64.4311562  49.2054987  36.1768341   8.8489711  26.5936065  56.0666895
   8.5927087  25.8984709  55.4605961   9.2210114  27.2747397  55.5064440
   4.9963173  10.7953048  46.0834312   5.8456135  10.4188919  45.8526897
   5.1722252  11.7287302  46.2017679  57.4140540  21.1539841  44.8482418
  58.3508864  21.3294911  44.9364233  57.3423735  20.6317687  44.0492535
  79.2370684  56.6847038  54.3838024  79.1298821  55.9617233  55.0018978
  78.4653822  56.6339922  53.8197470   4.9105576   4.5088348  62.1518612
   4.7856483   4.8279768  63.0456066   5.8201373   4.7241238  61.9455910
  13.2915711  47.3618698  26.2957883  13.8408864  47.6087666  27.0397830
  12.4984646  47.0017862  26.6927147   8.9010602  62.9781818  42.4523497
   8.4554178  62.2009277  42.1154451   8.3085507  63.3233881  43.1201839
  24.8893666  47.1172285  58.7885571  25.0285268  48.0641842  58.8002300
  24.7195721  46.8888092  59.7024632  68.6913541  20.6240183  16.4400476
  67.9098108  20.4276472  16.9566340  69.1570845  19.7896629  16.3836950
  23.3810420  11.6228683  37.1605754  24.0977834  11.1607368  36.7258954
  23.5964884  11.5769393  38.0920815   3.9933497   8.3721995  45.6962729
   4.3888873   8.1332427  44.8580122   4.2738250   9.2752725  45.8446789
  60.4014298   4.8456007   7.4364895  60.8866909   4.1635185   7.9007286
  60.0930753   4.4184166   6.6373247  75.8253272  74.3899733  41.0876608
  76.3175114  73.7292986  40.6003237  75.0156816  74.5013782  40.5893660
  13.2703014  60.9482072   5.5316681  13.4965499  61.4901494   6.2875408
  13.9481123  61.1443184   4.8848766  22.8520060  20.3931856  55.2353907
  22.9766130  19.8601747  56.0206318  22.2668815  19.8739266  54.6838140
  77.7123466  68.1330299  28.3804774  77.3416859  67.2588444  28.2594752
  77.1409163  68.7080288  27.8714848  71.1188713  24.5928532   3.4918446
  70.9544221  24.0904289   2.6938719  70.3743449  25.1910215   3.5559601
   7.7848506  19.9162340  48.2359886   8.0205500  20.8317852  48.0861759
   8.6147761  19.4427776  48.1785822  68.4202035  73.8100903  55.2935123
  68.8188739  74.5159256  55.8025217  67.9235442  74.2591130  54.6094513
  17.4748313  56.7114544  61.8152428  18.3278048  56.9652987  61.4627743
  17.6650524  56.3956785  62.6986074   5.8146465  26.4516664  29.3096995
   6.1354530  26.3878751  30.2092791   6.5587211  26.7931008  28.8137078
  15.3580320  17.1852899  47.4268913  16.1124253  17.2196281  46.8387222
  15.7052386  17.4533808  48.2776594  11.4697075  61.3849211  19.6583557
  10.7291150  61.0793114  20.1821470  11.1359239  62.1548986  19.1979706
   5.8745104  30.5698276  28.5197163   5.9267229  30.3275514  29.4442725
   6.4120060  29.9175239  28.0704594   2.9965439  27.3155808  54.7660780
   2.4424469  26.9807696  55.4711390   2.3910180  27.4803829  54.0433025
  15.0814438  27.9069853  38.2161403  15.9625852  27.7456784  37.8787947
  15.1777661  27.8647232  39.1675425  77.6859346  35.4425484   3.3120054
  78.2192484  36.2021309   3.0778212  77.9069343  35.2675873   4.2267651
   0.2639477   5.4175287  44.4850111   0.6430402   5.5298787  43.6132908
   1.0146914   5.2396905  45.0515699  44.0606848  14.2832708  63.7181425
  43.5658089  13.4965324  63.9469957  44.9777976  14.0201533  63.7950087
  18.5934849   1.1885221  36.8838048  18.1976189   1.2648113  36.0156441
  18.2073636   0.3948314  37.2542000  76.8374905  50.0480938  36.6309381
  76.9237480  49.1001654  36.5298486  75.9336439  50.2347755  36.3770795
  68.9037422  43.4771252  44.3893862  69.4406858  42.7060890  44.5722151
  68.3330170  43.5582161  45.1535368  18.2009113  39.0651679  50.8710814
  17.8990662  38.9063835  49.9767065  19.0416181  38.6106324  50.9243822
  14.0512848  56.8084049  58.8599777  14.3537319  56.3359833  58.0843639
  13.8160849  56.1206245  59.4827700  25.5657304  50.9685300  24.1711134
  24.8960973  51.1348985  23.5076708  25.8851253  51.8380283  24.4123358
  53.1922116  72.2924312  57.6706314  53.3878004  72.8106708  58.4512758
  54.0459441  72.1355527  57.2671938  33.6844690  73.0132547  38.8783240
  34.1714271  72.5547831  38.1935549  33.6164661  73.9140039  38.5616875
  54.1166433  62.9165273  34.8794246  53.6719435  63.5751729  34.3458891
  53.6804944  62.9631488  35.7302070  59.3513432  42.5002337  36.8520379
  59.0948215  41.9106674  36.1429214  58.6168138  43.1082869  36.9355178
   1.0482753  52.9792738  42.3072433   0.2727608  53.3713627  41.9059038
   1.1339292  53.4260416  43.1494379   8.7137949  48.7999678  52.3970509
   8.8478458  49.1863298  53.2624912   7.9397255  49.2457294  52.0530367
  16.0504293   3.3060551  57.0641232  15.4231524   3.3593473  57.7851725
  15.8287668   4.0458807  56.4986563  60.2159396  34.6257973  31.4788747
  60.7597450  35.1448035  30.8863044  59.3689099  34.5669842  31.0369301
  10.7225811  28.6186361  58.8645792  10.9496808  28.7719274  57.9474306
  10.1851070  27.8267312  58.8491058  64.7083243  66.7463117  36.6276431
  65.0018795  67.6168327  36.8964338  64.9505456  66.1759942  37.3572302
  70.5737028  51.0434389  57.5108051  71.0004065  51.7965508  57.9194355
  70.6257204  51.2192869  56.5713358   9.2792471  67.5808452  28.1681532
   8.6123736  66.9736217  28.4887690   9.6323188  67.9882573  28.9591021
  17.6552558  40.5719423  26.7282629  17.8761148  40.7223129  27.6474166
  17.4324107  39.6420741  26.6845059   0.5328645  43.1441641  57.0757580
   0.3259784  43.3760977  57.9810953   0.0397208  43.7729073  56.5487576
  27.7430835  14.1575153  60.1383877  27.3419767  13.4847934  60.6886578
  28.6631645  13.9004905  60.0782108  75.6682629  49.5878744  53.0550051
  76.0092751  50.4279375  53.3619833  76.4444372  49.1013241  52.7774191
   5.7460934  32.4050689  39.7329378   6.5362948  32.6726198  40.2022219
   5.7705206  32.9060292  38.9176631   5.1177913  16.9479382  40.1910782
   5.0461137  17.3518205  39.3262243   5.9721303  16.5163314  40.1838017
  58.6708060  49.7983932  57.5327969  58.5313645  50.4532623  56.8487406
  59.6139303  49.8186445  57.6950788  62.2984011  60.4030965  26.9537443
  61.9517954  61.2406992  26.6463083  61.6299208  59.7630643  26.7093653
  22.9001427   4.6206054  50.8246756  22.4723625   4.8341170  49.9954319
  23.6940002   5.1553941  50.8293152   1.5816431  50.2361727  28.4242177
   1.2157437  50.6634188  29.1986918   0.9099092  50.3446579  27.7509904
  73.2537219  50.1512051  22.4260306  73.8400743  50.1973629  23.1812072
  72.6617357  50.8952188  22.5366163  48.6280639  67.0397018  40.2093691
  49.3562849  66.6272424  40.6739229  47.8812702  66.9424699  40.8001989
  77.9523081  46.6620398  45.0054121  77.4362378  47.2143316  44.4181538
  77.4565605  46.6543198  45.8241940   1.1331725  15.4267841  12.0243353
   0.8936190  16.2055403  11.5219540   1.0862589  15.7075268  12.9382366
  10.3713226  21.8064356  49.9982452  10.8025110  20.9963489  49.7260952
   9.5774800  21.8460846  49.4648838  10.3535545  19.0750527  48.6783648
  11.1282909  19.0402520  48.1172895  10.4038572  18.2779109  49.2058754
  13.2181144  23.1184745  11.4768815  13.4036279  22.3340464  10.9606588
  12.8345549  22.7859807  12.2883999  46.1352018  15.7250744   5.8406824
  45.2503863  15.3918701   5.9900469  46.4935848  15.8550316   6.7186922
  28.5904503  61.1823510   8.0216593  29.4059779  60.7643555   7.7452034
  28.8624838  61.8345688   8.6672920  27.1806963  66.6433595   1.6335625
  27.4065101  67.5204443   1.9433445  27.9436333  66.1082839   1.8523163
  69.3707171   6.4607686  56.3980436  69.1979078   7.3355502  56.7460728
  68.8791946   5.8732378  56.9720173  23.4767914  37.4118209  50.9954786
  23.1962371  37.4145412  51.9106340  23.8765311  36.5511727  50.8700657
  68.5191027  24.1698074  48.8193941  67.8922025  24.8906088  48.7587833
  68.0003003  23.3854985  48.6406851  66.4755646  43.4767914  56.4555168
  66.3757292  43.5433006  55.5058622  66.4788309  44.3842173  56.7601442
  74.8919270   4.6680105  26.2302399  74.8684740   3.7633806  26.5422130
  73.9901355   4.9759758  26.3205814  34.2446756  19.3690073  53.7464237
  34.5125771  19.8815989  54.5091248  33.3046150  19.5309937  53.6671686
  52.6537028  19.7059345  41.1778498  52.3799387  18.8148391  40.9605169
  52.5212589  19.7732794  42.1234465   3.4486595  29.4948792  27.7646828
   4.1194963  29.9655008  28.2593799   3.3226869  28.6786580  28.2485723
  29.1163428  73.2651452  21.4429331  28.5587605  73.3236970  22.2187591
  29.2495878  72.3260658  21.3140607   7.3982120  53.3997583  44.3723869
   8.1149280  53.7218809  43.8257694   6.7211449  54.0725470  44.3005180
  70.4459998  40.4685211  40.3533316  69.9626437  40.4392004  39.5276546
  70.1735154  41.2904263  40.7613182  43.8432844  67.3011230   2.7469582
  44.6384127  66.8618559   3.0487007  44.1587539  68.0031942   2.1779198
  32.3361738  52.9591440   9.5769257  31.8906917  52.3219048  10.1352257
  33.1636597  53.1333707  10.0254148   0.9272682  23.6551905  29.1817546
   0.1126128  23.9414620  28.7686992   0.8909936  24.0243292  30.0641680
  20.5290651  59.0309238  13.7844658  20.0642419  59.7028065  14.2832100
  21.4274430  59.0674877  14.1128147  62.9955259  36.0861468  10.8660424
  62.3426751  36.5916276  11.3503051  62.4897197  35.4073191  10.4192936
  41.1327890  14.5075470  32.2919363  40.2151266  14.7502905  32.1686358
  41.1561695  14.0884644  33.1521982  13.7971842   0.9770103  63.0559635
  13.2358432   0.3724360  62.5705576  14.6786702   0.6172732  62.9569387
   4.9229583  65.7610369  21.7819929   5.8318925  65.4990578  21.6355848
   4.4073659  65.1229000  21.2888646  71.2029985  33.3572936  37.7492666
  72.1120730  33.4379625  37.4606371  71.2656132  33.1202769  38.6745429
   5.2115273  14.5375591  17.7999586   4.9420404  14.1935354  18.6515802
   5.4583239  15.4455524  17.9756445  55.7769837  73.2489287   3.7584043
  56.0522531  73.2066895   4.6741959  55.6189467  74.1793482   3.5984793
  66.0514096  36.0550928  63.3554268  65.2723542  36.3751221  63.8102722
  66.6983345  36.7512870  63.4695911   5.3545433  61.4032698  46.6573668
   5.6722724  61.0709667  45.8178091   5.7001519  62.2944355  46.7085075
   2.6260805   1.9339138   8.0446762   2.5447821   2.2526675   7.1457762
   3.5697174   1.8936711   8.2001108  67.7428165   5.8604151   3.2663673
  68.6558822   5.9735495   3.5304588  67.4730721   6.7262083   2.9599804
   3.6028242  37.5832897  18.6817926   4.1914630  36.8603998  18.8989920
   3.5131383  38.0730301  19.4993204   3.7563276  40.9515005   3.2583946
   4.5299291  41.2210661   2.7633137   4.0997243  40.6773334   4.1087717
  13.2044971  62.0743227  37.0125914  13.7630880  61.3044405  37.1197557
  13.1745780  62.4715567  37.8829598  31.9740583  15.3568942  35.9797049
  32.3318733  16.1983020  36.2629509  31.7704810  15.4829700  35.0529408
  22.2504210  35.6455588  60.8565378  22.7683353  35.0682688  60.2955246
  22.1668077  35.1664734  61.6809893  73.4879116  11.0547638  51.5469599
  73.9962945  11.2898636  50.7707453  74.0822313  10.5148721  52.0680475
  13.4212351   0.1228553   5.2094835  13.9761257   0.2737695   4.4442696
  14.0212440   0.1712185   5.9537167  14.9681003  35.6260199  13.8903660
  14.6885653  36.3104980  14.4982952  14.2375894  35.5362937  13.2783741
  -0.3188399  41.6317463  33.7977815   0.1733037  40.8595705  34.0766597
   0.1786482  42.3715639  34.1462207  10.3791332   1.2218481  38.9833635
  11.2150407   1.5677410  39.2961687  10.3161239   1.5291339  38.0790228
  70.6187073  35.0067258  35.5418229  70.6437114  34.5503020  34.7008181
  70.9778503  34.3769908  36.1668682  -0.2203608  14.4987541  37.9427809
   0.0766754  15.0297934  38.6816973   0.5862927  14.2032677  37.5206083
  25.6712341  52.6361036  61.8184090  25.9867787  53.5114431  61.5938234
  25.4860187  52.6816273  62.7564144  17.3341918  44.3399668  57.7959490
  17.1437097  44.7535038  56.9539642  16.6833270  44.7055912  58.3950520
  58.0830681   4.6493679   5.6030268  57.2075564   5.0277525   5.6838650
  58.2395610   4.2253118   6.4467806  10.8248687  23.4325129  23.0744356
  11.6854000  23.0136114  23.0898661  10.8343386  23.9700991  22.2825140
   1.0013747   9.3344217  21.8298716   0.3740763   9.0083700  22.4751753
   0.7658267  10.2544743  21.7104906   3.1789684  27.4123531  29.7424788
   3.0081677  27.0882803  30.6268114   4.0088463  27.0050293  29.4942469
   6.5178442  67.0487165  47.2329569   6.4559972  67.2919750  48.1566620
   7.3733532  67.3765421  46.9557047  36.4438105  68.4729671  47.9480791
  37.3061156  68.1663036  47.6676893  36.0147953  67.6928282  48.2995892
   8.6676597  54.9581057  27.2983450   8.7849378  54.8162466  28.2376856
   7.8677654  54.4790369  27.0817942  10.8308589  55.8286285  59.2368507
   9.9815911  55.6947565  58.8160706  10.6373084  55.8226109  60.1742554
  14.5188046  62.4075747  50.6995535  13.9209247  62.3053217  49.9590731
  14.2416024  61.7384481  51.3253832  54.8814352   1.6834695  57.8862858
  54.5772798   2.5359876  57.5749397  55.7306845   1.8646200  58.2890177
  62.0827404  13.2158380   7.5608629  62.9788622  12.9777389   7.7985758
  61.8729803  12.6485544   6.8189615  11.5969384  23.8824201  60.0174236
  10.7162142  24.1603351  59.7657871  11.4780188  23.0010128  60.3712749
   2.7489778  40.1542330  46.3134146   3.2922181  39.5232701  45.8411789
   2.8571549  39.9206996  47.2353649  72.7920786  24.7347790   8.0250687
  73.2415953  25.4581123   8.4620613  71.8692783  24.8563677   8.2484240
  47.7456668  29.2230946  20.1425070  48.5070077  29.7680813  20.3414625
  48.1164524  28.4071117  19.8064798  21.4819074  49.1724920  63.6652660
  20.8554292  49.5013952  63.0206108  21.3589048  48.2232714  63.6561394
  38.3682783  60.5936693   2.9999060  38.5685547  61.5254902   3.0883879
  38.8910063  60.3063725   2.2512764  68.7548001  16.5127952  35.9698415
  68.3923371  17.2439582  35.4695964  68.2507356  15.7519443  35.6812930
  10.7924771   9.4006920  33.0271411  10.8212852  10.3549802  33.0959654
   9.9220526   9.2120200  32.6764321  23.9585209  46.9012833  31.6516161
  23.5254455  46.2048578  31.1579895  24.3010235  47.4925900  30.9813333
  19.8784792  36.1205196  45.5957127  20.7498646  35.7279301  45.5428791
  19.3872690  35.5364537  46.1734772  69.5056632  64.7871017  57.6265621
  69.0522066  64.5278502  58.4286833  68.8621357  64.6475649  56.9318438
  65.4009882  58.5353041  64.2811155  66.0061565  58.0055714  64.8001385
  65.2729193  59.3297100  64.7995234  72.8239861  10.1449448  26.9353289
  72.7946106   9.2611462  27.3017591  71.9734541  10.2565342  26.5106291
  64.6535257  28.0174881  23.9886183  65.1938739  28.3501106  24.7052855
  63.9377072  28.6487442  23.9154428  12.5056040  40.4813194  43.7975311
  13.0319011  40.9990168  43.1882381  12.3728013  39.6460152  43.3493567
  33.5795680   7.6009708  19.8849863  34.3255654   8.0312592  19.4671721
  33.7988701   6.6694265  19.8659128  56.9406545  68.8726812  43.9416880
  56.6497257  69.6237665  44.4588560  57.8242853  68.6898142  44.2610449
  37.4297860  30.7944494  10.7662815  37.1766630  31.3547808  11.4998955
  38.3019558  31.1022097  10.5196375  76.5483192  68.2434177  41.0313225
  77.3226326  68.0968857  41.5746450  76.8976716  68.4033871  40.1546288
  43.4677556  22.6577145  10.2875942  44.1932121  23.2705217  10.1675314
  43.8904724  21.8215614  10.4835266  78.2852498  26.2055450  11.9876474
  78.3295718  25.2503782  11.9437355  77.7967516  26.3859755  12.7907938
   6.2855339   0.9601146  16.5105719   5.8753061   0.1357466  16.7720217
   6.6321206   0.7880741  15.6350607  68.8957420  38.7721395  46.4986658
  69.7831098  38.5575938  46.2109518  68.3296255  38.2135153  45.9660482
  37.5578883   8.0530268   0.5134005  37.4008396   8.9132791   0.1241249
  38.4767869   8.0751663   0.7805485  41.3527842   6.1985881  51.6903639
  42.2799106   6.4299590  51.6343403  41.0500152   6.6161926  52.4966955
  19.1845739  30.9055471  22.8801942  18.7318826  30.2015805  22.4157238
  19.2123580  31.6275716  22.2523880  57.4560371   2.7680069  25.4215521
  58.3823934   2.9941278  25.3380960  57.1961212   3.1313711  26.2681002
  29.1815948  71.3338137  29.3004370  29.6451378  71.2996340  30.1372123
  28.3841634  71.8287802  29.4884205  15.8007443  68.0147552  35.6914258
  15.5764353  67.1000719  35.5203485  16.5746665  68.1765270  35.1518846
  21.0964441  57.8169870  55.8057976  21.5672350  58.6499405  55.8336067
  20.8154035  57.7310133  54.8948336  73.7830958  48.8209677  61.7270756
  72.8819445  48.6748266  62.0148277  74.0951780  49.5419741  62.2738695
  20.6013298  26.1123138   7.5448555  20.2788543  26.8471485   7.0230764
  21.4074373  25.8418947   7.1052021  13.2203341  13.2832026  44.2648411
  12.4342167  13.7994623  44.4429684  12.9975426  12.3992002  44.5566225
  23.0387068  71.0740662  52.8853893  22.5607872  70.6822586  52.1544218
  22.3659062  71.2556362  53.5415936  30.0835371  51.3350010  14.6729100
  30.6313753  50.7988071  15.2461469  29.8461223  52.0922184  15.2081525
   9.8018646  59.3554926  60.8574390  10.5912423  59.8459291  60.6281185
   9.8857147  59.1923523  61.7969036  67.8483406  67.2904015  60.0575447
  68.1764618  67.0398045  60.9211254  68.6368242  67.4367332  59.5349407
  12.2532320  61.9475937  31.9851208  12.6107597  61.0656166  31.8825340
  12.1033859  62.0373201  32.9262519  14.3789530  38.0420834   4.5650381
  13.8048315  38.7078339   4.1863579  15.2074194  38.4974724   4.7150177
  10.8929968   5.0436598  14.6155972  10.8517790   4.6315628  15.4785627
   9.9780249   5.1337391  14.3492455  13.8811922  50.7850456  51.6484737
  13.0251694  50.5172634  51.3141823  13.7467766  50.8959103  52.5896788
  15.8926344  52.9402971  25.4336882  15.5828667  53.4375000  24.6766734
  16.8221915  52.7928305  25.2593088  73.9220801  21.7949396   2.5441784
  73.7399545  20.8769470   2.3433107  74.3740597  22.1249300   1.7676109
   9.1861689  16.0828352  43.1162643   9.3618798  15.4596674  43.8212585
   8.8472408  16.8592501  43.5618401  48.7898286  72.3594545   0.8204121
  49.5361407  72.9522894   0.9086937  48.1744774  72.6469515   1.4948935
   8.6817676  50.7735586  59.5169735   7.7426457  50.5914974  59.4832706
   8.7375808  51.7180347  59.6621847   6.3513286  19.1720683  26.2688971
   6.1634167  20.0808055  26.0341454   5.7362898  18.6575611  25.7461667
  64.3597308  53.7593222  26.8731356  64.7026566  52.8668880  26.8262410
  64.2449358  53.9229155  27.8092408  36.2292333   9.4628818  43.3010149
  36.2166680  10.3140170  42.8632450  37.1445377   9.3352706  43.5503435
  73.5275749  35.7914400  42.3921061  72.7439544  35.2794886  42.1919107
  74.2207519  35.1390052  42.4924421  78.2637917  36.0443687  40.5130529
  77.5088215  35.5138683  40.2584553  77.9227068  36.9372582  40.5644751
  60.3894749  30.5056816   1.3157600  59.9599442  31.0899693   0.6909842
  60.0768796  30.7987505   2.1716970  69.5365051   3.3065397  63.4618902
  69.0522674   4.0450382  63.0926132  69.6724382   3.5439071  64.3791723
  19.4054997   2.6935652  57.3702860  19.3794489   2.1234590  58.1387472
  18.7456834   3.3641103  57.5470448  65.4904385  63.3320277  46.8793249
  66.2975808  63.8464050  46.8663311  65.7573124  62.4760144  47.2143602
   2.1269366  32.5243855  47.4300146   2.5073546  32.1581578  48.2283831
   2.7364928  32.2718310  46.7365503  52.0405212  59.6097994  55.8019447
  52.1903602  60.3146029  56.4320517  51.1119452  59.6799469  55.5804491
  76.5750817  22.9098368  45.0994968  77.1646065  23.6638880  45.0894880
  76.3582850  22.7630687  44.1787958  38.9355066   4.8890263  12.5603909
  38.0744472   4.6698338  12.2043509  39.4709113   4.1149717  12.3860020
  57.7450526  18.6163717  18.0390352  58.1279177  19.0537458  18.7995333
  58.1996897  17.7753263  17.9923910  15.5624719  13.9474208  39.5035124
  14.8638542  13.9973647  38.8510776  16.3043948  14.3930156  39.0945768
  72.7415362  40.3214413  16.4807886  73.0575338  39.4677120  16.7766375
  73.5049120  40.8952099  16.5462107  69.0138629  33.8836336  53.5338449
  69.1689149  34.7713518  53.2111263  68.6692038  33.4102941  52.7766228
  39.8321326   2.1045549  50.4081440  39.9948306   2.5811632  49.5941353
  39.1858466   1.4394290  50.1711798   4.7042486  21.6015959  52.7740097
   3.9431602  21.4645767  52.2099161   4.9592856  20.7212925  53.0501556
  31.1744840  59.4720076  16.8130774  31.1181380  59.2778896  15.8774561
  30.2830230  59.3457078  17.1380037  61.7995889  12.8346641  52.5911808
  62.0975836  11.9323737  52.4758959  60.8679898  12.7548988  52.7960968
   8.0674225  42.2067356  55.8738184   7.1549433  42.4869537  55.8024645
   8.5415417  42.9977512  56.1301994  72.3236057  29.1508818  54.2500591
  72.7764061  29.9881387  54.3510818  71.5281090  29.3660331  53.7630987
  72.4391231  32.2093821  58.7758255  72.1118167  31.4619565  58.2753658
  72.9800859  32.6957703  58.1537199  53.9750870   6.6264064  39.1115475
  53.1698020   6.1338813  39.2701912  53.7564142   7.5267990  39.3517852
  13.6624718  47.0079041  50.9931517  14.2728329  47.7408886  51.0733223
  12.8040206  47.3900080  51.1756086  56.5097284  25.5652529  12.9854483
  55.7276779  25.3342300  12.4841923  56.9996786  26.1510855  12.4084038
   7.1574306  37.7848649  27.6656604   7.4304533  36.9776368  27.2296834
   6.3356060  38.0227447  27.2364187  16.5434372  55.6685686  51.8509817
  17.4941695  55.7796478  51.8491888  16.2973034  55.7261896  52.7741957
   1.3542795  16.7467552  18.4014887   1.3670349  17.5138098  17.8290361
   1.6119337  16.0201651  17.8341192  35.3303352   0.6611448   4.3129057
  36.0532680   0.2904159   4.8190254  35.0564638  -0.0482267   3.7315125
  69.5483390  74.6895885  43.5633326  68.8898030  74.1262770  43.9698315
  70.1608482  74.0816784  43.1491947   9.4022447  72.0905733  52.7199459
   8.9652812  71.2618542  52.9162025   9.9694407  71.8917274  51.9749784
  79.0759626  10.2839190   2.5894255  78.4126940   9.8035723   2.0938725
  78.6005059  10.6466824   3.3368010   9.5728046  52.0631123  54.6275282
   9.2226827  52.1303415  55.5158567   9.5183563  51.1305904  54.4185591
   2.4907817  54.1374493  22.7601552   3.2023162  53.6570311  23.1834149
   2.0810813  53.4962416  22.1794415  39.0686750  42.6942921  65.0495958
  39.5497417  43.4197378  64.6514320  39.7046161  42.2745037  65.6288958
  20.5004478  66.8353415  19.0272319  21.3802004  66.9089508  19.3971682
  20.6163883  66.3082933  18.2366550   9.9154007  46.3741970  46.6797066
   9.5425862  47.2328568  46.4798498  10.5511129  46.5449667  47.3746443
  16.7204256  -0.0329392  63.1656456  16.7750473   0.8895643  62.9161644
  17.4644049  -0.1667016  63.7528706  37.0119329  43.7365733  -0.0367838
  37.2191520  43.1351201   0.6784386  36.4205368  44.3794440   0.3546232
  12.9166698  35.0008160  12.5000948  13.3746195  35.1856047  11.6801161
  12.0273828  35.3242594  12.3559231  70.2764991  42.6280600  27.0687098
  70.8799592  43.0010038  27.7113432  69.4882324  42.4226576  27.5713724
  62.4248274  74.3437575  14.9866194  62.8561147  75.1981972  14.9741262
  61.6989811  74.4327878  14.3690056  50.1968399  20.9676844   3.4301609
  49.7911090  21.8222481   3.2841009  49.4990739  20.3374630   3.2507843
  64.3716486  16.6670806  59.6111155  65.0669511  16.1162288  59.2514610
  64.0250142  16.1644370  60.3482866  32.0133987   3.4341722  12.3987669
  31.3020006   4.0421349  12.6000685  32.1421352   3.5204655  11.4541954
  73.4616170  43.3553028  55.7651424  72.6235202  43.5480165  56.1854839
  73.9884249  42.9519033  56.4550543   5.8686560  20.7571220  60.1278973
   6.2791353  21.5226269  60.5300665   5.6004465  20.2126098  60.8680344
  74.9893251   8.8713222  20.6931108  75.7184187   9.0643984  20.1037210
  74.2074171   9.0932518  20.1875395  73.7070051  32.0982033  15.6203550
  73.9667287  32.2117287  14.7060865  74.1353884  32.8188520  16.0822863
  70.0956562  25.4691320   9.0625519  69.7227827  25.9620672   8.3316559
  69.9537149  26.0287338   9.8260492  70.7861689  10.4470974   1.9300789
  71.5063611   9.8436314   2.1127981  70.8160856  11.0799604   2.6475901
  43.0915304  74.2983745   3.1523460  42.4276800  73.9402531   3.7416548
  42.9227741  75.2405594   3.1457705   5.7498783  47.7490711  58.2944727
   5.3469664  47.6767540  57.4292183   6.4287370  47.0742702  58.2997179
   4.0147495  19.0129572  15.3653139   3.3882498  18.3817583  15.7193178
   4.4451928  18.5469395  14.6485371   2.2113919  11.9855553  15.3393263
   2.8374648  12.6237541  14.9973196   2.2512960  11.2558704  14.7211069
  14.5844793  38.1824833   1.4768595  13.6915302  37.8453833   1.4044756
  15.1415586  37.4280983   1.2850470  33.5723749  17.0737558   2.2944731
  33.2428184  17.9650265   2.1793169  34.3741623  17.1791607   2.8065819
   3.4165398  57.3133682  13.4827131   2.8438537  56.5789686  13.7038845
   3.4504620  57.8396605  14.2815250  26.9320989  44.8080063  59.0105486
  27.1767235  44.6563864  59.9234581  26.6795015  45.7307816  58.9803600
  13.7664413  46.6070986  43.1326485  13.5535944  46.4986515  44.0595627
  14.6664023  46.9331264  43.1301165  49.6155787  55.5586910   9.4483984
  48.6832809  55.7004595   9.2842263  49.8756218  56.2940884  10.0031924
  16.7130565  34.2205053   1.8515915  16.4657736  34.6098524   1.0128492
  16.5129614  34.8973900   2.4981350  26.1126733  52.4374056  56.6104937
  26.4562273  52.8271198  55.8065510  25.6231642  53.1452036  57.0295858
  29.1206670  55.3275728  55.4063702  28.6544871  56.0449171  55.8357048
  28.6045051  55.1420450  54.6219015  24.4373775  71.9143867  61.0502481
  24.2235017  71.6394186  60.1586866  25.3375649  71.6173077  61.1830711
  12.3837686  56.7801094  38.1546235  13.2122469  57.2496700  38.2514095
  12.4392891  56.3720036  37.2905636   5.9143591   2.9257160   3.9514679
   5.0730395   2.8133636   3.5089821   5.9408188   2.2206384   4.5983023
  71.8126205  64.2482328  43.5837173  71.9855097  64.3052053  44.5234489
  71.5180651  65.1259708  43.3407307   6.8851334  66.3453865  56.3305426
   7.3979020  65.7617092  56.8896627   7.4630386  66.5387821  55.5923986
  17.9818511  26.3385105  63.8370466  17.8772056  25.3926921  63.9405155
  17.1985388  26.6155767  63.3617687  55.5278698  39.1912556  61.8336296
  56.2606326  38.6971664  62.2012806  55.0448528  38.5505486  61.3116932
   7.9767855   0.4742343  40.4324532   8.1084247  -0.0688164  41.2096262
   8.8284166   0.4774816  39.9954796  33.6578025  57.5627886  25.8752626
  34.0681751  56.7033218  25.7796377  33.2705702  57.5472675  26.7504972
  65.3959663  10.8322532  41.7209244  65.1517351  11.6266830  41.2460899
  65.6724317  10.2207191  41.0384083  48.0611785   7.8911979  28.6517525
  48.5662682   7.7605445  29.4542789  47.8343566   7.0066268  28.3648252
  76.9847966  28.0818963  62.2030735  77.6276523  28.6607862  62.6127768
  76.6793460  27.5206566  62.9157734  78.5769478   7.3260838   5.4246468
  79.2195311   6.9316631   4.8349422  79.0536752   8.0325561   5.8603758
  67.8402260  26.8063217  14.0787500  66.8954316  26.8514353  14.2255777
  68.2078734  26.6154486  14.9416727  25.8888626  66.6476582  13.2528442
  25.0227460  67.0204590  13.0882448  26.1680358  66.3061999  12.4033159
  10.9748657  70.2382635   6.3495583  10.0533839  70.0799130   6.1445517
  11.3544400  70.5438613   5.5256838  66.5540436  53.2971382  50.3080463
  66.5899137  53.9702034  49.6283865  65.6395153  53.2905626  50.5905819
  37.3698902  50.6404114  59.9649143  36.5243220  50.1969528  60.0326824
  37.5461555  50.6776381  59.0248203  45.6325729   9.9292858  64.3055248
  45.5544503   9.3895728  65.0921869  45.6550951   9.3000133  63.5845947
  77.5236799  43.9586639  37.2565126  76.7728561  44.3004608  37.7419734
  78.2195866  44.5975351  37.4107599  53.8898703  51.8111425   5.0786013
  54.8313594  51.7363459   4.9229235  53.5417462  52.1819883   4.2677254
  26.6962686  16.5107542   8.6073774  26.1560836  16.4817005   9.3970531
  26.9199792  17.4357038   8.5041183  14.1984177  59.7713184  37.8735161
  15.1337969  59.5959997  37.9762793  13.8731980  59.8684597  38.7685180
  23.9396778  27.4768740  21.7120165  23.0873027  27.1544176  22.0047850
  24.1822615  26.8936544  20.9928221  27.8300145   4.0036733  62.5666952
  26.9727582   3.5794933  62.6042747  28.4353419   3.3521802  62.9207659
  10.2208543  21.7733246   2.9853434  11.0704565  21.3621241   3.1444735
   9.5817542  21.1238914   3.2786316   5.7740164  27.2888237   3.3068508
   5.1231146  27.4593979   3.9876312   5.3263139  27.5030142   2.4883646
  18.7365007  29.7696215  13.5367197  18.0748844  30.4613548  13.5358614
  18.9588117  29.6519667  14.4602818  30.2915502  58.6824894  64.5831537
  30.9831214  59.2209005  64.1983461  30.7592416  58.0032730  65.0691175
  77.1801820   8.3612543   1.8835348  76.6949382   7.5382095   1.9415945
  77.3334661   8.4833437   0.9466118  59.7173277  58.7774569   8.7291521
  58.9868984  58.2088285   8.4854883  59.7096255  58.7803656   9.6863169
  37.1031173   5.5738838  55.1942921  36.9543095   6.5036018  55.0219202
  36.4584668   5.3484638  55.8649969  28.0093789  68.8932562  61.8759966
  27.9069686  69.8319721  62.0327044  28.7762523  68.6463976  62.3929119
  53.8251495  58.0631399  22.4706340  53.5947943  58.8431501  21.9659019
  54.7816086  58.0353022  22.4453211  33.5804796  62.2239876  61.5477848
  33.9641929  61.9992352  62.3954153  33.4444165  63.1705332  61.5898800
   5.6874257  47.0424891  42.8083658   5.9814745  46.5610933  43.5816908
   6.2661588  47.8037214  42.7657175  74.9535909  51.2343889  15.5786222
  74.1043201  51.1244589  16.0062784  74.8283711  50.8733088  14.7010321
  61.2914899  59.2903471  41.2187719  61.8301788  58.6802578  41.7225933
  61.7160765  60.1398373  41.3384247  11.7191815   4.3120581  22.7241415
  12.6176190   4.5199543  22.9806990  11.7570042   4.2208105  21.7720503
  36.8478325  21.4552361   5.1279921  36.5927282  22.1355921   5.7511038
  36.6675356  20.6331163   5.5838961  38.2728457  63.1998587  59.6519756
  37.7102709  62.6282549  59.1294765  38.9144921  63.5396147  59.0282059
  50.7751425  14.4084365  21.8482709  51.1780913  15.2758510  21.8102765
  51.3368876  13.9091403  22.4410462  24.0900961   9.8037153   8.7989992
  23.2797089   9.5580822   8.3527130  24.6141925  10.2346569   8.1238359
  76.5885637  74.8096657  12.4409473  77.0681635  74.3818235  13.1502903
  76.6908232  75.7456732  12.6131606  37.5931735  66.6750740  10.0262636
  37.4389859  66.2377261  10.8636326  38.4043737  67.1657823  10.1581377
  44.3847854  10.5736167  36.7113566  44.6457739  10.9902580  35.8900595
  43.4541400  10.3810699  36.5970874  55.0936611  17.5628955  35.2022386
  55.8351095  17.1149261  34.7950387  54.3221767  17.1291263  34.8377061
  52.7064641  12.1279056  48.4895992  52.6085170  11.2227161  48.7850189
  51.8459709  12.5214584  48.6341381  74.5057526  34.6558958   3.9106697
  74.1848698  35.3618198   3.3494801  75.4590192  34.7117191   3.8443560
  26.9911098  67.8785133  34.9207449  27.4677134  68.5523748  35.4055047
  26.8790221  67.1653843  35.5493259  79.4063596  59.2730236  50.7316113
  79.7134812  59.9298334  51.3565159  78.6023280  58.9293909  51.1210728
  51.4830388  11.0217434  14.6297163  51.5165448  11.9782597  14.6432585
  50.6212574  10.8071905  14.9868292  55.1727183   2.1424110  61.5941572
  55.9628303   2.6420791  61.3885164  54.6300681   2.7490003  62.0979500
  62.8536709  16.1415584   8.9613247  63.3531030  15.3443248   9.1380262
  63.3635099  16.8396385   9.3724012  28.9372486  74.2414092   3.9317221
  29.4676711  75.0373314   3.8944143  28.2909539  74.4161390   4.6158308
  34.9529338  65.6329966  36.5147901  35.7671642  65.1436901  36.6324544
  34.3329334  64.9879932  36.1744952  10.7685137   1.2981969  18.9521307
   9.8326349   1.3577181  18.7602419  11.1327576   0.8046394  18.2173151
  64.4775906  16.4913469  17.4394316  64.5509043  16.1238247  18.3202166
  64.3658271  15.7296473  16.8706125  70.5434266  59.0636927  14.6671957
  71.3241568  58.9340979  15.2056211  70.2190354  58.1790071  14.4988388
  27.2294531  72.0173477  16.8346304  27.2761761  71.0681866  16.7199892
  26.2948955  72.2014688  16.9291491  67.9361327  66.4509915   2.8971523
  68.6933835  66.9649004   3.1776899  67.3429520  66.4689587   3.6481804
  56.9941099  19.2801196  37.1864128  56.7866762  19.8500068  36.4458513
  56.2341149  18.7035472  37.2651744  22.8784656  14.7406488  18.9136118
  22.2922992  15.2818018  18.3846468  22.9499054  13.9191919  18.4274668
   8.0626344  25.2227312   2.1173185   8.6100268  25.9570414   1.8391365
   8.6844539  24.5647388   2.4281496  72.9818639  64.7003365  37.8026319
  72.1887949  64.6909523  37.2667360  73.4008465  65.5357361  37.5957608
   8.7969375  61.3937807  10.4167247   8.7185669  61.4840603  11.3664305
   8.7811303  62.2928286  10.0885558  68.1390841  72.6112960  11.5178961
  68.8573296  72.2091864  12.0064253  67.6177676  73.0594514  12.1839422
  10.5077636  69.0788555  60.8147812  10.0110960  69.8086500  60.4447079
   9.9223149  68.6982775  61.4694881   3.9331567  46.6671038  50.4311943
   4.5865262  45.9758902  50.5387497   3.3097780  46.3110209  49.7980785
  50.5437893  53.6075884  17.8355402  51.2957621  53.9278894  18.3337111
  50.6893787  52.6643854  17.7620024   5.0051371   1.3682039  55.5075121
   5.4173056   0.6009252  55.9045410   4.5728175   1.0291774  54.7236824
  78.4247199  61.8419939   1.5558952  78.2676187  60.9908586   1.1470884
  77.7037421  62.3917967   1.2490744  11.7299743  70.7891296   3.8445276
  11.9441302  71.4521478   3.1881947  10.9600575  70.3429316   3.4918732
  61.8282874  71.2024854  13.8303417  60.9330590  70.8990286  13.6796469
  61.9651945  71.8819355  13.1701607  63.7752683  22.5905616  52.9591894
  64.0470965  21.6762550  53.0391550  64.5952280  23.0843456  52.9506779
  70.9614642  15.6714923  30.3793716  71.7076571  15.7407672  30.9748816
  71.1477692  16.3058097  29.6871519   1.0970752   5.9160526  58.1926489
   0.4869954   5.3375347  58.6501932   0.8688800   5.8215816  57.2678566
  27.9763079  52.5296211  58.8252401  27.4652767  53.1878233  59.2962503
  27.3966622  52.2334909  58.1234217  22.7784109  69.5581150  49.9449778
  23.7047195  69.7904682  50.0097561  22.4399304  70.1160526  49.2447138
   6.0718059  41.0507017   5.6504768   6.5805268  40.2901131   5.3695244
   6.2315798  41.1110836   6.5923161  14.7563696  56.0700422  24.3716520
  14.2452001  56.3232046  23.6029810  15.6230449  56.4459425  24.2173666
  19.1060126  50.2374315  22.8086138  19.6556151  50.3708410  23.5808659
  19.6574044  50.5045223  22.0731807  44.0263911  68.6461304   6.6470808
  44.7316439  68.2506155   7.1593470  43.5382111  67.9011654   6.2964529
  31.4576983  59.5319414  55.2488661  31.1397099  60.4330587  55.1931524
  30.7662511  59.0084791  54.8437452  40.1519139   0.2324970  58.2335281
  39.9378999   0.4743965  57.3324633  41.1077662   0.2674873  58.2703257
  20.6781466  17.2003085  47.5449562  20.9238459  16.9671256  46.6496944
  21.5065725  17.4200637  47.9711533   3.9505346  12.8553016   8.5920548
   4.5428355  12.2010238   8.9626402   3.6261208  13.3413989   9.3501389
  76.8227727  52.0851612  53.6820459  76.8787676  52.9306316  54.1273308
  77.6081390  51.6147566  53.9615965  34.6908593  65.7507563  59.2400551
  33.9035559  66.1361504  58.8555384  34.6318698  64.8200655  59.0242577
  11.0101580  13.2950598   4.9978966  10.6811881  13.1779390   5.8891291
  10.2223158  13.3491188   4.4569534  75.4045835   6.1748987   2.4528831
  75.7254377   5.4362160   2.9702133  75.2388063   5.8057457   1.5854305
  66.8317905  10.6534439   3.9701981  66.0184923  10.2154356   4.2210478
  67.5213996  10.0359827   4.2139429  12.8481793  17.1194607   2.6746744
  13.2550096  16.5568262   2.0157618  13.4044265  17.0237690   3.4477610
  58.8041136  36.1035019  21.5593237  59.2887411  36.5163046  20.8445066
  59.3086901  36.3155609  22.3445982   6.3319951  56.7560625  59.5794821
   5.7364374  57.3764229  59.9998379   7.1334356  56.8026686  60.1007795
  63.3308605  57.5782013  59.2212105  63.3053842  58.5043001  58.9805269
  62.4232510  57.3609924  59.4340420  18.9451635  12.6083004  54.8384142
  18.1488729  12.2514963  54.4449091  18.9868844  13.5097492  54.5192242
  78.6724027   2.3137338  46.5232897  77.9583342   2.9254014  46.7027140
  78.2354291   1.5171726  46.2220049  37.3327239   1.5354020  47.0199394
  38.1108876   1.2225253  47.4812460  37.6144834   2.3472125  46.5982676
  69.4060373  55.8687305  37.4174547  69.2043734  56.1419344  38.3123994
  68.5508060  55.7646704  37.0003366  40.6207009  11.4209373  59.0516520
  40.2745791  12.2871311  58.8368654  40.0641222  10.8131320  58.5647964
  50.7051618   6.9925506  63.7175369  50.7992752   7.7347095  64.3146753
  51.5588792   6.9185550  63.2910109  30.5949135   5.3874214  61.2282372
  30.8262639   5.8427150  62.0378160  29.6843608   5.6342895  61.0664225
  30.3319097  61.4482021  62.4823427  30.9431410  60.8566761  62.9213428
  30.5378699  62.3126316  62.8381157  15.5408668  47.8443056  17.2825331
  16.1023283  47.6024824  18.0190844  16.1507702  48.0549437  16.5755075
  38.6517143  22.1360069   2.9038185  38.0183267  22.1311861   3.6214727
  39.2346620  22.8684145   3.1037754  40.7536316  35.6669044  61.4574289
  40.0337791  35.9968901  60.9196997  40.6596899  36.1266947  62.2916937
  52.8705509  73.7484811   8.7119907  53.0033000  74.6901368   8.8210529
  51.9914611  73.5891532   9.0555710   2.8992945  67.5204277  55.9673357
   2.5346467  67.9296112  56.7520809   2.4072641  67.9089069  55.2439928
  51.1493750   1.2715655   5.5274958  52.0634530   1.0699588   5.7276148
  51.1243808   1.3486916   4.5737356  45.9617205   5.3094871  64.7000599
  45.5921574   6.1716277  64.8907566  46.8566187   5.4907138  64.4127512
  76.6622439  26.9305044   5.1908392  75.9659448  26.3602501   5.5167383
  76.2102619  27.5695330   4.6398586  55.0165446   3.4532840  37.7082062
  55.4260142   3.6811406  38.5428619  54.8725612   4.2943771  37.2745514
  47.8496504  65.6641531  38.0275011  47.0901394  66.0622835  37.6022172
  48.0569458  66.2561369  38.7505603  48.8098955  62.8082228  59.4177103
  49.3773937  63.5789251  59.4318819  48.8674831  62.4520445  60.3043079
  58.1334683  18.6278969  28.2206625  58.2983640  18.9318090  29.1132349
  58.6946109  19.1770655  27.6731581   8.3037555  55.7860947  57.9024696
   7.6033038  56.0505199  58.4988546   8.6894089  56.6103172  57.6055574
  16.4268493  24.5655924  25.2706999  17.0062256  24.8264461  24.5547956
  15.5518102  24.8153358  24.9737734  25.7990956  72.1324062  21.1978316
  26.0738373  72.8375387  20.6117082  26.2482309  72.3177910  22.0225382
  71.8052188  38.7105852  21.6349501  72.4771562  39.1899782  21.1502642
  72.2926381  38.2128244  22.2913641  47.0135927  20.4046774  56.2812185
  46.7640877  21.2684798  56.6095829  46.5376329  20.3156686  55.4555273
   3.3809209  15.4835182  25.1256174   3.0333185  15.3910023  26.0126585
   3.7677288  14.6301466  24.9297327  39.1622145  72.0789956  28.2055658
  38.4276302  72.3562573  28.7530512  38.7720139  71.4856504  27.5637526
   6.1178899  12.4212891   2.4160332   5.4016399  12.2419125   3.0251640
   5.6845712  12.5853210   1.5784449  69.1263500  26.3285356  16.5702242
  69.1168383  25.3714281  16.5610689  68.5417882  26.5670019  17.2897047
  34.4109157   7.4402672   1.9526571  34.0710607   8.1702190   2.4702496
  35.3419545   7.6352745   1.8460316  45.9135075  69.2164134  16.4831919
  46.3131745  69.9680589  16.9208330  45.0052901  69.2183255  16.7854685
  13.3193374  73.4488964  62.7433300  12.7122545  73.7098455  62.0508099
  13.7871969  72.6966333  62.3807859  18.3837890   0.9263140   7.7979559
  18.9099884   0.1417690   7.6435560  18.6896944   1.2575370   8.6423153
  13.3128547  47.3762327  20.0915331  12.6070189  47.8135591  20.5677408
  12.9861998  47.3010927  19.1949362   1.3004369  68.8672876  54.1017246
   1.0485312  69.6739483  54.5512533   1.2143611  69.0747261  53.1712437
  70.5574635  39.9434286  19.2643827  69.9995855  39.1669708  19.3103785
  71.3511816  39.6422201  18.8222116  63.1122318   6.2938839  10.6544155
  62.1843258   6.5270382  10.6250948  63.2295755   5.8854681  11.5121264
  18.9242876  58.1424570  25.5932307  19.2742383  58.7572670  26.2380385
  19.0526211  58.5794830  24.7513437  51.8773873  73.2043956  12.1720833
  52.3827298  73.9851140  11.9454950  50.9828003  73.5239361  12.2897285
  65.8525124  25.4624659  23.8199991  66.0784736  25.7546669  22.9369349
  65.5104807  26.2455851  24.2512316  49.9424088  21.0770708  13.0945295
  50.6210408  20.5705601  13.5407776  49.3290958  21.3192659  13.7883753
  33.1122156  11.9706828  52.0042515  33.0677207  11.3115127  52.6968956
  32.2271575  12.3326499  51.9608736  33.9987040  73.2503510  20.5202246
  34.1747236  72.9591751  21.4149141  33.0443549  73.3035040  20.4690337
   3.2834622  60.8304977  57.1544933   4.0206528  61.1627913  57.6667070
   3.2347429  59.9014521  57.3797321  10.2512765  11.4109713  12.5447744
  10.2950787  11.9662529  13.3232159  10.6457591  10.5829721  12.8186983
  41.6765213  49.1819286  60.7719278  42.3700047  48.9208412  60.1660013
  42.1416616  49.4956636  61.5474558  42.2356510  56.4698696  52.6650572
  42.6117516  56.9917631  53.3738661  41.9991112  57.1111488  51.9949484
  10.0154340  60.8133459  49.9080181   9.9222368  59.8619080  49.8599005
   9.4093001  61.1471272  49.2466402  71.9183667  18.5836704  33.6964345
  71.3763745  17.7970798  33.6351800  71.7940696  18.8908393  34.5944500
  17.2920418  72.9899216  53.3925772  17.2329712  73.0086660  54.3477678
  18.1820714  73.2860279  53.2017899  61.8847561  61.5132284  42.5264645
  62.0086479  62.3294210  42.0419884  61.7824554  61.7886257  43.4374666
  25.6885505  66.6622019  44.5726776  25.8996749  66.5891743  43.6419106
  24.9190402  67.2308397  44.5998335   5.3022003  34.6630436  27.2592157
   4.5488453  35.0389582  26.8038363   5.4070210  35.2080160  28.0391211
  53.8508184  17.9357536  47.7495384  54.5803197  18.5323627  47.5818443
  53.7041791  17.4954707  46.9123554  36.9548114   0.7113845  49.7989368
  36.8482299   0.1992090  48.9973450  36.8383177   1.6196306  49.5201111
  11.2066174  73.4372520  21.0580587  11.4136946  73.0210495  21.8947935
  11.5502477  72.8340960  20.3990030  52.3139103  13.1341178  37.3817301
  51.4282163  12.8459842  37.1609211  52.7723558  13.1641013  36.5419912
   1.4452678  53.8982058  33.5512471   0.8393091  54.1714907  32.8625083
   1.7534149  54.7176933  33.9381742  37.9527020  16.9695354  60.3191614
  37.4865413  16.9982386  59.4836378  37.9089975  17.8671312  60.6487703
  75.8703128  13.9944225  32.1932596  75.6632486  13.3729940  31.4952749
  76.4127651  13.4960562  32.8044981   1.5343070  47.9614454   4.2896742
   1.4593887  48.5435778   5.0458092   2.3553133  48.2184130   3.8699764
  52.8828438  21.0948474  46.5748119  52.4874695  20.3504951  46.1210966
  52.6987942  21.8451221  46.0096169   2.1005273  20.6073385  10.8667320
   1.2406540  20.4248434  10.4878611   2.7127576  20.4853540  10.1411098
  35.3394580  70.0590324  39.0726781  35.5475020  69.4598961  38.3557510
  36.1393118  70.0914526  39.5974755  77.4813747  66.4393234  61.7894220
  76.9103193  65.9201145  61.2232590  76.9106483  66.7353249  62.4985647
  60.5836466  33.3076292   5.3860897  61.2309709  33.8548952   5.8307261
  60.9933481  33.0828100   4.5507235  27.2382259  10.8229643   3.2306808
  26.2833547  10.8783203   3.2678980  27.5411749  11.6378361   3.6312288
   0.1049304  55.4714685   2.2685188   0.8751440  55.8131224   1.8143410
  -0.5224586  55.2859598   1.5698046  19.8184788  54.6630049  61.6422415
  20.3581977  55.4534578  61.6531181  19.4876230  54.5865631  62.5371838
  63.8718918  32.7764803   0.3896660  64.1167679  32.9921299  -0.5102020
  64.4203821  32.0246321   0.6135220  53.4417899  16.4048393  33.5052276
  53.9228423  16.2314041  32.6960659  52.7008851  16.9458587  33.2321262
  32.7474737  23.0042988   1.8405050  32.1288681  23.7326580   1.8957180
  33.4260320  23.2172781   2.4811548  16.0532236  27.4606901  10.3630537
  15.4358387  27.0139652  10.9422821  16.5364361  28.0530315  10.9391302
  37.5595684   6.9538028  61.4011478  36.6414817   6.9910915  61.1328983
  37.8140135   6.0421760  61.2582397  43.9512594  30.8181102  65.0946760
  43.6750753  29.9276645  64.8777056  43.6647220  31.3460452  64.3494129
  23.7809086  30.1250416  21.0876268  24.1116523  30.3144413  20.2095789
  23.9348650  29.1875654  21.2044996   8.4812444  75.0034857  25.1271343
   7.7422351  74.4091177  25.2568364   8.7674069  75.2266932  26.0128665
  17.0135784  33.6008459  14.3241352  16.5584516  32.8084045  14.6089691
  16.3122844  34.2084986  14.0892309  55.4631431   4.9126632  50.1034927
  55.8069427   4.0194471  50.1176119  55.2157553   5.0884635  51.0113049
  18.6207390  19.3228155  17.3770613  18.1236553  20.1407438  17.3886675
  18.7032461  19.0795856  18.2991594  67.8241065  63.7736994  36.6338343
  67.7200559  63.5318476  37.5541109  67.6944283  64.7219664  36.6192621
  53.2778724   3.6720998  63.3519363  53.0211623   3.2596547  64.1766882
  53.2069190   4.6114595  63.5216284  41.8209711  33.2987982   3.5020536
  41.2463179  32.7830177   4.0677208  41.2582055  33.5784250   2.7800221
  57.7131525  68.4790277  49.9989796  57.2588197  67.8292227  49.4627237
  57.7316466  68.0953646  50.8757305   1.8237638  19.0455299  13.3382792
   1.2180733  19.7755962  13.4662575   2.3508906  19.3015009  12.5814146
  36.6884804  65.1155710  61.6046953  36.8294907  64.3642378  61.0286283
  36.6121864  65.8620501  61.0104036  19.1790358  13.8202388  47.5640345
  18.7637202  14.0132434  46.7235041  19.1136329  14.6381767  48.0569220
  68.3222178  25.3133493   6.8546719  68.0913201  26.1482817   6.4474768
  67.8885856  25.3348881   7.7077431   9.0429258  49.8179537   4.5264334
   9.4915962  49.0354734   4.8468203   8.1320548  49.6987825   4.7954077
  70.5095036  19.3607910  12.3879707  70.5738099  18.8299377  11.5940619
  69.6694548  19.1131599  12.7742815   1.6722107  11.2504250   5.6717724
   0.9558701  11.8369013   5.9149355   2.2762060  11.8029505   5.1756472
   9.5123178  36.9550562  58.4304476  10.0174487  36.8907571  59.2409658
   8.8673222  37.6407003  58.6039591  27.8759575  29.1963821   3.3837837
  28.3161115  29.2320782   2.5345320  28.2623100  29.9150997   3.8841909
   4.9211819  72.7856825  15.0780195   5.2554138  72.1058463  14.4929117
   4.0302832  72.9506372  14.7692722  17.5727319  37.8034216  21.8546289
  18.1826353  38.4545427  22.2014708  17.5180435  37.1374660  22.5400156
  53.0201514  13.3719261  43.6528158  53.0242951  12.4760444  43.3157444
  52.2941358  13.3898647  44.2763662  31.6222835  67.3877144  55.6731939
  32.3934770  66.8364716  55.5404425  31.6759157  68.0455875  54.9799681
   2.4474494   3.3491046  61.8352795   2.0036618   2.8791244  62.5412560
   3.3246676   3.5220058  62.1770716  41.2202406  74.7174263  37.9202676
  40.9556961  75.5470467  38.3177233  40.8208323  74.0477419  38.4754539
  12.7878682  18.5870368  47.5144958  13.6313168  18.2213409  47.2478485
  12.8711478  18.7172420  48.4591341  60.2653845  16.1439712  56.9596434
  59.4078191  16.0623557  57.3769617  60.1671512  15.6941516  56.1204529
   9.1998116  10.8375652  62.8926754   9.5032613  10.1560981  62.2928762
   8.2481019  10.7364089  62.9083538  63.0235478  52.5572496  19.1024679
  63.8993517  52.2601992  18.8555807  63.0127969  53.4868341  18.8744539
   4.4281546   0.8839805  52.7791262   5.1334874   0.7351358  52.1493769
   3.7763945   0.2144248  52.5714397  64.5718201   2.2962816  45.0674057
  64.5476063   1.9208248  44.1872501  63.6833294   2.1773441  45.4030657
  65.2703694  26.0267645   6.1735338  65.5453590  25.7907539   7.0594877
  65.7286194  26.8470913   5.9910578  28.4244061  72.9807997  32.7512932
  28.3144164  73.7968826  32.2632909  28.9963675  73.2141924  33.4824705
  64.5942815  35.5210979  42.9002428  64.6641047  36.2694461  42.3075008
  64.0467174  35.8356197  43.6196089  13.9213800  63.1514078  22.2296614
  13.6467409  62.2492987  22.3939890  14.8113441  63.0720621  21.8863005
  31.4205694  31.1166626  10.1030058  31.0475445  30.5437475   9.4330448
  32.2974157  30.7652384  10.2575106  61.2261486  26.2369114   6.1323494
  61.8342495  26.1106926   5.4039806  60.3675079  26.3153654   5.7166475
  65.9334865  53.6070639   9.8753637  66.3795760  54.0960031  10.5668682
  65.3423253  54.2443472   9.4745821  44.9565204   1.6241748  59.3320465
  44.3934090   1.4657552  58.5743904  44.6057995   2.4216754  59.7285509
  27.6141221  16.7230708  43.9242363  27.2423065  17.5922210  44.0744114
  27.1917570  16.4173038  43.1215239   7.8191000  63.9894915  51.7925549
   7.3127389  63.1784105  51.7480803   8.2567936  63.9522648  52.6430082
  66.0919932  71.5465456   7.8920168  65.5555144  70.8250147   7.5636620
  66.8978396  71.4992052   7.3776239  70.0075753   5.8592899  31.5809631
  69.5616134   5.1608856  32.0601082  69.5239384   6.6530998  31.8094158
  70.4120953  22.1735771  32.1621943  70.4149516  23.1307609  32.1584988
  71.1903317  21.9297988  31.6610456  59.8797825  25.6426435   2.7110285
  59.1827557  25.2416187   3.2302279  59.9462155  26.5358835   3.0485815
  76.4464036  49.8559767  13.2288212  75.6318131  50.3176409  13.0299801
  76.2098017  48.9289671  13.1987709  11.6274118  39.0760570  22.8372759
  11.8592405  39.4268328  21.9773668  12.4486398  38.7257534  23.1823915
  70.9840663  15.6444270  45.2055120  71.8007405  15.2032955  44.9716949
  70.8943303  16.3420970  44.5563269  34.4489622  53.5235601  11.5043253
  35.3403377  53.3285719  11.2150854  34.5221615  54.3645006  11.9556421
  47.3498137  11.8406970  62.2647953  47.8865035  12.3067767  61.6237307
  47.5812419  10.9194763  62.1464014  21.0444863  20.4880531  49.5250225
  21.8538035  20.4920108  50.0361204  20.4163922  20.0194080  50.0746632
  73.1245025   3.4684331   2.6354203  74.0515359   3.4333188   2.8712371
  73.0616076   4.1981418   2.0191368  26.9954729  26.3390690   2.3674768
  26.9410610  27.0914560   1.7782587  27.9305029  26.2440783   2.5489325
  75.5734530  57.5096941  46.0104847  75.2010429  57.9920292  45.2723169
  74.8252517  57.3260880  46.5785694  16.2136650  29.4928747  24.9051947
  16.8467426  28.8716131  25.2650255  15.7336092  29.8146587  25.6682390
  16.0237598  23.7341600   2.5418133  15.3213787  23.2005602   2.9135126
  16.5507459  23.9960152   3.2967657  19.2798996  28.1355864   6.2519974
  18.8179111  28.4634310   7.0235676  18.5842895  27.9072052   5.6353945
  28.2072639  43.4612280   0.4802650  27.4748087  42.9218393   0.1822657
  27.7948141  44.2406755   0.8525366  22.8974438  75.1196623  24.4060397
  22.8520370  74.1914129  24.1768479  23.6834979  75.4378176  23.9620471
  42.5547457  65.9211302  62.8484917  41.7412472  66.4029408  62.6991606
  42.2780466  65.1105928  63.2759237  64.3602943  64.2270708  54.6715593
  64.3988180  64.2893076  55.6259584  65.2449417  64.4490957  54.3811560
  40.8300009  15.8195454   3.8169760  41.2241152  15.3081566   3.1103033
  40.4863384  16.6010862   3.3841700  11.3208389  56.5265608  62.8130913
  10.6316197  57.1443510  63.0571079  12.0874953  57.0756388  62.6488304
  17.2384799  56.2780905  54.4922495  17.7302730  57.0002699  54.1013193
  17.6239300  56.1687231  55.3615618  48.5520919  27.2388275  47.7237892
  48.1424601  26.5476425  47.2035027  47.9727586  27.9934318  47.6180840
  56.0218103   9.5643432  43.2934761  56.5325530   9.8734767  44.0416765
  55.2684267  10.1537235  43.2578182  12.3852603   8.2201393  30.6175971
  12.6135461   8.7415035  29.8479915  12.9773871   8.5316093  31.3021398
  72.8164521  21.1276489  31.4315027  73.5690561  21.0228258  32.0135969
  72.9327646  20.4502636  30.7652849  17.5144780  53.3709860  28.0072379
  18.0624068  54.0085077  27.5494456  17.4923551  52.6119328  27.4245000
  16.8825102  27.7359825  18.4031195  17.3955250  27.0478540  18.8268274
  16.9198513  27.5228506  17.4706930  16.8544674  32.5416952  19.4360632
  17.0982790  32.1660572  20.2820486  17.4167824  32.0937496  18.8041014
  32.3929334  54.5087910  59.3652582  31.7066503  54.3614244  58.7144661
  33.0034208  53.7825680  59.2382002  72.7165714  54.6705729  12.0462030
  72.6318279  54.6545511  12.9995102  72.8573862  55.5932051  11.8337339
  20.9393789  13.8704307  60.0472689  21.1225541  13.0926425  59.5202827
  20.1597978  14.2538555  59.6454334  19.7495532  74.3347025  59.7282314
  20.2776003  74.3581343  60.5262613  19.3214476  75.1903343  59.6990967
  54.3394120   4.7062118  47.5487709  54.8916323   4.7117002  48.3306026
  54.9550326   4.6162946  46.8213415  37.9527116  62.3254061  62.0791817
  38.5780358  62.9310513  62.4771690  38.0626845  62.4525499  61.1368608
  19.0431404  22.4196201   2.2222513  19.0868568  21.7276579   1.5623182
  18.1067848  22.5800997   2.3393578  14.3107938  41.9064671   7.9968828
  14.4743347  42.8092199   7.7238888  15.1828813  41.5333181   8.1251711
  25.8975077  71.8520880  52.7360439  24.9698377  71.8408585  52.9716969
  26.2852931  71.1483002  53.2561731  61.7725284   8.1907470  38.1461763
  62.5007780   8.6187179  37.6959276  61.1605485   8.9006908  38.3403349
   9.5708728  38.4468180  10.8532566   8.7578511  38.4309965  11.3582081
   9.2915177  38.6237579   9.9549860  55.8895524   0.0919587  53.8264656
  56.1384089  -0.3162186  52.9971933  54.9723847   0.3382165  53.7064791
  53.6167907  61.1042028  12.8771824  54.0119362  61.9565779  13.0603785
  54.2764663  60.4693800  13.1565422  17.0225429  23.7583691  21.3983912
  17.5878238  24.0066391  20.6669230  17.0495033  24.5116764  21.9883341
  77.9967101  23.9533145  29.2717552  77.5668032  23.1100566  29.1291475
  77.7275832  24.2134101  30.1527500  12.8431726  43.2537937  60.0523329
  13.4632063  43.3571863  59.3304634  12.3071420  42.5013876  59.8017502
  37.2782278  63.1811476  34.0016937  38.1850576  63.4815645  33.9413762
  37.2864628  62.3124504  33.5997844  72.1841767  45.5117804   1.1136240
  72.7453664  44.9434858   1.6412062  71.4336291  45.6978041   1.6778130
  27.0140147  74.8022509  55.9578943  26.9241452  75.1262379  55.0616884
  27.4824452  75.4984665  56.4184237   5.6287408  36.6656166  34.6995253
   6.1125350  37.4629551  34.4840426   5.3515672  36.3172632  33.8521379
  29.5075321  63.7238884  27.2322965  29.5593119  64.5043087  26.6804814
  29.7232413  63.0000448  26.6442919  27.2831322   6.1779125  64.1340017
  27.4073670   5.2710349  63.8540411  27.2127187   6.1267955  65.0872374
   8.9612929  25.0659568  48.2416296   8.1616418  25.5903728  48.1994915
   9.5284144  25.4393394  47.5669479  76.9775215  30.5445486   8.2298512
  76.3154808  31.1416870   8.5782188  77.1243921  29.9127775   8.9337915
  20.6035566  43.4191996  20.2811426  20.3091478  43.5225206  19.3762201
  20.6541490  42.4720484  20.4098887  72.2556289   3.6648280  50.2742290
  72.6173003   4.5457561  50.1773024  72.2242720   3.5215289  51.2201214
  47.8055456  45.0125509   8.9117283  46.9266596  45.3704077   9.0371174
  47.6583383  44.1223246   8.5922617   7.1152544  27.7577024  17.8884882
   6.1858940  27.8807121  18.0818552   7.5668788  28.0797869  18.6685747
  67.1349318   4.8257072   9.6530789  67.2271712   5.2051933  10.5269861
  66.6571791   4.0086563   9.7959602  24.3915987  54.6092516  10.6631559
  24.8492908  54.7819525   9.8404020  24.8496294  53.8573652  11.0387844
  24.6889209   2.2982031   4.2997116  24.7228813   1.5748673   3.6737246
  25.1094007   3.0281979   3.8452524   0.8405511  11.7106445   0.9403634
   0.6676547  10.7692153   0.9468482   0.2572219  12.0659168   1.6109917
  41.3527631  47.1748644  14.0668386  40.5733299  46.6395670  13.9179605
  42.0648956  46.6783911  13.6635918  58.6285575  16.3009364  52.2317219
  57.8761180  16.6618163  51.7628574  59.1881378  17.0578964  52.4052858
  34.5900536  69.6728563  57.5562763  34.9174738  69.6112156  56.6589308
  33.9982915  68.9260054  57.6471519  54.2244530  68.8456488  53.7113190
  53.6512041  69.4340086  53.2199526  53.6669207  68.1009102  53.9366007
  53.7932642   3.2377345   3.6323541  54.6748264   3.0265291   3.3249924
  53.8100512   3.0328185   4.5672122  15.4714346  59.3502998  55.2873802
  16.1305881  58.9563990  54.7159004  15.9238970  60.0829124  55.7054615
  13.1515455  31.5101820   4.2013926  14.0845585  31.6085630   4.3912310
  13.1183433  31.2919289   3.2700008  21.3105344  45.4413324  31.5988249
  21.9360780  44.7198873  31.6654963  21.6274690  46.0918146  32.2254557
   5.5895281  29.0361172  25.1221842   6.3108611  29.5637709  24.7794146
   5.0941372  29.6389919  25.6765837  52.8808005   0.3565891  59.3416071
  53.5329612   0.8141668  58.8110065  52.7348597   0.9332044  60.0915718
  48.2136114   5.6588275  32.9993296  48.9927132   5.2976901  33.4221864
  47.6664503   5.9617145  33.7239718  79.1766794  48.9354420  30.7539034
  78.9466748  48.5740519  31.6098976  79.9781093  48.4741306  30.5066538
  78.9583603  34.8177105   6.3221115  79.3233767  33.9676815   6.5679592
  79.6053544  35.4535871   6.6275496  57.4020584  57.9028915  22.2594732
  57.4361666  58.6962818  22.7938932  57.3165424  58.2225965  21.3613123
  49.0368636  21.2980564  63.2406998  49.8328288  21.4647205  62.7358294
  48.6998113  20.4731758  62.8911114  65.2438815  18.9609344  28.2847190
  65.5467732  19.8462779  28.4863567  64.3406852  18.9389713  28.6009240
  66.6167291   8.0954082  62.0842075  67.4830087   8.4103591  61.8261337
  66.0203727   8.7998016  61.8303967  44.5763922  41.2914515  57.5674200
  44.0948677  42.1025229  57.4045610  44.6116161  40.8584309  56.7144966
  57.2943361  10.9239871  33.9235950  58.2164009  10.7178600  33.7701750
  57.2980244  11.4649780  34.7132421  63.8923581  18.8561733  14.0634370
  63.1854160  18.2189567  14.1654909  63.9170749  19.3223674  14.8990715
  65.1225384  18.9253623  58.0480099  65.9148271  18.9319713  58.5851049
  64.6203168  18.1773288  58.3712006  59.1907199  28.2986934  59.7993898
  60.1004656  28.0076797  59.8618793  59.2508633  29.2417438  59.6468019
  78.6185495  70.4660273  31.4391947  78.2039380  70.9064388  30.6973290
  79.2875197  71.0812330  31.7395782  77.0184453   8.0490501  49.1994047
  76.0895856   8.1648357  48.9993000  77.3668559   8.9395149  49.2430830
  68.2880576   4.0874441  32.9874015  68.7440617   4.4466503  33.7484956
  67.7839215   3.3519180  33.3353639  63.8635635  64.0019798  24.8678255
  64.2767906  64.6221161  24.2670703  63.4098625  64.5527029  25.5058646
   2.6157522  21.4681965   2.1243805   3.3389258  21.8936020   2.5851196
   2.9390931  21.3464075   1.2317175  73.3666785   6.3379962  42.9286861
  73.6164172   6.2193591  42.0122862  73.4861787   7.2738559  43.0902719
  18.3287525  23.1611973  16.0369963  18.9706135  22.8786808  15.3855127
  17.7715969  22.3947197  16.1723608  29.7455049  39.1764116  62.9983854
  30.4159451  38.4997034  62.9045343  29.0234518  38.7374687  63.4480572
  74.0113242  13.0387599  35.5609369  73.2143529  13.5069187  35.3121495
  73.9925702  12.2383315  35.0363350  67.9482392  33.7503534  15.8179373
  68.6285928  33.4481722  16.4196295  67.1750286  33.8672977  16.3699335
  -0.1869893  43.8347345   4.7551149   0.2181220  43.0776411   4.3321127
   0.4574609  44.1206556   5.4025406  31.3876154   1.6416080  54.4114494
  30.5459429   1.2033422  54.2859840  31.6422375   1.4193590  55.3069925
  60.2153006  34.9817186  15.7063002  60.5355230  34.3067032  15.1079363
  61.0083166  35.3691059  16.0768217  51.7868090  73.5929155  25.3811288
  52.2664976  72.7886486  25.5793428  52.4510527  74.1887951  25.0348043
  59.5192167  49.6977240  19.2982191  58.6309955  50.0273996  19.4346327
  59.7951421  49.3886667  20.1611132   2.3494577  32.5775677   0.1238722
   2.3140025  33.5303980   0.0396627   1.4375972  32.3139339   0.2473110
  11.0206413  73.0117273  26.5095544  11.8275011  73.5091400  26.6429353
  10.5746889  73.0472946  27.3557782  26.5944886  62.4658632  46.2748671
  26.1949468  61.9424534  45.5801392  27.0267320  63.1851339  45.8143806
  78.6819315  54.5662022  58.1104994  79.4342947  55.0267029  58.4821415
  78.6604834  53.7291241  58.5742521  55.6810713  61.7107725  64.5579386
  55.4682970  62.4096012  63.9393950  56.4812517  62.0090675  64.9903345
  15.5132675  15.3226286  12.2431797  16.1540174  15.7989269  12.7712053
  15.9739589  14.5315605  11.9635242  36.9103765  69.4462395  63.8515949
  36.9832706  69.6865797  64.7752571  36.6226816  68.5333776  63.8636208
  25.0763726  69.9646568  54.6490431  24.3117642  70.4909515  54.4153309
  24.7205305  69.2411852  55.1649857  73.8456424   9.8814971  58.9701128
  74.4938023   9.3739707  58.4817171  74.2838795  10.1019294  59.7920561
  64.2762406  13.1026656  62.8799915  65.1704104  13.0023773  63.2065392
  63.8594277  12.2601039  63.0605030  27.0198393  10.8012300  -0.0673061
  27.3869753   9.9888044   0.2811378  27.6898479  11.4617496   0.1088423
  23.6388747  25.1322563  52.7739477  23.0069034  25.8494289  52.8240299
  23.8955705  24.9753291  53.6826324   1.8395682  71.4253283  36.8407393
   2.5697607  72.0437050  36.8665028   2.2483672  70.5671692  36.9533372
  27.0422363  65.0503778  41.2344980  27.1766663  65.9437323  40.9181499
  27.2698951  64.4953632  40.4886055  38.8808870  61.3995552  38.6193132
  38.1747937  61.0300970  39.1495657  39.6329498  61.4313936  39.2105985
  66.7442229  38.3134657  39.1314405  67.3067489  38.8069015  38.5345167
  66.9669989  38.6465031  40.0007528  47.0411015  74.8736000  27.4784636
  46.8375969  74.9423361  28.4112501  47.6683378  74.1526985  27.4226522
  70.7215388  13.8744743  42.4984694  70.0470813  14.3152625  43.0152369
  70.4793675  12.9488952  42.5282526   7.5094700  41.1902863  27.7828020
   6.8442964  41.6038185  28.3330435   7.1821046  40.3026205  27.6375193
  69.2326529  67.7255128  24.3451399  69.2878278  67.5403832  25.2826494
  68.7074359  68.5237859  24.2891401  49.9552377  12.4691398  48.0276823
  50.1961406  12.6201541  47.1136808  49.4936450  11.6306407  48.0183077
  25.3335237  29.8011499   2.5724978  25.1676511  28.9358622   2.1983427
  26.2143612  29.7376018   2.9417032  60.7943924  13.0189521  37.5314689
  61.6385658  13.4700115  37.5191617  60.1618440  13.7006957  37.7580428
  48.0067396  73.3783340  45.7556915  47.6879168  73.8715172  44.9998140
  47.4250221  73.6343813  46.4714241  77.8870160  56.4810181  50.8393860
  77.4085176  56.9412422  50.1498413  78.5348089  55.9545469  50.3709555
  34.1461420  17.0943123  14.8372692  33.8021612  16.4648968  14.2034382
  33.3725357  17.5568157  15.1595301   5.9134833  10.3865058  52.2908401
   6.8180577  10.3591449  51.9790125   5.4165761  10.7409484  51.5534878
  40.1354790  61.2899876  28.4671235  39.1901374  61.4359140  28.4315729
  40.2286911  60.4139137  28.8413358   9.4226313  38.2901239  40.7408237
   9.2682344  38.3350921  39.7972298  10.2169442  38.8062310  40.8784151
  26.5778208  74.3347740  37.6707697  27.4792600  74.0946198  37.8851604
  26.6603184  75.1322317  37.1478128  69.0524371  21.8693645  53.3995581
  69.3607409  21.0041911  53.6690950  68.5275014  22.1774394  54.1383171
  78.2085896  65.1406956  34.1917968  77.3827791  64.8660183  33.7932730
  78.5283661  65.8403635  33.6222005  36.4348753   7.9157079  25.5217642
  36.4591129   8.0573095  24.5754045  37.2099407   8.3701623  25.8518690
  42.9501171   6.1443813  19.7382617  42.0194073   6.2960155  19.5738924
  42.9935355   5.2420814  20.0547981   3.8308637   4.2778070  48.0137920
   4.1661851   3.6861713  48.6874056   3.2092587   4.8397548  48.4764433
  59.5274401  56.2762594  57.7905273  59.9796200  56.8302870  57.1542740
  59.6216249  55.3886271  57.4448729  32.7132892  39.8585945  17.7223486
  33.2780933  39.1398006  18.0062002  33.0133009  40.6133276  18.2289118
  45.9623098  74.4885015  57.4522734  46.7764139  74.1997528  57.8646946
  45.2712631  74.0934420  57.9838848  78.4693892  14.8786075  55.7839775
  79.0851100  15.5728252  55.5490875  78.8689502  14.4501026  56.5409184
  77.4593258  67.1506119  47.2680902  78.3089542  66.7338610  47.4118996
  77.6402330  67.8546286  46.6453028  33.0048108  68.9241314  65.1305723
  33.4696794  68.1772804  65.5078554  32.8224111  68.6617661  64.2282820
   3.8025109  24.2470081  19.7750723   4.3088166  23.5832889  19.3067193
   4.4060437  24.9834258  19.8734140  70.9997669  30.9602934  10.4911369
  70.9859219  30.0050980  10.5514616  71.3717595  31.1403900   9.6277613
  58.1769712  35.2477367  25.9933829  57.9122837  35.1214416  25.0822186
  59.1187890  35.0768287  25.9950924  64.3063116  72.0010900  47.4739313
  63.4313297  71.7187023  47.7401829  64.2220545  72.1935272  46.5400648
  29.5946789  33.1317860  10.5470127  30.1051235  33.8130671  10.1093668
  30.1852131  32.3796183  10.5887360  65.7455111  45.4380035  43.0033970
  65.8478403  44.5622206  42.6308966  66.6347694  45.7043982  43.2368374
  71.4863399   1.4356494  56.0058022  72.1282581   2.0521219  56.3581324
  71.6807881   0.6089324  56.4473486  75.7963294   0.6171430  41.4389706
  74.8766718   0.7188996  41.6841364  76.1118573  -0.1021865  41.9859982
   4.3613975  72.8845968  32.9316688   4.5653121  73.4456528  32.1834278
   3.5554425  73.2523592  33.2941842  72.4180396  71.4119710  32.2536397
  72.6815553  71.9284831  31.4920568  72.9548343  70.6210117  32.2039723
  64.7349075  33.5030651  50.2068806  64.2967895  34.3508792  50.1327658
  64.5119766  33.0465293  49.3956423   5.8722812  25.8262897  19.9010456
   6.4464712  26.5885878  19.9748111   6.3420290  25.2279282  19.3200696
   0.8816265  34.5028591  31.1714363   0.0854010  33.9835620  31.0592461
   1.1534837  34.7201514  30.2797461  71.2328346  64.6611827  24.8045611
  71.8230518  64.6542041  25.5581045  70.3850217  64.3971079  25.1619267
  46.8643220  74.6886859  51.0706949  46.8303646  74.8810362  52.0077562
  46.9985749  75.5408673  50.6559706  10.5181062   1.6800456  14.6683598
  10.2547610   2.1810579  13.8964355  10.5822289   2.3317716  15.3664815
  37.1294625  25.8898150   2.9755205  37.1345790  26.3494741   2.1359247
  37.0866485  26.5869843   3.6300081  64.5702215  29.0830796  63.4771156
  64.4456406  29.6976035  62.7538776  63.7529429  29.1283314  63.9733410
  66.2419311  33.9840412  56.7125130  65.7396058  33.4132481  56.1310482
  67.0254234  34.2078471  56.2102365   2.7020423  65.1764827  49.3375492
   2.4116175  66.0561346  49.5785809   2.9786603  64.7807174  50.1640368
  74.1444162   9.0744799  37.5447392  73.6045286   9.8639208  37.5839329
  75.0040797   9.3564647  37.8573012  79.3321474  71.1621227  35.4372048
  80.0807579  71.2408580  36.0284877  79.4815214  70.3402688  34.9697900
  77.4214551  28.9184260  23.0136037  77.8925246  28.6767292  22.2161651
  77.5639576  28.1821561  23.6084390  37.0486112  65.7576178   4.0011305
  36.4480652  65.9369944   3.2776636  36.5772672  65.1352714   4.5549768
   6.4355318  70.6437578  45.6390429   6.7325537  71.4697753  46.0207510
   7.2060792  70.2969240  45.1893806  36.2150091  54.2958170  63.4472993
  36.6077650  53.8531965  62.6949286  36.2676484  55.2269370  63.2317161
  78.9067980   8.0012935  23.7544155  78.3040570   7.7707243  23.0474687
  79.2364694   7.1605825  24.0718317  27.5608887  33.3550106   7.2260899
  27.4730901  32.4940555   7.6350922  28.5039447  33.4692814   7.1085352
   7.8631043  23.0669355  36.5273929   7.9931682  22.6887274  37.3970318
   7.2854370  23.8156128  36.6757631  19.1837335  28.3546299  58.8924056
  19.2679036  29.0814126  58.2752067  18.4588135  28.6082936  59.4637000
  17.2723043  13.0316627  30.5753255  17.5791371  13.1074655  31.4788389
  16.8724132  13.8805091  30.3861690  50.2909841  65.2480178  41.5426540
  50.3772070  64.8904114  40.6589603  50.3173910  64.4812136  42.1149683
  28.8780475  24.6675944  27.6836681  28.7652826  24.7465825  26.7364216
  29.7208595  24.2261243  27.7885532  44.7266390  66.2944453  57.3375845
  44.1599723  66.3869439  56.5717077  45.6153311  66.3372206  56.9845581
  26.9487198  63.7286942   1.8027119  27.0275958  64.4828754   1.2185701
  27.5536068  63.0811207   1.4407857  10.7478571  36.1154580  17.6238334
  11.2459874  35.5348086  17.0485568  11.3977051  36.4620495  18.2352281
  55.8372088  57.6389604  60.9184599  55.7055523  58.4977965  61.3200808
  55.1985400  57.6071923  60.2061939  65.2025000   8.9238811  19.8855114
  64.6712306   9.2222524  20.6237245  66.0690263   8.7685758  20.2613330
  74.9110210  26.2566018  52.5420713  75.8244780  26.3896132  52.7953196
  74.6641180  25.4318786  52.9605198  32.7227926  37.3603344  19.5661497
  33.1923699  38.1404614  19.8613274  31.7981195  37.5798774  19.6802318
  27.8336962  62.7629035  37.1627522  27.5661238  61.8454282  37.1091294
  27.2178348  63.1562619  37.7809882  13.9616764  15.7199001  35.3455710
  14.1191697  14.8169899  35.6215811  14.7761631  15.9853339  34.9185038
   8.0515523  36.0423221   8.2817692   8.5953935  36.7080386   7.8607124
   7.7549393  35.4851276   7.5621933  79.1453418   7.4476892  62.7069521
  79.8323903   7.8019154  63.2715082  79.6148451   7.0933807  61.9517946
  15.6967294  10.9444058  43.6112785  15.6827068  11.9010890  43.5831356
  15.8289671  10.6799197  42.7009010  37.5853654  57.4098914  28.5272336
  37.3420771  56.5118985  28.7522912  36.8887289  57.9481189  28.9030528
  13.7863886  13.5964274  23.0509186  14.5092547  14.1946125  22.8615212
  14.0478694  12.7691627  22.6465774  63.4347280  66.1846708  15.1228201
  63.7192269  66.8594890  15.7391906  63.8046606  66.4562373  14.2828000
  74.1117564  29.0207124  58.9124584  73.4784434  29.2014790  59.6070576
  73.5876158  28.6558151  58.1994629   5.7769711  19.4535028   4.5495695
   5.1059826  20.0281821   4.1811270   5.3022034  18.6611365   4.8005384
  78.6934807  20.3135538  20.2337050  79.0104434  20.0970984  19.3568277
  79.3767911  20.8721256  20.6042695  70.6593559  16.0637546  38.1850576
  71.3085696  15.3788078  38.0250525  69.9949280  15.9264314  37.5098467
  19.6990001  14.3710232  34.2992902  19.5473194  15.1809561  34.7863579
  19.9557793  13.7347090  34.9666739  12.3080158  22.0973134  27.0719671
  12.8804159  22.1814871  27.8345299  11.9025064  21.2359047  27.1707916
  11.1983335   1.3661973  54.8392916  11.0493112   1.1378531  55.7568312
  12.1349323   1.2209751  54.7054052  40.3818520  63.2336335  56.4028025
  41.2661620  63.0733888  56.0733366  40.2415045  64.1705887  56.2662411
  63.6506644  10.0768220  49.6542501  64.5094684  10.4991364  49.6726274
  63.6362282   9.5291615  50.4391670   2.1366255  49.5427411  24.5349121
   2.6992361  49.3408077  23.7873030   1.2902515  49.7621505  24.1453695
  59.4158855  11.3116276  24.4633079  59.5317474  10.5336905  23.9177608
  58.9727322  10.9898090  25.2483416  48.6708679  67.8746956  64.1915512
  48.6438920  67.8150653  63.2365942  48.1569322  67.1255117  64.4929266
   1.0785644   3.0543780  37.6093793   1.1088972   2.7026597  36.7196560
   0.4041261   3.7327895  37.5758791  67.0856384   4.4280925  48.8683987
  66.8967298   4.9331170  49.6592808  66.6016200   3.6105520  48.9849520
  38.3334652   5.3583032  24.3958235  38.3665625   5.2343357  25.3443837
  38.3349911   4.4704825  24.0380454  11.2958443  57.1719217  42.5792789
  11.5443444  56.3148975  42.2328854  11.8238044  57.2723675  43.3713675
   9.1407806  27.5401425  37.4403334   9.2500305  26.6212392  37.6851010
   8.5145295  27.8847551  38.0769515   4.4004789  31.5889287  45.4786110
   5.1797539  31.0899448  45.7235146   4.4026071  31.5819216  44.5214415
  20.2950247  61.9246100   4.4398922  20.1177265  61.7240904   3.5208792
  21.1680348  62.3171185   4.4352955  26.9131145  72.0811461   7.7709145
  27.6755156  72.0226549   8.3467239  26.4394251  71.2622594   7.9167694
  63.3748690  15.7142317  61.8633747  62.4245683  15.7320786  61.7500544
  63.5859016  14.7867751  61.9707108  15.8458388  27.8135324  40.6752634
  16.3060904  27.0043349  40.8979750  15.3440619  28.0279040  41.4617109
  76.0314670  23.1715256   4.3750900  75.4702440  23.5702902   5.0401062
  75.4224125  22.7468401   3.7709993  36.2996817  25.5820060  58.0204916
  36.6339636  26.4213133  58.3367968  35.3504276  25.6476903  58.1245899
  72.0804599  53.3731842  55.7566595  71.6556803  52.5760126  55.4399395
  71.4273295  54.0606594  55.6261444  70.7196471  20.4204965  42.8821373
  70.0437418  21.0344601  42.5950241  71.4911518  20.9667540  43.0325222
  74.8796900  74.7513541   1.0667602  74.8195012  75.3163834   1.8370533
  75.4537304  75.2261591   0.4657040  77.1623905  65.2030515  18.0628145
  77.2541435  64.4040363  18.5818398  77.2074874  65.9119414  18.7044322
  34.9349618  19.3259513  21.5603828  34.8956418  19.0487731  22.4757290
  34.5177174  20.1873922  21.5528512  57.7778282  74.7643710  21.9613719
  57.8486015  75.1061481  21.0700727  56.9738625  75.1545327  22.3043656
  73.4456022  64.8788028  53.0185556  73.5596355  64.1292350  53.6028290
  72.9512783  64.5309274  52.2763538  16.2100661  27.9598784  49.0520382
  16.5350652  27.1278453  48.7080479  16.5307915  27.9880166  49.9534655
  61.6728977  36.6681266  38.1661510  61.2046674  36.7310429  37.3336649
  62.1719006  35.8540225  38.0993557  46.4139970  65.2082067  17.6587522
  46.5275337  66.1228185  17.9172599  46.1345710  65.2507107  16.7442322
  78.6912881  50.7622671  32.8653479  78.9192103  50.4453373  31.9913673
  79.1432239  50.1655293  33.4619164  20.0720549  17.9746151  38.9157009
  20.8292484  17.7595127  38.3710742  19.5944262  18.6338723  38.4122300
  56.5107528   5.3401423  35.2224827  56.9132892   4.6080637  35.6896591
  55.6686440   5.4688209  35.6589794  59.1778799  66.0147499  34.0505552
  60.0197728  65.7364385  33.6900115  59.0706934  65.4881333  34.8426509
  59.9042596  64.5793276  54.4097519  60.0162472  64.4656460  55.3535557
  60.5916097  64.0389328  54.0201950  25.7081103  40.7354784  37.0244145
  25.4713440  41.6595316  36.9450474  25.0443172  40.3673840  37.6076126
  17.7613807  25.7696819  23.2909703  18.4414387  26.3996935  23.0525661
  16.9686830  26.2976241  23.3865666  79.0201097  20.3225183  59.5579004
  79.8769583  19.9578404  59.7793818  78.5486825  19.5959795  59.1503143
  24.3674207  20.0476909  39.5418835  23.8922071  19.2787957  39.8568463
  24.6004725  20.5274177  40.3367281  71.4328459   5.4225177  29.4333076
  70.8545271   5.4502958  30.1955462  71.4753291   6.3299638  29.1316986
   3.7069422  58.1199074  37.3472762   2.9219097  58.6675453  37.3543859
   4.3549523  58.6364079  36.8681717  74.5847866  13.1577134  17.2446561
  74.3516419  13.9889276  17.6581275  75.0436718  12.6702893  17.9288137
  73.4669689  20.6208038  48.0809593  72.9161105  20.1118922  47.4861574
  73.0892578  21.5001631  48.0638266   9.7254626  71.0933884  33.8109779
   9.5365350  71.8944906  33.3223343   9.7686522  70.4096441  33.1425023
  12.3310244  17.2781873  10.3791463  12.9766595  17.2508872  11.0852921
  12.2447658  18.2081103  10.1693010  67.2111281  67.0542728  41.7301559
  67.1551283  66.2706547  42.2770023  67.7590318  66.7915558  40.9905529
  65.3401824  63.4489613  14.1932642  66.2254615  63.3364694  14.5394707
  64.7814019  63.4795253  14.9698353   0.4576975  21.2349224  37.6965261
   0.1002606  20.6703591  37.0111513   0.2611034  20.7748270  38.5125518
  62.6205249  50.4234235  39.9088764  62.2049447  51.2310045  40.2110958
  62.3588719  50.3483122  38.9912009  12.0018470  17.4953234  13.7182868
  11.0879493  17.7244282  13.5493708  12.3271906  18.2028246  14.2749083
  65.7001224  15.7335675  34.9396324  64.9724892  15.7066381  34.3182993
  65.3824416  16.2820935  35.6568694  23.0126452  32.7048564   8.2561582
  23.6038661  33.2386374   7.7253389  22.1466017  32.8594565   7.8789330
  67.7806118  27.4266601  19.1186130  67.5371018  27.3031616  20.0360465
  67.8343299  28.3762527  19.0108073  67.1463660  12.9846632  34.5717263
  66.4791742  12.3364031  34.3462324  66.6506496  13.7780511  34.7742915
  35.5196166  20.9329891  44.9042988  36.4104056  21.1823010  45.1504040
  34.9871039  21.6967177  45.1265192  75.1331695  67.3277073  34.2922401
  75.3358658  66.4126902  34.0975881  75.4817708  67.8143721  33.5453343
  61.3073221  22.3549724  27.8374624  61.7908338  22.4400115  28.6591792
  60.9102562  23.2154965  27.7030444  44.4570037  69.8582320  36.2490106
  43.8404490  69.7882162  35.5201840  43.9049901  69.8536431  37.0309901
  22.6523399  69.0915632  39.9761844  23.4279203  69.6512842  40.0138807
  22.0475459  69.5588112  39.3998742  43.5035181  16.0113788  35.0124073
  43.5926962  16.5510118  34.2268658  44.3077183  16.1721647  35.5060101
  68.0326036  61.4709949  28.2583737  68.2930556  60.9682035  29.0301228
  67.1490208  61.1620426  28.0582213   3.1551838   0.1733451  36.5742016
   3.3768132   0.5851322  37.4093914   2.3637798   0.6278975  36.2855959
  70.4974130  19.3605185  58.6168480  71.4263204  19.5896041  58.6465502
  70.0709740  20.1361418  58.2524490  73.3359249  43.9302271  52.4952793
  73.2999023  43.9407580  53.4517431  73.5695227  43.0286520  52.2743082
  13.1565921  60.7884567  47.5907707  13.0192749  61.6659897  47.9475784
  13.2793061  60.9281891  46.6518068  42.5269683  69.7631638  48.6557722
  42.4930974  70.1785778  49.5174646  42.0809968  70.3796329  48.0749893
   7.2550738  29.4347239  53.3470058   6.3217592  29.4232273  53.5591936
   7.3447120  30.1331806  52.6986599  31.0964942  23.1464148  63.0378246
  31.3424134  23.9156485  62.5239801  30.1411390  23.1187153  62.9853106
  68.4292355  14.7677427  10.8878798  67.9459253  15.0116402  11.6772837
  69.2253032  14.3483644  11.2144226  64.2813411   6.4182430   7.9835028
  65.0471428   5.8451849   7.9463095  64.1547146   6.5885120   8.9168829
  23.1417227  28.8590741  27.8051233  22.8396106  29.6975493  27.4559546
  23.9680958  28.6943054  27.3510408  10.8532977  68.9376736  56.5270185
  11.7563832  68.6812878  56.3401031  10.4247749  68.9464188  55.6711435
  32.1483684  59.9594593  37.1293211  32.6581120  60.6726837  37.5136399
  31.2919545  60.0222158  37.5522256  34.5112491  14.6936524  36.8119645
  33.5871983  14.7836840  37.0448899  34.7981405  15.5865932  36.6206980
  28.7263680  23.1687260  39.6294570  29.3160200  23.7981415  39.2142749
  29.2955709  22.6402402  40.1888704  77.4636881  18.3648455  55.4734612
  77.3384779  18.8891745  54.6824932  78.4114895  18.2456446  55.5342531
  15.5327678   9.1378963  57.8831816  14.7446322   9.2062777  57.3442936
  15.3342903   9.6541625  58.6644030  22.2674227  39.0760493  36.2544203
  22.4563813  39.9980330  36.0798597  21.3889790  38.9401913  35.8992982
  17.4406731  30.4805112  52.1437597  16.7884839  30.7257175  52.8000784
  16.9700146  30.5218887  51.3112926  41.6006561   2.8849084  30.9353328
  42.1638139   2.8629358  30.1616383  41.6447742   3.7919242  31.2380075
  56.0568314  65.6078808  45.0556135  55.3178273  66.1120700  44.7151756
  56.7680781  65.7788031  44.4382429  24.2167674  66.5897149  60.2102604
  24.9811368  66.8249911  60.7362038  23.5873735  67.2918242  60.3749904
   0.8668456  46.4192629  26.3166165   0.3187989  46.8564701  26.9683242
   1.5311292  47.0692062  26.0874248  67.1590165  51.6171217  33.5207272
  66.4338401  52.1263170  33.8827634  66.7703191  50.7709646  33.2989979
  14.3971837  34.1275072  39.1080737  14.5469451  34.8135257  38.4575462
  13.4480786  34.0033269  39.1110420  72.4169746  10.3449965  63.3020258
  72.2518376  11.1046267  62.7435255  71.5710858   9.9005175  63.3580875
  19.8512150  49.3576478   0.4645628  19.7689618  50.2865611   0.2487272
  19.7446223  48.9067803  -0.3730446  12.6763558  49.6334887   1.2840448
  12.9096544  49.8186255   0.3743592  12.2328782  50.4270220   1.5838288
  64.8814491  49.1491175  22.5921774  64.1648057  49.3814611  23.1826568
  64.8923651  49.8506927  21.9410992  76.1690596  28.2890749  36.1787152
  76.4386216  27.8729987  35.3599072  75.2166739  28.1943130  36.1933255
  23.1017685  28.8313627  61.8567324  22.4519563  29.0503407  62.5245810
  22.5897169  28.6972165  61.0592127  73.9236459  19.6719980  41.2725210
  73.1525842  19.8166680  41.8209410  73.5946891  19.7335839  40.3757334
  40.7612284  66.8356078  42.0643044  40.5785282  65.9241723  41.8359661
  41.2475820  67.1775870  41.3141394  23.1829953  17.6502216  41.1629343
  23.3757639  17.1021605  40.4022074  22.2833276  17.4242806  41.3991070
  22.4575949   9.0124530  56.2543964  21.7724633   9.1305500  55.5964613
  21.9875908   8.7454587  57.0443583  77.8146124  17.8073084  42.1587992
  78.2408201  18.6077321  42.4652338  77.3133543  18.0817676  41.3909149
  33.5219550  38.4353852   1.9000107  34.0383196  38.0506659   2.6082399
  33.5239911  39.3745422   2.0849787   0.1277230  12.5045466  33.0820966
   0.8807854  12.8184247  33.5827065  -0.1060787  13.2394302  32.5150752
  19.2345381  18.3733118  50.0180531  19.7086346  18.1164634  49.2271709
  18.4013879  18.7179124  49.6965837   3.5893647  59.3603342  47.2905493
   3.0510442  59.8029368  47.9467058   4.1122882  60.0596492  46.8984509
  35.5113626  52.1237946  29.2104840  35.8257127  52.2559404  28.3160830
  35.8736181  51.2763214  29.4689226  76.3663791  49.8098134   9.5350546
  76.5918111  50.3216456  10.3118652  77.0735716  49.1695379   9.4565624
  60.7834903  59.8604155  35.7981491  60.2654448  60.5142546  36.2675691
  60.1671806  59.1503811  35.6185889  67.4409142  13.0195332  41.2948990
  67.5053314  12.5731611  40.4506016  67.5593797  13.9460373  41.0856438
  76.1353810  64.5178943  51.6158295  75.3994663  64.5729380  51.0062122
  76.5802558  63.7034481  51.3813210   8.0668259  23.0487180  56.8288279
   7.5730520  22.2304463  56.8822002   7.5307351  23.6162663  56.2749958
   6.2497407  33.7686467  15.4817104   6.2546951  33.6782265  14.5288038
   5.8511716  34.6245861  15.6390083  77.7134808  72.4713891  42.7344513
  77.5371726  72.1898018  43.6321449  76.8587359  72.4490093  42.3041677
  32.7176213  13.9861715  39.7082806  32.3823714  13.4910202  38.9608431
  32.3481727  13.5448205  40.4730988  39.9786472  58.7658691  13.8499534
  40.5051613  59.4856310  14.1977429  40.2127409  58.7241268  12.9227591
   9.4498038   3.0266392  51.3827515   9.7418016   3.4801152  50.5919790
   9.5119399   3.6860782  52.0737743  79.3212575  24.7967005  35.0546598
  79.7480876  25.6530070  35.0827026  79.3570697  24.4815421  35.9577799
  32.9008174  64.9793339  31.3985896  33.5181212  64.6883106  32.0697641
  32.0709801  65.0815868  31.8645787  73.3671442  45.8059931  24.3569827
  72.7342013  46.5027809  24.5304751  73.9811591  46.1904907  23.7313795
  77.7461894  12.3887372  46.6746664  77.6931219  12.6997280  47.5783825
  78.5478606  12.7839279  46.3320637  68.3002189  18.4494662  18.7522697
  67.4848572  18.3948100  18.2538438  68.1260804  19.1078436  19.4249117
  22.8322148  10.7043719  48.6611509  23.7830281  10.7931638  48.5955763
  22.6890278  10.2807045  49.5074606  26.0476422  15.9214079  35.8120799
  26.2525678  16.2531412  34.9378991  26.3205838  16.6221726  36.4042473
   5.8863181  18.7624121  62.7854586   6.5888208  18.4333551  62.2247028
   5.3835756  17.9829347  63.0218792  31.8224049  20.6532693  13.0283713
  32.6866341  20.9187961  12.7139890  31.7034769  21.1415100  13.8430548
  20.9649396  30.9752917  18.6602414  21.5518951  31.3608646  18.0098200
  21.2889099  31.3028693  19.4992685  69.7905413   9.1700232  38.9419365
  70.2958373   9.2439175  38.1323385  69.1068855   9.8348421  38.8591027
  21.0684629  74.5306753  12.0647615  21.4684995  74.2067932  12.8717989
  21.8036832  74.8624657  11.5494007  78.7170405   1.9677027  29.0670323
  79.6057257   1.6174297  29.1285086  78.7851132   2.6841718  28.4359479
  49.7788239  19.2656446  21.5326023  49.9260664  19.6394753  22.4013972
  49.1733074  19.8743367  21.1094284  13.6553085  11.7295110  26.3181782
  14.1196716  11.3194895  25.5884671  12.7413130  11.7571485  26.0351944
  33.6092503  60.8634447   0.9555382  33.1881149  60.0171684   0.8048910
  34.2747177  60.6849073   1.6200012  19.1959107  10.4961157  39.4312692
  19.1604698   9.7896367  40.0761414  19.7164989  11.1796391  39.8531866
  20.4417872  11.1287999  44.0434313  19.8855114  11.6535044  43.4676933
  20.2354717  11.4401674  44.9247456  59.4708707  73.3513505  20.4669261
  58.9880802  74.0440674  20.9177995  59.0669073  73.3027834  19.6005034
  20.0056982  31.3066268  25.3711319  19.8486102  31.0201502  24.4714165
  19.7748125  32.2355652  25.3704786   1.0220370  44.2261457  49.7687340
   1.6926444  44.6710253  49.2504644   1.4892820  43.9048672  50.5398941
  48.1038761  31.7509270  64.6542358  48.2388210  31.0211468  65.2587557
  48.3769178  32.5243378  65.1477051  77.2384200  34.5616078  13.3816409
  76.7218948  33.7560463  13.4041560  77.8928906  34.4458103  14.0704739
  21.0223103  11.6171038  15.4957402  21.6375971  11.0658062  15.0122905
  21.0688949  11.2954295  16.3960671   0.1115425  51.8001960   0.7173628
   0.3900011  51.4711140   1.5719933  -0.0565617  51.0122810   0.2004856
  21.3703424  44.0899033  58.7151575  20.8985102  44.4463349  59.4678610
  21.5772176  43.1897587  58.9665043  17.4033594  13.0445659  33.6957812
  17.6365757  12.1558666  33.9642119  18.1567204  13.5772216  33.9506483
  66.1438898  25.7954645  33.0762506  67.0645324  26.0573363  33.0677915
  66.1146060  25.0419903  33.6658692  79.2834444  28.1814885  58.1247711
  79.5635243  28.6967683  58.8812590  78.5528467  27.6556969  58.4503460
  16.5379167  53.5604477  33.3538938  16.9085801  52.7389622  33.6763811
  16.3327575  54.0577602  34.1456175  53.0941854  59.7361188   0.7428034
  53.3289719  58.9765959   1.2759370  52.6366571  59.3664675  -0.0123505
  25.4656529  19.8237550  51.5978813  25.6877041  20.7539129  51.6394806
  24.5170784  19.8094249  51.4704704  43.0124393  23.1260448   1.1094374
  43.5267749  23.5223251   1.8127531  42.3347905  22.6238352   1.5619940
   5.2352041  21.7033434  12.9648399   4.5618689  21.9093013  12.3164320
   4.7813490  21.7547131  13.8060343  34.3178888  70.3975414   4.4993156
  34.5188136  69.6487974   3.9378494  33.6141683  70.8578275   4.0419954
  18.9024401  57.5371552  33.7456536  18.0231595  57.6053286  33.3735657
  18.8153875  57.8883123  34.6318483  30.5457091  45.4673815  16.4900863
  31.4020991  45.7868242  16.2058651  30.6868672  45.1713705  17.3893547
  79.6599116  24.4097352  47.9025745  78.9269719  24.9707079  48.1562281
  79.3218814  23.5187340  47.9925013  16.0871375  19.4957173  57.5750637
  15.9161246  18.8501763  58.2608223  16.0142684  20.3409886  58.0182743
   5.7844234  18.2535779  37.8788137   5.3488696  18.1981909  37.0282507
   6.6669345  17.9195011  37.7181959  25.2264810  50.3818226  13.8218868
  24.3038702  50.3624964  13.5676265  25.6352949  49.6973515  13.2921636
  52.1834341  24.6298099  46.8701077  52.3574034  23.9703226  46.1985111
  51.7080036  25.3211665  46.4094305  77.5752563  72.9045296  39.5934987
  78.3941731  72.5736475  39.9624491  77.7945239  73.7777901  39.2685890
  58.3915106  21.8564534  29.5690298  59.2524997  22.2589421  29.6827602
  58.3969608  21.1069608  30.1643991  67.0064143  24.6974254   9.2116004
  67.2467521  25.1215601  10.0353599  67.5636044  23.9201784   9.1709131
  79.4082833  45.0549507  29.2803597  80.2522605  45.3730679  29.6008873
  79.1387420  45.7040787  28.6305833   5.8818126  37.9891181  39.1520619
   6.5989572  38.4483290  39.5891643   6.1274320  37.0649862  39.1954541
  26.8344505  61.3730769  64.1672182  26.4222797  61.4991622  65.0218821
  27.5923427  61.9576388  64.1782379  15.7511628  40.5209827  32.3860407
  15.4008317  41.1655998  31.7712498  16.1017478  41.0436773  33.1072283
   2.7872935   5.7544589  45.6300879   3.2014143   5.4606473  46.4415121
   3.1336188   6.6357291  45.4898977  62.0434848  19.8234034  43.6251402
  61.5882066  18.9851975  43.5453558  61.3459710  20.4614806  43.7753534
   1.4204258  16.5380466   5.8276707   0.6349484  15.9912896   5.8099735
   2.1363097  15.9236646   5.9897697  66.0491470  39.5111799  20.9720278
  66.5902689  39.8771811  21.6716433  65.9423676  38.5899138  21.2088799
  60.5029121  12.8611970  15.9890413  59.6871820  12.8297222  16.4888668
  60.2251807  12.8149927  15.0741839  52.4733591  65.1514858  65.0559807
  53.0101967  65.8636636  64.7083597  51.7247033  65.1037115  64.4614522
  33.3852792   8.7036252  13.1509411  34.2341661   8.8645434  13.5629237
  32.8504372   9.4565803  13.4024012   9.4264519  17.6509523  19.1013777
   9.5841694  17.1990860  19.9303365   9.7849131  18.5283959  19.2349076
   8.7516540  34.7802138  51.6607189   9.6614861  34.5212293  51.8068838
   8.4290820  34.1620994  51.0048914  57.6419226  24.8040342  23.4708524
  57.7694503  25.7033539  23.7728405  58.4001842  24.6287060  22.9135990
   0.2851375  38.7066841  26.1215329   0.8062790  39.5044637  26.2120461
  -0.5265414  38.9967585  25.7052803  74.7300060  71.9486545   3.1066504
  74.5602711  72.4307569   2.2973303  75.3230103  71.2440004   2.8458038
  15.0362813  28.3792615  43.3485413  14.6160984  28.4219480  44.2075253
  15.7569945  27.7601862  43.4649563  65.7380477  53.4745884  47.4062204
  66.0997442  54.3251514  47.6551199  66.4009789  53.0911827  46.8319798
  24.8338556  21.3178229  35.5402064  25.7358122  21.0227132  35.4152346
  24.8862672  22.2726631  35.4982066  29.3650993  51.1096828  22.9992747
  29.3635686  50.1585786  22.8914309  30.0610741  51.4155595  22.4176455
   5.3068143  43.7264633  34.5341253   5.4474676  44.0622807  35.4193807
   5.4074329  42.7783394  34.6188283  20.5178189  26.3871169  60.0512600
  20.5048132  26.4984846  61.0018730  19.9588394  27.0900393  59.7200918
  16.0871863  33.4503961  55.6824064  16.2321961  34.3840504  55.5291367
  16.4939499  33.2811689  56.5321922  50.6637326  38.7126493  51.6012907
  51.5240470  39.0764737  51.3921928  50.6690756  38.6172438  52.5537109
  19.1244340  63.1412172  55.0934553  19.5531106  63.4170628  55.9036255
  18.5097730  63.8476896  54.8951674  11.6485579  58.3072923   2.0943445
  11.3908096  57.5511073   2.6215834  12.3338957  57.9733156   1.5155500
  28.8641429  23.0192327  35.3408360  28.5066104  23.5934448  34.6635747
  28.4226608  22.1813464  35.2020121  60.0711540  18.4646773  51.3946199
  60.8803359  18.1061494  51.0300446  59.4591156  18.4711325  50.6586838
  17.8774774  11.8958306  37.3707223  18.7199450  12.1573436  36.9991159
  18.1061935  11.3281214  38.1066751  12.5942969  17.4637830  43.7592268
  13.1671822  16.8102002  43.3581495  11.9301939  17.6412225  43.0931091
  68.0511585  15.5751777  40.1244736  67.8068045  16.3930202  40.5576706
  68.9903871  15.6618202  39.9614620  14.0735245  21.7159247  41.8656301
  14.2753661  21.2850571  42.6961946  13.1556070  21.9748449  41.9469881
   6.2655848  20.0166345  32.0722389   7.1479636  20.3338456  31.8798447
   5.8195436  20.7696867  32.4597836   5.1560886  28.0051850  22.0957178
   5.5278166  27.7589236  22.9427141   4.4135840  28.5682146  22.3146147
   0.3964752  11.9625306  48.6524439   0.8802180  12.1438563  47.8466272
   0.2533613  11.0161984  48.6380959  16.8766558  39.4663954  35.5447412
  16.9416595  38.7969804  34.8636460  16.0457516  39.9076605  35.3683472
  18.8248765   6.2341571  36.2044072  18.7266505   6.9947922  36.7771363
  18.1211078   5.6420892  36.4697313  28.3126521  15.7070363  62.8058100
  28.8317347  15.9593523  62.0421839  27.4256611  16.0027587  62.6008081
  11.4595282  13.0867195  57.3983860  11.1053550  13.6571765  58.0805635
  10.7657361  13.0407810  56.7405272  11.2047565  64.5882893  43.8753748
  10.7270265  63.9294529  44.3793011  12.1273601  64.3830204  44.0267038
  51.7213694  20.0601482  43.8526106  51.1116687  19.3234527  43.8104248
  51.1599031  20.8317089  43.9279842  22.3750687   6.8482572  54.1218424
  21.4817715   6.6362089  53.8511276  22.2761083   7.5992888  54.7069836
   1.6811459  73.4856935  56.3773012   0.8534209  73.7856976  56.7529345
   2.3175733  73.5922169  57.0842981  40.7344027  56.7129849   0.7424873
  40.8206196  57.2380088  -0.0532204  40.9274550  57.3232554   1.4541954
  59.8097304  19.5869339   5.0500029  60.6861869  19.4684803   4.6839109
  59.9494425  19.6329641   5.9958321   1.5355641  16.2061381  35.2893496
   1.0485248  16.2613392  36.1115289   1.0316788  16.7411590  34.6760941
  42.2025593  74.0262153  52.3943329  42.8674729  74.7076899  52.2957802
  42.3908218  73.6290861  53.2446766  77.6907809  58.4854655  44.7100067
  78.1669791  59.1860132  45.1557684  77.0453675  58.1887000  45.3515720
  25.3957224  16.4430106  42.3525047  24.5593047  16.8866944  42.2118568
  25.1619720  15.5218482  42.4667501   7.6267058  30.7145643  23.5479689
   8.5115796  30.3498316  23.5338235   7.5352806  31.1541224  22.7025914
  55.1219625  71.6292249  31.0266256  55.1306537  70.6793057  30.9091091
  55.6944336  71.9613584  30.3351068  14.0189786  42.7623712   4.5887560
  13.5748644  41.9382225   4.3893188  13.5957833  43.4060817   4.0206236
  14.9312007  32.4599075  31.6898370  14.1857314  32.0322990  32.1113324
  15.6098342  31.7854381  31.6619134  18.2581019   8.0345243  38.1470156
  18.6369014   8.8905060  38.3471107  18.0661857   7.6515245  39.0030026
  19.3784775  71.5946888   1.2493652  18.7286879  71.7119883   1.9423622
  19.1970177  72.3006152   0.6289047  21.0906363  22.5935459  30.6607032
  22.0299315  22.4095130  30.6512737  20.6891632  21.7752337  30.9529591
  16.1661243  17.1635347   6.5921110  15.4364633  16.8317896   6.0688776
  15.7494545  17.6590115   7.2971815  62.4449423  21.9644499  60.8534384
  61.7989150  21.4584017  60.3606939  61.9571558  22.3141575  61.5990925
  32.7342963   4.5335329  37.1817803  32.3586369   5.1564956  37.8038955
  33.5187006   4.9701729  36.8496871   9.1250557   2.2378497  29.5185256
  10.0077713   2.3927067  29.8547745   8.7871194   1.5202567  30.0543356
  59.9289640  69.5633285  23.7599707  60.6758537  68.9793884  23.6280537
  59.2295190  68.9903413  24.0741277  66.0154406  19.4874918  34.4105840
  66.5570441  19.7611153  33.6702943  66.6397170  19.3307281  35.1190567
  76.6198233  13.9882588  15.0415695  77.3788290  13.9140856  15.6200504
  75.8784139  14.1129446  15.6340206  25.2867913  22.6105142  51.3700151
  25.0506139  22.8821707  50.4830790  24.8805308  23.2657218  51.9373608
  25.6984234  17.3996782  48.3390331  25.4691529  16.4811587  48.4804058
  26.3882875  17.5755608  48.9788628   9.8621595  51.0052395  62.2747707
   9.3909138  51.2057638  61.4660978   9.1763753  50.7686901  62.8992510
   3.6619918  12.1704294  64.6036105   3.1094258  11.6604806  65.1959393
   3.1206052  12.3026897  63.8253829  34.6785630  55.2243053   3.7875885
  33.9552458  55.8152782   3.5783142  35.2343346  55.2406906   3.0084318
  19.0726711  65.1496624   1.9232172  18.7250955  65.3763245   2.7857965
  19.8967703  65.6327890   1.8625492  24.5809746  21.1022806  42.3398924
  24.9707103  20.4891849  42.9631519  24.6252251  21.9513535  42.7796078
   5.1696903  20.8658266  38.3411241   5.3628361  19.9632812  38.0874729
   4.8980477  21.2904048  37.5273824  22.6226974  43.4231567  33.6778307
  22.5302839  42.8622866  32.9076910  23.4761453  43.8423824  33.5677981
  17.9806352  72.6043367  14.0669799  18.7781775  72.1125603  13.8712394
  18.2231855  73.1730270  14.7977281  61.6444114   9.0798342  25.5041909
  62.3465982   9.6645153  25.2190351  60.9714797   9.6652907  25.8515143
  60.6312438  72.6209854  45.8730316  59.7007414  72.7692752  46.0415745
  61.0802616  73.2477178  46.4403248  73.3970496  58.1876659  15.7733762
  73.9812902  57.4321127  15.8369410  73.7061319  58.6653423  15.0036228
  38.8711119  33.6151719   3.9000258  38.2252693  33.1791186   3.3441713
  39.0653515  34.4341969   3.4442809   2.4762610  37.3372602  10.1847613
   1.7067799  37.6521540   9.7104478   2.1393858  37.0776820  11.0422957
  27.6211143  38.6036491  36.5344667  26.9121289  39.2276502  36.3789248
  27.3412991  38.1105638  37.3057032  37.5912690  32.9090619  15.5494487
  37.3377824  33.8275814  15.4583454  38.4274507  32.9363561  16.0145175
  24.9953341  43.5369825  36.5499187  25.2483559  43.6452246  35.6331348
  25.5029202  44.1996908  37.0183229  72.9182759  33.8494205  18.8321376
  72.6961121  34.4389033  19.5528221  73.6782238  34.2560077  18.4157240
  30.4727960  35.4675436  21.6113186  31.0791397  35.1046133  22.2569680
  30.1430178  36.2694931  22.0167255  37.8866029  66.0308838  31.4900732
  38.7639046  65.6485605  31.5101290  37.6852226  66.1195660  30.5585074
   6.4875042  24.0122819  32.1921992   6.9487870  23.8565803  31.3680601
   6.6034919  23.2019877  32.6883888  25.5435824  42.6197290  41.1414003
  25.1702785  42.8687811  41.9868898  25.7066274  41.6797256  41.2191200
  18.2481241  71.4607048  28.1004691  18.0872202  71.1047697  28.9743400
  17.9676199  70.7667589  27.5038195  19.9679746  67.6163672   5.9121984
  19.7273268  68.4145974   5.4419369  20.1586629  67.9112433   6.8026585
  34.3635225  43.4657478  14.7721946  34.8432469  42.6421165  14.8600936
  34.3318963  43.8205004  15.6606662  38.4694076  68.1196499  38.1277561
  37.6057267  67.9344559  37.7589893  38.2867956  68.5930347  38.9394164
   9.8882371  34.5354342  46.7048979  10.2538240  35.3425193  46.3426971
   9.2009181  34.8307133  47.3020840  16.5367234  54.1476154  36.4499640
  15.6890345  53.7575626  36.6633010  17.1790826  53.5387945  36.8145800
  63.5853806  39.2979598  11.8736625  63.7761346  40.0584888  12.4226999
  64.4404140  38.8997555  11.7106211  22.2892427  27.8294110  11.7864811
  22.4604821  27.6745653  12.7154219  22.2258925  28.7814498  11.7100573
  18.5505378  53.3661366  24.6267366  18.5813773  53.1243896  23.7010789
  19.2119765  52.8120661  25.0411463   2.7817932  34.3620610  25.7795143
   3.4750175  34.6003771  25.1639843   2.1325012  33.9059639  25.2441382
  75.8382511  48.5013533   3.7588686  76.7919755  48.5826683   3.7643155
  75.5207053  49.4024515   3.8173795  27.4938536  21.6220307  49.9271870
  26.9350743  21.9345164  50.6387663  26.9492126  20.9934855  49.4533396
  17.7767348  32.2962189  46.1561728  18.0107486  32.7709889  46.9537067
  17.6931822  31.3846231  46.4358950  73.0631891  22.6042604  18.0918062
  72.3614726  22.1865082  18.5911167  73.8525662  22.4459076  18.6095321
  13.3340681  33.4249091   0.0549067  12.6216304  32.8929400   0.4094119
  14.1083241  32.8666687   0.1265038  20.9845750  12.9774524  63.8765844
  21.3503472  13.2968522  64.7014632  21.4050595  13.5138513  63.2044983
   6.2088084  47.7847195  22.8511167   6.4204800  47.4499941  21.9796872
   6.5695667  48.6712742  22.8612947  10.2041662  61.3271666  29.8740005
  10.5471361  61.7818975  30.6433010  10.1522267  62.0039558  29.1990995
  24.4235778   6.3683546  15.9659111  24.3029356   5.6992006  15.2921820
  25.1644206   6.8893206  15.6561089  73.0275038  31.7623496  42.9148340
  73.2373247  32.5503492  43.4160948  73.8783172  31.4160657  42.6456976
  12.0719969  37.3731804  35.3351092  11.7802846  38.1609774  34.8762941
  11.2679708  36.8808913  35.5007148  47.8249867   9.7701461  35.4455876
  47.3252065   9.9878318  36.2323904  48.5847886   9.2870529  35.7704926
  21.3911223  54.7368431  24.7611928  21.5151978  54.5332766  25.6882286
  21.7184806  53.9643335  24.3004394  29.3911605  10.4255874  21.8550968
  30.2761541  10.4547603  21.4915514  29.2597915  11.2940128  22.2356343
  31.2292004  64.4740772  41.3392305  31.4056849  65.0073338  40.5641699
  30.9886336  63.6159945  40.9898758  37.2455712   0.6322820  61.7322636
  36.8687005   0.1113326  61.0231686  37.9788955   1.0944850  61.3262653
  34.8441267  73.5882235  13.3137822  35.3627634  73.3560467  14.0840697
  34.1016984  72.9843807  13.3340251   1.8668906   8.3265502  52.7875090
   2.0744340   8.7703807  51.9652128   2.3135917   8.8433654  53.4580183
  48.6593063  11.9760997  30.0250578  48.2189734  11.4610393  29.3489981
  48.6600383  12.8699787  29.6826959  40.0369501  64.3209219  34.4125438
  40.6537485  65.0439405  34.2983556  40.0772572  64.1170120  35.3469038
  62.6572593  12.9728801  24.4496417  63.0188401  13.8401992  24.6319723
  62.1107252  13.0994327  23.6740661  19.2476368  70.2221584  41.0968447
  19.2811143  69.8724079  41.9872284  18.4594536  70.7650995  41.0822630
  49.1945219  70.0776625  48.9188814  48.9186525  70.4996061  48.1051874
  48.4896755  70.2675247  49.5380545  28.3953157   0.7432325  34.6154189
  28.5383731   1.0859067  33.7331820  28.4952079  -0.2042906  34.5234489
  73.8457552  53.9227247   7.8185582  73.2532862  54.6449900   8.0272305
  73.5446444  53.1994295   8.3684742  31.3422155  74.4870615  58.0002213
  30.8804584  74.1652203  57.2259951  32.2522902  74.5751238  57.7169514
   9.1250449  58.2041550  12.8604412   8.7779397  59.0845633  12.7167797
   9.7136849  58.2980394  13.6093879  35.6531024  59.9813890  48.8896370
  35.6416035  60.8986855  48.6163712  34.7313571  59.7235823  48.9019871
  37.1229267  61.1854458  31.5101695  37.3968697  61.7638063  30.7983518
  37.9328322  60.7701588  31.8065143  50.1834297  74.1404533  20.0649977
  49.3306923  73.8925838  20.4222536  50.6653023  74.4887686  20.8151340
  43.0193138  58.0302954  27.8335190  42.0974445  58.2567835  27.7106404
  43.1396198  58.0229187  28.7831020  60.4080728  27.9124886   9.3706554
  60.2060571  28.2914883   8.5152143  60.7218072  27.0299107   9.1735453
  38.7730558   1.8449123  31.8930006  38.4793063   2.4638946  31.2245631
  39.6803184   2.0945604  32.0684528  57.9502280   2.8278787  64.2498732
  57.7193768   2.7738626  63.3224964  58.4703596   2.0411451  64.4134331
  70.9356625  37.3634727  39.3938518  70.5274852  37.7441699  38.6162329
  71.6281398  36.7996509  39.0491581  13.1676476  32.6715852  63.3597098
  12.9317467  31.7538835  63.2240358  13.5111205  32.9582216  62.5134840
  76.2391090  73.5363102  19.3077290  76.2087822  72.7428055  18.7732518
  76.6804790  74.1809082  18.7546349  43.4028006  55.7655191  21.8139076
  43.2459927  56.6812086  21.5833592  42.6791954  55.2888393  21.4072108
  74.7670110   6.5121086  17.8069174  75.0807269   5.8393962  17.2025454
  74.2483313   7.1022422  17.2601545  45.2710581  64.5910883  63.5633993
  44.6542549  64.8137522  62.8661156  44.7407722  64.5879698  64.3602753
  74.7746213  10.2774383  61.3654318  74.3065603  10.1922466  62.1960294
  75.2555807   9.4546892  61.2760535  30.7806802  62.2363377  19.1810894
  30.4252815  62.6948643  19.9424517  31.1545038  62.9294968  18.6370134
  60.5317068  68.3976030  20.6658554  60.0325155  69.2140722  20.6861806
  61.1291552  68.5005283  19.9251175  35.7886028  67.2239304  21.6573930
  35.2437449  66.5186739  22.0066357  36.0098314  67.7564335  22.4214149
  36.1362076  55.7434607  39.4001389  35.7119012  54.8921537  39.5072579
  35.9370017  55.9987116  38.4993649  24.3424273  51.1977625  20.1446033
  23.9456224  50.7687235  19.3865108  25.2825522  51.1789322  19.9655914
  74.3034489  19.0833576  50.1599550  74.2879517  19.5806415  49.3422127
  73.4283479  18.7008769  50.2243042  37.7690363  73.6371994  21.4605856
  38.7188983  73.5787010  21.3577557  37.4426103  72.7902746  21.1566257
  42.0622893  16.1859329  28.9242125  41.6158672  16.9785983  29.2218924
  42.9905517  16.3617427  29.0779996   7.9966182  57.6008654  30.1586056
   7.6429206  56.7197037  30.2797794   8.9290774  57.4637651  29.9914098
  43.1020641  65.5204391  43.8468599  42.5441980  64.8009634  44.1424417
  42.5051069  66.1157084  43.3935070  30.4448557  49.1335392  16.6385603
  31.2368608  48.6670637  16.9056964  30.2876973  49.7618246  17.3433948
  28.6113803  14.5572765  34.9003077  29.1903083  14.2951972  34.1844988
  27.8939597  15.0224693  34.4700289  66.9929965  19.0411956  59.9368811
  67.7975066  18.8058193  60.3990412  66.6438563  19.7852428  60.4275274
  10.5094115  12.1964557  60.4177809  11.0018412  11.7963416  61.1344767
  10.5260293  11.5409000  59.7205019  17.2089863  41.1511141  20.6893057
  17.9924822  40.7638985  21.0797209  17.5441885  41.7381388  20.0116056
  10.4597299  19.9620254  19.7499514  10.9195105  20.7486923  19.4567180
  10.5162207  19.9935539  20.7049632  70.0961287  21.0894019  46.6218042
  69.5005877  21.8182094  46.4474154  70.7977326  21.1943824  45.9791851
  72.6798848  55.4817963  22.6501131  71.9596276  56.0693359  22.8787065
  73.4331867  55.8292580  23.1276464  26.9343471  38.3376699  30.9761995
  26.9981146  37.6137787  31.5992064  26.6091823  37.9334217  30.1717848
  69.9011977   8.6187084  45.0077105  69.0575679   9.0674884  45.0634813
  70.2009852   8.7825210  44.1135502  17.2378802  62.3905897  23.1718922
  16.4033306  62.0548058  23.4990144  17.5183105  63.0218935  23.8344955
  10.9943557  64.7621298  47.4381447  10.8899832  64.1140223  46.7415142
  10.2014315  64.6749067  47.9671955  39.0064525  54.9616343   7.6287931
  39.0203190  54.5032412   8.4689802  38.3263492  55.6274897   7.7304310
  19.1698766  60.8507919  15.1986921  19.2805910  61.6873980  14.7469568
  18.9976633  61.0911226  16.1090851  25.7945442  54.7331572  21.4564347
  26.4970922  54.1810322  21.1131907  26.1813235  55.6070757  21.5102625
  52.0276737  69.6566916  35.8143091  51.3900375  69.0024996  36.1001158
  51.6878939  70.4856157  36.1514521  24.2956614  73.5537815  38.7893677
  23.4659505  73.9345837  38.5016179  24.9075842  73.7486792  38.0795813
  62.9355812  64.5683479  29.1893959  63.3447742  64.7320127  30.0391030
  62.7025175  63.6401939  29.2105937   0.6949345  32.0286567  28.1872416
   0.1337497  31.2724502  28.3588743   0.8210580  32.0228774  27.2384048
  23.3028476   0.2012212  24.5589542  24.1963641   0.2541358  24.2197490
  22.7801625   0.7073123  23.9369392  54.9595959   2.3288209  17.0158017
  54.0974982   2.2406442  16.6093028  55.5080922   1.6946037  16.5541148
  17.0720339  16.7194086  10.4426760  16.4129877  16.2704760  10.9721607
  17.5440168  16.0144287   9.9994320  17.3086309  56.9871527  29.7005838
  16.6255903  56.3352304  29.8576826  17.2504663  57.1739679  28.7635893
  52.1724558  71.4203691   0.6090970  51.5616703  70.8047915   1.0143533
  53.0376863  71.1102724   0.8763933  74.9755462  28.9474399  21.3228106
  74.1297229  28.5084255  21.4126539  75.3386958  28.9512355  22.2084403
  66.2433226   5.6825454  51.0641479  66.9705184   5.4700000  51.6491604
  65.5306800   5.1112850  51.3505554  55.6955814  66.3811541  28.9402914
  55.9035063  65.5325413  28.5493159  55.2220631  66.8514347  28.2541060
  55.7868671  74.9861956  32.3069811  56.7055511  74.7705126  32.1465564
  55.5957556  74.5995235  33.1614947  27.1757841  69.6390772  25.1736140
  26.6671705  68.8626051  24.9398732  27.7887464  69.3317747  25.8415008
  76.0961039   3.4246738  30.5338073  76.8678029   3.6359603  30.0083828
  75.4111846   4.0019233  30.1963091  18.9061129  64.0125990  52.3852921
  18.1558537  64.5021629  52.7224398  18.9646971  63.2436228  52.9522800
   8.4185044   1.7724712  49.0819120   9.1130130   1.6380794  49.7267580
   8.2026021   2.7023132  49.1527033  18.9737320  63.2119370  35.1927805
  18.5945117  62.7132225  34.4691038  19.0659523  64.1004705  34.8489285
  78.5288668  57.8697395  33.4265661  78.9756966  58.2363319  34.1895795
  78.3707571  58.6226034  32.8569770  72.8881438  24.8985870  43.4289694
  73.5974486  25.4196460  43.0526543  73.3300145  24.2667491  43.9962101
  44.7226663   8.4057720  40.9785366  44.4323619   7.7523620  41.6149330
  44.0417738   8.4039123  40.3057718   1.2554449  72.3382664  14.0750861
   1.9495764  71.9079304  13.5758626   0.9744133  71.6801834  14.7108400
  70.3288364  51.5508270  15.2733815  70.2098083  52.2898102  15.8700097
  70.5974245  51.9513988  14.4465590  66.4235306  37.6288772  29.9234962
  66.1103582  37.9539800  29.0794230  65.8891153  36.8534327  30.0947213
  24.5266294  72.8351593  31.9498396  25.0849628  73.6113119  31.9042516
  25.0991225  72.1127844  31.6916513  30.6375663  18.7048627  64.4793024
  31.1639421  19.1139509  63.7924202  30.0686471  19.4068481  64.7951781
  51.1436033  51.3311863   5.2320415  51.2015009  52.1916246   5.6474030
  52.0532084  51.0837889   5.0657827  44.7661455  15.6103904  48.0309868
  44.2199953  16.3275440  47.7090502  45.1326998  15.9384735  48.8521051
  54.2400312  67.5264502  40.8017874  53.3906603  67.9610968  40.8784866
  54.7237349  68.0560732  40.1679420  12.7250350  72.9426908  59.7467232
  13.6079693  73.2777834  59.5906067  12.1509171  73.6868763  59.5655775
  29.6145844  58.3577251  58.6674500  28.8834262  58.2581568  59.2771435
  29.3858814  59.1247129  58.1424189  47.6512440  24.9765880  46.4425468
  47.8648289  24.0674312  46.2326479  47.3244889  25.3418262  45.6203175
  73.3880599  16.7846782  46.8819714  74.1642936  17.3261554  47.0251608
  73.5392649  16.3689906  46.0331059  37.3548146   8.8700397  29.4482064
  36.8548007   9.6720035  29.6001005  37.5247069   8.8685138  28.5062051
  72.9852994   7.2444064  53.3393955  73.9075072   6.9894321  53.3119202
  72.9749759   8.0506427  53.8552570  71.6143990  45.9724236  54.6443224
  72.5636435  45.9704924  54.7674751  71.4865208  46.3505459  53.7743235
  65.3917630  12.3486335  38.4196138  65.1168306  11.8989665  37.6205873
  64.5731147  12.6110751  38.8405275  35.7883501  60.3277636  37.6144910
  35.5273509  59.6834564  36.9564795  36.0795760  59.8036289  38.3606124
  70.3682597  17.0799358  10.7581615  70.7645829  16.3873107  10.2295566
  69.6471818  17.4082477  10.2210534  71.0998137   0.6491477  16.6690171
  71.4216454  -0.1487916  17.0884752  71.2712462   0.5155713  15.7368159
  47.2114801  47.8430653  12.6853955  47.9211426  47.2452211  12.4504507
  47.4841690  48.6894512  12.3311341  66.1810930   0.2067525  45.7320499
  66.0892661   0.0325353  46.6687727  65.6575711   0.9940059  45.5824041
  56.1579950  20.3642185  16.8888223  56.5291794  19.6555240  17.4143672
  56.8428595  21.0326869  16.8703127  38.1995869  67.3964882  43.1365490
  39.0455866  67.0886087  42.8113890  37.5584507  66.8233776  42.7161694
  38.5384364  13.0964477  33.9577484  37.9805775  13.1871326  34.7302771
  38.7850936  13.9937885  33.7337589  56.5221150  17.8901870  51.1142206
  56.5200932  18.7054450  51.6158056  55.7118328  17.4495227  51.3701248
  45.5788867  36.0664798  60.4693603  45.3227584  36.9766618  60.3203878
  44.7662036  35.5700685  60.3726250  66.6556974  33.5305358  59.7286844
  66.5765842  33.4492256  58.7782311  67.5912090  33.4241678  59.9011260
  76.2563975  22.7313144  35.3618360  75.8981068  23.5915859  35.5804515
  76.9550450  22.5932605  36.0014200  28.0439568  61.0694218   1.3193014
  28.4616709  60.4116106   1.8752080  27.5627828  60.5608082   0.6666023
  78.9546712  16.4689643  33.4651780  79.4746859  15.8854873  32.9125643
  78.1521018  16.6196163  32.9657578  10.8728234   7.2770221  54.2319536
  11.3798491   6.5606315  53.8499451  10.3182332   6.8547351  54.8879480
  57.5020774  11.7440898  14.0764606  57.3806556  11.1455066  13.3394456
  57.7960356  11.1834438  14.7944391   8.2762496  14.0722854  34.8299456
   7.8873078  13.5384662  34.1371346   9.0173499  14.5080192  34.4090676
  62.0678933  18.3983905  59.0921545  62.7885063  17.8675468  59.4315052
  61.7957218  17.9492195  58.2919025  10.7463090   6.1932475  31.6628647
   9.9403397   6.3965423  31.1881876  11.2665145   6.9947250  31.6058326
   8.2716697  47.9595232  17.5622034   8.0797929  47.0257711  17.4754906
   7.6855695  48.3836889  16.9354641  27.6898241  66.9073582  15.3588009
  28.4283948  66.3027477  15.4308605  27.2484255  66.6508436  14.5491099
  50.5577898  69.5043993  51.5185070  50.0660372  69.5061255  50.6972837
  49.9015141  69.6867037  52.1910381  38.3061457  70.8752203  57.9528999
  38.4715652  71.2544298  58.8160753  37.5997424  71.4084768  57.5884008
  29.8102586  18.6203052  60.5224001  30.3735940  19.0866567  61.1399778
  30.0074165  17.6953079  60.6698248   7.3115270   2.6340062  54.4723988
   6.9985740   2.9343088  53.6191082   6.5651481   2.1698243  54.8514605
  40.9128995  18.8024909  56.3455296  41.7351504  19.2900855  56.3943720
  40.7836123  18.4616763  57.2306061  58.3400543  25.5411155  37.8231382
  58.3995779  26.4129646  38.2137513  57.4157055  25.3055866  37.9027653
  76.4639695   3.2262380  23.5523081  77.3726256   3.2449539  23.2519317
  76.5279849   3.1710727  24.5057702   0.4714267  23.7797267  54.1953135
  -0.3695424  24.2280586  54.1058636   0.3247420  22.9161937  53.8092947
  69.9103196   0.2643115  40.6900597  69.0880330   0.0619895  40.2438068
  69.9317296   1.2203987  40.7308912  17.9463804  68.6254597  51.8167257
  18.6641324  68.0560732  52.0939636  18.3758247  69.4354296  51.5414906
  47.9601383  58.0640888  28.1107879  47.8957987  58.9268303  27.7011871
  48.3497572  58.2345438  28.9683294  39.8000646  64.3880749  62.5573969
  40.0349617  64.2620277  61.6380644  39.2641401  65.1811743  62.5611019
  62.2591694  23.4511382  39.7098279  61.7163499  22.7585800  39.3330669
  63.0338629  23.4804065  39.1483784  51.3403161   5.9298522  39.5607686
  50.5453189   6.0891635  40.0695229  51.0662897   5.3250224  38.8713312
  61.9684012   0.5925805  40.0370693  62.5593622   0.9131534  39.3557262
  62.5338419   0.1007993  40.6326056   2.9619479  52.8074079   2.3301500
   2.8294134  53.2429129   1.4881271   2.0884084  52.7679544   2.7195162
  58.3025244  61.7630869  24.8039526  58.9796940  61.7851263  24.1277975
  58.7877938  61.7090231  25.6272501  -0.0131019  19.7683627  63.3023691
  -0.0161155  18.8981731  63.7011147   0.8595816  19.8528011  62.9182816
  31.8703461  70.0265265  45.6723404  32.7070189  69.6217060  45.9011078
  31.6625857  70.5862570  46.4205170  57.1899652  68.7674665  55.6886339
  57.4210072  68.6041975  54.7741985  57.3823309  67.9429436  56.1351681
  79.6300443  22.4464710  64.2508554  78.8857873  22.5830848  63.6646414
  79.9063046  21.5458209  64.0813112  29.3387675  68.3137798  51.6114283
  28.4278536  68.3544016  51.3202000  29.7599530  67.7123213  50.9973526
  31.1889052  71.9513083  47.5329113  31.3296461  72.7814150  47.9882622
  30.4390502  71.5575981  47.9789400  16.6336600   7.3605831  31.7566943
  16.2793366   6.9873531  32.5637794  17.3580853   7.9148204  32.0469689
  36.3899024   1.9546659  64.3030214  36.5786321   1.5214879  63.4705734
  37.2206981   2.3559244  64.5579815  38.3191252  66.0874939  51.4498711
  38.1403160  67.0200253  51.5709066  37.7778292  65.8349323  50.7019138
   9.2768638  20.5739505  29.5125389  10.2155225  20.5149371  29.6904969
   8.8923613  20.8509548  30.3442001  57.2413874  52.8524208  11.6153288
  57.8096151  52.4204540  10.9775567  57.6795483  53.6825037  11.8029606
  79.8120625  30.5183990  31.9364023  79.7155173  29.6894081  32.4051094
  79.6369155  30.2980811  31.0215187  73.2869895  14.6111877  42.1771240
  72.9389222  15.1842697  41.4940023  72.5119384  14.2146785  42.5749969
  66.4448030  17.0794875  30.2795696  65.9845026  17.7643401  29.7944593
  66.7774947  16.4893348  29.6033502  54.2611980  69.2196798  33.8902617
  53.7930822  69.2758417  34.7232938  55.0283098  69.7798824  34.0083551
  74.4997492  35.8914762  32.0868963  75.2853146  35.8132082  31.5456099
  74.8167005  36.2403780  32.9199881  32.3633862  59.9058104  60.4104662
  32.7554941  60.4522991  61.0915184  31.8187022  59.2808151  60.8889389
  62.2325182  71.0214901  36.7628908  62.0146370  71.9321203  36.9616604
  62.2787333  70.9893608  35.8073473  63.7303448  53.6857176  29.8835349
  63.8930178  52.8171778  30.2515173  64.1602945  54.2876101  30.4910707
  14.5471732  17.5859739  62.6875527  13.7964313  17.0334340  62.9050867
  15.3088300  17.0280363  62.8450729  54.3974352  68.1668234   9.9253160
  54.6219492  67.9217052   9.0276849  53.5999489  68.6890650   9.8386455
  12.3382663  34.8910337  15.5125898  12.5216770  34.8295408  14.5751375
  12.8298378  35.6593424  15.8029264  24.8648167  62.2400618  33.4257102
  24.4180441  61.4377213  33.6956692  25.3542423  62.5142241  34.2012930
  54.0623863   4.0285547  55.7001209  54.2953308   4.9510295  55.8050966
  53.8530834   3.9386804  54.7704172   6.9608085   8.7658698  23.2151318
   7.4596516   8.0480773  22.8250408   6.8829982   8.5289581  24.1392779
  22.2333670  65.5630112  43.4992170  23.0525064  65.1159239  43.2862568
  21.7343211  64.9209547  44.0041399   8.9268582  12.6178075  65.0274379
   8.9102428  11.8834974  64.4136438   9.6011750  12.3821594  65.6646171
  68.6373091  60.4835892  53.0168581  69.4657183  60.8549881  53.3202267
  68.7748766  60.3218269  52.0835114  29.8256092   0.6840713  32.0655465
  30.7057934   1.0601194  32.0557833  29.5068805   0.7971914  31.1700869
  40.7418776  65.2240801  30.3333879  41.5036869  64.6458292  30.3721189
  40.6180143  65.3948402  29.3997216  47.1361542  52.9069424  18.9980733
  46.6013813  52.3556232  18.4268475  46.8134260  53.7949181  18.8445222
  35.2962287  14.1603763  58.1561136  35.9447368  13.5923869  57.7401018
  34.4538774  13.8341434  57.8394890  27.2158980  58.9623785  27.3950005
  26.8769765  58.2219362  26.8918967  26.6067457  59.0529299  28.1277823
  13.8821523   1.5603788  38.8553143  13.7360112   2.1306426  39.6100807
  14.0618340   0.7006700  39.2359090  54.2140532  57.3425484  58.7181520
  53.3132267  57.6440191  58.8358450  54.5998526  57.9725122  58.1094360
  44.4587040  68.7109232  28.8247108  44.1520119  68.2358456  29.5970249
  43.7409258  69.3063498  28.6090922   9.3240468   4.8708827   7.5743175
   9.1588370   5.5975063   6.9735259   8.7341372   4.1772373   7.2792017
  63.7736416  67.2506189  32.6699758  64.6347284  67.5369072  32.3653436
  63.1670284  67.9042959  32.3221874  17.3492400  10.9568126  53.0301523
  16.6427724  10.4917438  52.5820017  18.1502072  10.5430419  52.7084637
  51.5398884  62.4705553   9.8187083  51.3576317  62.1811724  10.7127285
  50.8136272  63.0558205   9.6036613  50.5928946  74.3075943  52.3972845
  50.8447886  74.0836906  51.5013742  49.8041296  73.7904930  52.5606489
   9.1520898   4.8055084  27.9934955   8.8845555   4.1754110  28.6625481
   9.9622361   5.1858432  28.3329725  63.7630463  73.5268831  39.0546823
  63.7052774  74.4603300  39.2585874  63.3312273  73.0937147  39.7909760
  58.8412189  73.2391167  49.1319513  59.6752024  73.7064409  49.1800499
  58.4362221  73.5544538  48.3240080  47.8040011   7.7946670  47.8565216
  46.9636329   8.1036956  48.1949234  48.0331953   8.4244544  47.1730947
  54.9978882  52.2080427  18.6987871  54.7677790  51.4551455  18.1543345
  55.7310411  52.6194387  18.2411093   3.4788005   5.6451709  41.1984491
   3.1077878   6.4549167  41.5490246   2.7399938   5.2059085  40.7772112
  24.6371381  13.9976127  64.7800636  23.9037053  13.6840827  65.3092194
  24.2499606  14.1952236  63.9272547  45.7522392  73.7111902  54.8226213
  45.8551359  73.9845657  55.7341671  46.2078762  74.3847370  54.3176842
  77.1324809   4.6911867  28.0880713  76.4519246   4.7038705  27.4150825
  77.9277404   4.9625404  27.6296401   6.9067017  29.2123706  30.7659888
   7.0504395  29.8235233  31.4885283   7.1270625  28.3549793  31.1300683
  55.1204157  72.5433540  33.7272930  55.0589323  72.1460772  32.8586030
  55.9576130  72.2341967  34.0733409  38.2379007  72.3861885  49.8669481
  38.9111924  71.7504025  50.1092052  37.8965855  72.7038574  50.7029057
  30.5874515  69.8357296  57.8076220  30.8725524  69.1062355  58.3578873
  30.5708146  70.5889130  58.3981037  74.3994077   8.7631805  48.3908510
  74.3834670   9.6503837  48.7498140  74.4084056   8.8888461  47.4419785
  51.4350803  18.9520080  60.5344677  51.4685662  18.7772758  61.4749908
  51.0128959  19.8082454  60.4648113  67.4302061  38.9493657  56.6936755
  66.5849336  38.5002042  56.6928679  67.2555562  39.7876884  57.1213919
  56.3758786  13.4644420  52.4784422  55.9444506  12.9199035  51.8199730
  55.6654079  13.9682681  52.8754616  65.9698947  11.6100318  49.9215889
  66.4801033  12.2615630  49.4405222  66.6184314  10.9755714  50.2266979
  66.8143876   5.9500511  28.5333610  67.0921309   5.4980285  27.7366376
  67.3000510   6.7748172  28.5224962  43.1373739  59.8056078  40.0728703
  43.7804365  59.1853619  40.4163790  43.6283398  60.3372860  39.4463658
  45.4207134  60.2861452  30.1303577  46.1612558  60.1284933  30.7159948
  44.6484137  60.1162529  30.6697297  21.4528584  19.0673074  53.2612782
  20.5591965  19.4022664  53.3347660  21.3687420  18.2747372  52.7311915
  40.6305130   1.8746860  27.7552128  40.3589399   2.7692945  27.5498891
  41.5271373   1.9646890  28.0780101  16.6923964  61.9681549   6.4914060
  16.4574039  61.0450268   6.3973182  16.6795826  62.3108530   5.5977476
  74.6202222   2.7399689  19.2138094  74.6661344   1.8932324  19.6578402
  75.3760830   2.7437407  18.6265368  64.9493599  49.3064165  50.8876038
  65.2833939  48.7965298  51.6256237  64.3154144  49.9073362  51.2790585
   3.9960448  18.5091789  52.9787207   3.1071727  18.6204917  52.6414442
   4.3342463  17.7434738  52.5144386   6.4324921  67.6665163  20.0381994
   7.1580034  67.7570963  19.4204128   6.3890839  66.7278814  20.2207017
  40.5349874  69.9008608  46.1003876  40.5227375  70.8487463  46.2330389
  39.6847916  69.7029638  45.7076597  43.1018639  61.4302492  21.6110778
  43.2672358  60.7891130  22.3023272  42.6790524  62.1624899  22.0597243
  16.4133978  18.5537392   1.3294453  16.3939571  19.2743593   1.9591707
  16.6440916  17.7854448   1.8516964  40.7898951  63.9990950   9.8364723
  41.7137861  64.2473650   9.8683518  40.7930470  63.0489969   9.9527955
   7.0561187  46.9324119  49.4329834   7.9921882  47.1323116  49.4262648
   6.6307656  47.7813918  49.5535660   2.0280234   9.3523891  57.4105167
   1.5435998   8.8123329  58.0349350   2.7385108   9.7349269  57.9254007
  76.5829118   0.5442579  30.4540229  76.0283168   1.3078935  30.6137753
  77.2892888   0.8733375  29.8981667  54.5124483  64.8975229  40.6019258
  54.6838188  65.8390093  40.6233978  53.5581970  64.8283720  40.5727148
  59.2663915   6.2894065  57.0798588  59.2057355   5.9364421  57.9675341
  58.4306820   6.0601718  56.6733313  39.1308141  74.2734575   7.3112267
  38.4309936  74.6071005   6.7498308  39.9296427  74.6621132   6.9547820
  51.1545666  14.7537525  25.8410835  51.5521295  14.2389305  25.1388478
  51.1930259  14.1824634  26.6081476  56.1127155  38.0549241  57.8118551
  55.5400054  38.3295680  58.5279596  55.5865066  37.4329139  57.3094243
  17.8980701  26.3605310  53.5069602  17.3257892  27.0993663  53.7139588
  17.6233070  25.6687881  54.1088122  67.4633105  28.7787921  64.5344734
  67.7761872  29.5309551  64.0318871  66.5401109  28.6979396  64.2949057
  78.5309823   3.0897386  19.8014164  78.1719001   3.9273984  19.5088255
  78.6766703   3.2064254  20.7402420  73.8760073  29.0511901  44.4348240
  74.5335324  29.4847877  43.8908720  73.8295300  29.5866210  45.2269077
  66.4161110  62.2852373  18.9496040  66.1850977  61.3927031  19.2069924
  67.1576452  62.1783686  18.3538401  57.2090435  66.1892128  39.1753387
  56.9152117  65.2824068  39.0881562  57.3775864  66.2974310  40.1113462
  46.4329810  17.7152736  49.5683241  46.9062646  17.6381786  48.7398958
  45.6368919  18.1977279  49.3453598  64.1008806  65.9230375   1.7509510
  64.4419670  66.1515808   0.8862785  63.1699562  65.7551956   1.6045076
  61.0324128  43.8439472   8.0917591  61.7008813  44.4318302   7.7399349
  60.2070124  44.3072517   7.9492766  19.1386144   9.1907031  42.0476151
  19.4905011   8.8923366  42.8862953  18.7242810  10.0302799  42.2467899
   0.6685178  10.8106906  30.6888580   1.3959662  11.1679084  30.1794982
   0.5154149  11.4597804  31.3755035  34.1075484  25.5610467  65.0390834
  34.5049350  26.3710786  64.7194535  33.9703910  25.0345518  64.2515412
   5.7606522  11.3388450  28.7692332   5.7053296  10.7677944  28.0030251
   5.2119986  12.0911605  28.5473609  28.0606715  31.4865405  26.4421773
  27.4663035  31.3303954  25.7083035  28.0535666  32.4366672  26.5581679
   4.3474833  16.5669830  46.2876844   4.3733041  16.3455207  45.3568125
   5.0757472  16.0778053  46.6705418  13.8410585  67.7693845  56.6506177
  14.0115134  68.6502935  56.3171899  14.3619554  67.7114965  57.4515837
  36.1192703  55.8012873   1.6925806  36.3598489  56.7277246   1.7007059
  36.9124412  55.3503901   1.4030975  45.8903027  65.9520912   5.0855154
  45.9813309  66.8923330   4.9309668  45.1496506  65.8789015   5.6874371
  38.6535852  32.8832771  64.2439968  39.0865867  33.5101034  64.8235024
  38.7977760  32.0333387  64.6599877  78.2304795   1.3788135  33.9184880
  78.6293204   2.1832425  33.5867357  77.2950299   1.4867742  33.7467122
  36.5845323  72.8588247  28.8399792  36.8140388  73.4104013  28.0920982
  35.7350302  73.1906843  29.1305852  21.4328400   0.4770238  50.9809446
  21.7592685   0.0283487  50.2009630  22.0215432   0.1975067  51.6820383
   5.1326021  71.1168528  39.0808082   5.1155409  72.0056152  39.4358277
   5.9741720  70.7610750  39.3661547  41.8507099  36.3595634   1.6039700
  41.9154739  37.0686823   2.2436470  42.0092010  36.7828995   0.7602304
   6.4599816   2.8294666  42.6631308   6.3242404   2.8536041  41.7159081
   5.8138625   3.4427221  43.0133820  36.3043523  74.3013334  45.1415062
  35.9120011  75.1448679  44.9162483  35.5659223  73.7612772  45.4230881
  50.8237457  65.1480007  62.6607847  49.8830795  65.0934458  62.4922752
  51.0350227  66.0740185  62.5421238   5.1624982   2.7453048  21.2048054
   4.6934335   2.0930202  20.6844807   4.4720380   3.2591541  21.6236830
  78.4528628  17.6961809   1.9759840  79.1767040  18.2818180   2.1980614
  78.8389865  16.8205076   1.9943232  56.5143521  31.2149913  13.8570249
  57.0791705  31.2340267  13.0844629  56.0994442  32.0774658  13.8716853
  43.4473276  65.0371456  59.6476889  43.9913607  65.8198786  59.7348404
  43.4930754  64.8160172  58.7175083  69.3633413  72.8811598  59.7075891
  70.2513599  73.2384491  59.7088432  69.1473055  72.7796888  58.7806225
  69.0485716  59.2878056  56.9994688  68.7225294  60.1716089  56.8297148
  69.5867968  59.3780041  57.7858591  55.5676945  24.1665084  63.0990791
  54.9615391  23.7681968  62.4744558  55.0059851  24.6610649  63.6958456
  41.0972595  69.7056103  60.4240084  41.3765240  68.8151693  60.6369877
  40.2560902  69.5933628  59.9812174  21.2687842  10.6123645  25.3181839
  21.9449202  10.5709274  24.6419072  20.5733506  10.0383575  24.9970651
  61.3745911   1.7900289   6.8603939  61.2839015   1.3145650   7.6861900
  60.5337031   1.6673959   6.4198202  12.8521570  44.9319315  41.2422800
  13.7516817  44.9583149  40.9161043  12.9106840  45.2742672  42.1342516
   2.6191060  34.7089202  38.8842797   2.6874368  33.9596660  38.2925248
   3.3034388  35.3099067  38.5897756  33.7899089  67.1462297  41.5139627
  33.7288046  68.0888367  41.3590717  32.8826356  66.8415546  41.4978790
  79.2486461  28.2394607  48.2595110  78.6843760  27.5445373  48.5985088
  80.0467618  28.1772907  48.7842703  64.6496820  60.6372213  14.3467331
  65.4667044  61.1159277  14.4865501  64.7785664  60.1812410  13.5150456
   2.8760306  25.1196201  25.4429603   3.7464301  25.5084808  25.3567672
   2.4133174  25.3899581  24.6498346   6.1706130  11.2751872  61.9446230
   5.3040997  11.5689380  61.6633749   6.1894051  10.3429611  61.7282057
  38.9302158  61.1346340  11.8431830  39.4370794  61.5695906  12.5288475
  38.5331893  60.3812456  12.2802281  56.7842793  43.4764582   1.6272539
  57.6323238  43.2475096   1.2469429  56.2378657  42.7052504   1.4759153
  35.0405821  67.5398445  43.9829063  34.8757395  67.1858168  43.1089926
  35.1277002  68.4832811  43.8466215  22.1313762  18.5358578   2.8598446
  22.6394939  18.6714273   3.6596388  22.0504808  19.4092232   2.4765438
  31.3520145  45.5185133  11.1762804  30.7664203  45.0992208  10.5457968
  31.8681764  46.1315351  10.6528181  37.1027589  59.1166592  34.1717625
  37.6723456  59.8351955  34.4465494  36.6825485  58.8217354  34.9796462
  20.9210801  62.7194166  64.6802998  20.6121731  61.8150806  64.7349787
  21.6882253  62.6763678  64.1094542  52.1213134  12.7077968  27.8247333
  51.9845136  13.5865409  28.1787539  53.0417593  12.5173099  28.0056405
  54.7500403   9.9505527  33.3823729  55.6618626  10.1524074  33.5922885
  54.5343311  10.5404003  32.6600242  60.2237034  66.8988991  46.8570757
  60.3783751  66.4884377  46.0062933  59.6111012  67.6106644  46.6717815
  80.0294860  20.9129817  54.1218615  79.2421372  20.4427631  53.8476324
  79.8454411  21.1842258  55.0211859  49.9736500  61.5548134  29.9266672
  50.1249504  61.8575191  30.8220506  49.4957256  60.7318783  30.0295925
  39.5683308   6.9386203  49.5082474  38.8853844   6.2807948  49.6389484
  40.2507825   6.7035301  50.1369143  69.4324067  36.5189177  26.1260885
  69.5089737  37.3773628  25.7096285  69.7848776  36.6476160  27.0066828
  22.7474308  33.0781466   3.9389795  23.5358524  32.5627380   4.1092152
  22.8898000  33.8973576   4.4131702  68.7641270  12.5422294  14.1834736
  68.6233027  12.0956809  13.3486116  69.5637067  12.1492393  14.5334136
  72.1467829  68.7978268  51.7002487  72.6700163  68.7746859  52.5014496
  71.3564730  69.2796612  51.9441414  60.1218660  13.0561550  27.9819322
  60.2068312  12.5531967  28.7918973  60.3023155  13.9597709  28.2410645
  51.4023884  29.7383220  48.7225199  52.0096333  29.2813880  48.1405401
  51.1237581  30.5058868  48.2230854  62.5752831  68.7782764  37.9838943
  63.5131598  68.7729359  37.7926135  62.3150826  69.6936750  37.8810835
  16.5178983  10.1279552  25.5600953  15.9715907   9.4243057  25.9103107
  16.7754046  10.6365497  26.3290262   4.6356043  56.2852716  54.5158958
   4.8333296  55.6187391  53.8579655   3.7076124  56.4812899  54.3868923
  43.2978459  -0.0650590  24.9933577  43.6528547   0.0883300  24.1177607
  42.7909167   0.7232673  25.1877618  71.2472248  57.3664284  31.8800569
  70.9365940  56.8158436  31.1613107  71.5973997  58.1466198  31.4500356
  25.4603338  69.6006685   8.9695305  25.0914478  69.1219622   8.2272381
  26.0388612  68.9696985   9.3977922  74.3546429  45.1581198  10.2065653
  75.0781789  45.1881224  10.8325237  74.4189349  45.9836870   9.7264284
  52.1957906   7.6868732  35.8756161  52.7047260   8.4846408  36.0197854
  52.0423563   7.6680858  34.9309802  65.7863553  30.2413089  39.2562985
  65.8437736  30.7095725  40.0891685  66.4367254  30.6663711  38.6972141
  59.9192031  33.0554683  44.2902279  59.2262061  32.4058254  44.4083500
  59.9853356  33.1653507  43.3416605  61.4607508  33.2316596  47.8496218
  62.2324760  32.6744277  47.9504633  60.7222040  32.6229198  47.8643608
  31.3396358   8.0499893   4.3323893  32.1147537   7.6391846   4.7153610
  31.1400413   8.7789923   4.9197096   0.2455394  17.1359928  55.0904894
   0.8975045  16.6242988  54.6115875   0.7609050  17.7180965  55.6488562
  13.3707349  30.6705291   1.6056679  14.1885011  31.0809047   1.3244438
  13.3234946  29.8593147   1.0997766  71.2277460  50.4747295  27.5213265
  71.8406105  49.7400284  27.4923086  70.4480839  50.1195478  27.9481792
  69.4365740  57.1744347  49.2457104  69.3796253  58.0437136  48.8490391
  69.3523741  57.3341322  50.1857281  63.6453724  38.3257967  15.3979773
  63.1688690  38.7697226  16.0994715  64.3962002  38.8929087  15.2222914
  65.0352700   7.2080905  36.9773245  64.1524942   6.9702155  36.6938591
  65.5980475   6.5310676  36.6016340  46.4402390  53.8244104  64.5006943
  46.5624905  54.2783213  65.3345108  46.3564348  52.9015160  64.7404289
  66.5950234   2.5943668  57.7692223  66.6816647   2.5086076  56.8198156
  65.7813056   2.1355064  57.9778910  29.6778464  64.8107052  52.3664999
  29.8506689  65.2008057  51.5096569  30.5154443  64.4291210  52.6292801
  71.7453463   5.6083400  55.2136946  72.1156915   6.2887676  54.6514797
  70.9330495   5.9892185  55.5473661  54.5833550  56.3125235  16.3792032
  54.7005244  55.3643423  16.4380163  53.9615686  56.4329535  15.6614870
  68.0587959  71.5516567  40.8987284  67.8198242  70.8449841  41.4985037
  68.9174938  71.8446064  41.2037802  75.4731591  25.5269821  47.5566101
  74.9253018  26.0980232  47.0180988  75.0084575  25.4667766  48.3912754
  60.2593374  63.3156300  30.7530308  61.1423159  62.9490137  30.7996058
  60.1796150  63.8493967  31.5435791   8.3912310  67.2153711  31.9622517
   7.6700148  67.8273773  31.8155336   7.9623636  66.3823986  32.1583772
  78.2563050  29.2353732   6.2176579  77.7176364  29.4791610   6.9704103
  77.8408940  28.4454734   5.8716476  65.3270721  51.4297342  27.7802444
  65.7944727  51.1018801  28.5485435  65.1607656  50.6501341  27.2503424
   5.9237687   5.3094299  45.2168560   5.9971492   6.0814674  44.6557808
   5.2214543   4.7924478  44.8222446  24.6477000  22.5825508  54.9398661
  23.7568061  22.8032405  54.6681404  24.6239249  21.6382320  55.0945902
  79.0360117  69.3988752  61.0666275  79.3502712  69.8108292  61.8714666
  79.1006804  68.4592676  61.2374640  68.6629152  63.7571383  25.2796006
  67.7150393  63.6323071  25.3263116  68.9800549  63.0008745  24.7859216
  69.9673128  71.2605238  29.2905426  70.4202080  71.2922716  28.4478617
  69.7622871  72.1746683  29.4868469  60.8164175   7.9434497  21.7030740
  61.4486392   8.6457164  21.5502667  61.0242350   7.6206977  22.5799274
  45.6306314  51.8835783   0.8217568  46.5632725  51.6915989   0.7240178
  45.2385426  51.0464764   1.0702701  66.9815572  28.2203300  10.2627754
  67.1591742  29.0844352  10.6342530  66.5825541  28.4027583   9.4120419
  42.3837375  26.6842514   9.2800898  42.3666429  25.7843452   8.9543432
  42.3035192  27.2249657   8.4943241   7.9701869  39.1979511  35.1602745
   7.4427907  39.9933822  35.0870323   8.5812585  39.2471988  34.4251537
  35.4603124  59.5099592  56.4733744  35.3890610  60.1337385  55.7508373
  34.5822835  59.4825077  56.8535614  23.9391899  52.9755217   3.9499992
  23.4905290  52.8883272   3.1089682  23.4027147  53.5950762   4.4445509
  20.7686934  72.6594400  15.1811707  21.5452799  73.2102060  15.2802026
  20.9177527  72.1794844  14.3665218  21.9103265  41.5528822  10.0346696
  21.0460901  41.9469500  10.1531482  22.2052240  41.3508797  10.9226227
  38.4670877  16.3605028  10.5785889  38.4375381  17.0843798  11.2041754
  38.9736223  16.7015177   9.8414558  40.7126808   0.2518203  45.7268047
  40.3309011  -0.2149685  44.9834442  41.0974455   1.0397092  45.3428555
  24.3202336  64.1246288  45.7485533  25.2087887  64.2749660  46.0712004
  24.4370897  63.8780420  44.8310709  58.3456655  62.4848263  18.0959487
  58.0765154  63.3389585  18.4339535  58.7567421  62.6792650  17.2536659
  50.6538487  23.6352831  51.8227321  50.9124923  22.7355570  52.0223015
  50.5864740  23.6589998  50.8682006  33.4774637   2.2410989  50.3005791
  33.1448269   1.6850233  49.5960474  34.4191813   2.2959054  50.1381111
   4.8483674  30.1440106   3.5372013   4.8657672  30.7926475   2.8334946
   4.0679328  29.6189760   3.3597511  44.8762943  56.5346198   2.9079583
  44.9422987  56.7304294   1.9733281  45.2874001  55.6753581   3.0022672
  63.5395034  60.3246932  38.5441327  62.8240724  60.9534197  38.6394954
  64.2114790  60.7989614  38.0544901  15.2510774  11.3234842  46.7311954
  16.1152172  11.1162114  46.3754797  15.2803373  12.2656167  46.8978071
  72.3729083  16.1384249   5.7548201  71.5507666  16.2554049   5.2787620
  72.4621287  16.9349790   6.2780529  13.4173648  64.8518889  36.1364722
  13.3245032  63.8996809  36.1063170  12.8811519  65.1213317  36.8821979
  65.4531665  58.7922959  12.1008360  66.1548634  59.0349441  11.4967048
  65.7976492  58.0367463  12.5769746  38.8523419  47.4692242   8.9404333
  38.3986397  47.3966687   8.1007177  39.7781571  47.5380700   8.7072843
  78.2336435  38.0016851  55.4090261  77.6304570  38.3795810  56.0490227
  78.5837220  38.7561536  54.9352598  23.2726590  74.6405939  18.3021033
  23.3009402  74.9414116  19.2103660  24.1868989  74.6483077  18.0186629
  30.1360376  59.8678808  20.4569292  30.4366239  60.7174628  20.1342988
  29.6656759  60.0714450  21.2653542  23.2610655  25.4005885  60.0769424
  22.4621153  25.6683016  60.5310822  22.9777765  25.2188444  59.1808701
  51.7959667  16.4029426  53.6491984  51.5610886  15.8950752  52.8725821
  50.9599114  16.7232651  53.9877826   9.7223741  11.9629383  44.8087454
   9.2326701  11.1472690  44.7033691  10.4473937  11.7336178  45.3901148
  64.5873900  67.8526573  16.7115700  64.5815189  67.7782815  17.6658583
  64.2535968  68.7327956  16.5378714  12.0269716  19.1612482  24.0627933
  12.5565958  19.4791460  23.3315825  12.5881612  18.5251319  24.5062494
  -0.1584205  10.2681029  25.1244259   0.4992886  10.7033932  24.5820498
  -0.2694295   9.4070011  24.7214198  63.6197789  56.8244546  25.8573318
  63.3074184  56.6526334  26.7456675  63.3495553  56.0554474  25.3554940
  44.0968515  67.8356557  18.8320982  44.5275654  68.0811017  19.6509230
  43.4526004  68.5278230  18.6835170  14.7423315  25.6893516  23.2079768
  13.9052057  25.5616283  23.6542249  14.6235597  26.4927649  22.7013683
  23.9709775  67.7191149  37.3033428  23.0387132  67.7529572  37.0889258
  24.3403690  68.4992473  36.8896127  10.9625578   8.3363223  18.0615819
  10.6069684   7.5540125  18.4832215  11.7657542   8.5257035  18.5466003
  59.0938260  60.6820517  27.1301556  59.3839182  60.1726668  27.8868628
  59.0514334  60.0465326  26.4156270  29.3225408   9.5388162  40.1032209
  29.2086077   9.0150726  40.8962822  28.5602808   9.3266755  39.5645285
  22.6640558   7.2483206  12.2672880  22.1111321   7.9246175  12.6586056
  22.0659518   6.7341274  11.7249691  14.3923871  69.4670062  32.7618909
  13.9047973  68.6544685  32.6267219  13.7606113  70.0608115  33.1674552
  68.7197399  35.4121387  48.4613341  69.3913555  35.6391709  47.8182047
  68.2246971  34.7032854  48.0506092  29.9734752  43.3989828  27.8502178
  30.7485692  43.6041539  28.3730602  30.1665275  43.7586205  26.9844103
  22.0856810   9.3632507  27.7644539  21.8025088   9.7978216  26.9599700
  21.4763808   9.6763200  28.4330153  68.3208433   8.6274570   9.2227280
  68.8458529   8.1459206   9.8620391  68.4754661   8.1728154   8.3947033
  42.2447729   9.8027629  27.8434587  42.5724792  10.4174650  28.4999514
  41.7975521  10.3540158  27.2013164  15.2324629  24.6340871  52.8548241
  15.9897542  24.7068024  53.4357309  14.4942367  24.4736409  53.4426260
  38.7175453  37.9428854  57.5476843  39.1460610  38.6485263  57.0632493
  38.8869715  37.1577044  57.0270914  62.4878314  28.8752365  50.6942368
  62.3923150  28.9625549  49.7458220  63.0439154  29.6119261  50.9477901
  20.0298953  18.7802517  33.7459111  20.2560472  19.6130180  33.3316779
  20.8303928  18.2586586  33.6877990  14.3033671   0.7539771  25.7022619
  13.4528601   0.4950017  25.3475785  14.3627369   1.6920465  25.5213380
  44.5418848  74.3192495  44.3671322  43.8033791  74.7421243  44.8053312
  44.3547549  74.4176825  43.4335804  60.7661629  19.2990017   1.4615639
  60.7483673  18.3540630   1.6132393  61.5873957  19.5898044   1.8581039
   6.2166059  32.2809649  12.9937279   6.1205488  32.3874307  12.0473289
   7.1614444  32.2164178  13.1328130  67.0002206  73.6623849  52.1191406
  66.9807680  73.6132710  51.1633968  67.2052487  72.7707906  52.4006605
  23.5032845  15.2761269  32.0323682  22.5539184  15.3876066  31.9822717
  23.8564396  16.1483836  31.8572068  27.2072911  49.3800020  36.9885278
  26.7995524  48.5894489  36.6349721  26.8668842  49.4465828  37.8806734
   6.3277285  74.4278005  30.5908012   6.1316912  75.3098819  30.9066081
   5.7166116  74.2912735  29.8668337  52.5819621  51.6719000   8.1453997
  52.4364100  52.5640957   8.4600937  53.5314482  51.6056697   8.0438042
  57.5880392  67.2513162  59.8530149  56.9469850  66.8848043  59.2439556
  58.2936187  67.5741564  59.2925119  70.0688457  29.0059948  46.9515228
  70.5054379  28.5186076  46.2528992  69.1779757  28.6562181  46.9669676
  10.8447354  63.8584511   9.4837916  10.3376715  64.4972305   8.9827156
  10.5759613  63.9984255  10.3917563  44.5358181   0.5148903  22.6727843
  44.4825745  -0.3571306  22.2816610  44.2182446   1.1040958  21.9885206
  68.6567720  57.5823288  51.7965078  68.3631225  58.4920542  51.7474842
  68.0415125  57.1641820  52.3988724   2.8904122   9.4531745  54.8773479
   2.5677845   9.2190987  55.7476044   3.6450171   8.8805985  54.7396517
  13.1681955  61.4755630  44.8985100  13.8059819  60.8621693  44.5335293
  12.3928893  61.3714075  44.3468904  70.9769114  43.2593720  38.4141517
  70.1566764  43.7323301  38.5547113  71.5643056  43.5915797  39.0930009
  80.1025219  38.6731648   8.8496596  79.3135416  38.1320930   8.8810110
  79.7766797  39.5730281   8.8671178   4.4128010  30.1384044  38.9006162
   4.7591990  30.9421158  39.2882848   3.6555213  30.4256129  38.3904505
  69.2280694  46.6926806  19.8835421  68.7280424  47.3973577  20.2954078
  69.5029338  47.0547264  19.0411615  62.0248381   7.0826846   6.7114520
  62.8130284   6.8750668   7.2133309  61.4167300   6.3722736   6.9157863
   5.7112479  39.7217751  37.1433210   5.0144231  40.1900196  37.6031160
   5.8182645  38.9079285  37.6356959  78.2987593  19.0664709  48.2744837
  78.0664885  18.3559179  48.8723087  77.4589502  19.4459462  48.0157328
  46.1474986  32.7551089   4.4906611  45.8367379  33.3735533   5.1518578
  45.5380078  32.8593333   3.7599796  27.4861431  16.7959452  16.0110235
  28.1306601  17.0625901  15.3554857  26.6533637  17.1302974  15.6779754
   6.3648097  56.1223095  15.3796351   6.3766448  56.9986038  14.9946666
   6.5226929  55.5341284  14.6411586  24.8925185  25.1191139   0.7552967
  25.1956177  26.0214996   0.8556131  25.0320935  24.7225738   1.6152428
  35.5897236  22.6842380  40.7336378  35.2231216  22.9775310  41.5677929
  35.1417065  21.8580008  40.5524063  25.7672572  23.5276580  22.8419614
  25.8910227  22.9265952  22.1073604  25.3963065  22.9836202  23.5366917
  53.2679303  70.7226570  28.2347512  53.9509721  70.5170475  28.8730383
  52.4481426  70.5413653  28.6944413   1.6402884  12.3958898  18.0518115
   1.7708354  12.1318042  17.1410704   2.4938323  12.7284706  18.3294511
  16.1538208  17.6940811  17.2657299  16.9951797  18.1497300  17.2927666
  16.1897099  17.0810902  18.0000222   7.1577364   2.5470394  27.5881457
   6.3637495   2.5845394  28.1214476   7.8538978   2.3342218  28.2096767
  51.0705757  13.4741628  18.7388647  51.4223576  13.3031976  17.8652215
  51.4606047  14.3099976  18.9947689  55.1529296  59.6660571  17.8996527
  54.3009007  60.0823157  17.7692413  55.1031322  59.2884915  18.7778306
  50.3093290   3.6557293   6.5731966  50.8858824   2.9335514   6.3236356
  50.5831289   3.8848698   7.4613178  78.8161476  54.3223374  36.5743923
  78.2968600  54.0225761  37.3205256  78.4309633  53.8765757  35.8199620
  75.2692795  39.7163807  54.5626718  75.5043364  38.9322484  54.0665680
  75.0642252  40.3701657  53.8942784  43.5741706  73.7836706  48.9864159
  44.2991127  73.6862453  48.3690023  43.7370409  74.6231494  49.4165087
  33.2744980  44.3651188  61.6165715  34.1177619  43.9196259  61.6982674
  33.4989310  45.2542264  61.3420716  19.9258821  57.9021554  11.2805271
  19.9790685  58.2572978  12.1678138  20.7784478  58.0987947  10.8923316
  68.6983565  32.8563404  42.6930618  68.1269065  33.2157230  42.0144463
  68.6255649  31.9075251  42.5897217  72.4836345  68.9065896  37.8133130
  73.1427522  69.5732384  38.0066419  72.5343676  68.7875705  36.8648958
  21.5587775  71.1166259  47.8639269  20.7292287  70.8964970  48.2877445
  21.3039987  71.5516167  47.0502281  11.9427459  68.7751739   9.9649096
  12.5406353  68.7632989   9.2175013  12.4975555  68.5744803  10.7186604
  41.5043306  -0.1658884  34.6810651  41.4096260  -0.3055828  33.7388611
  40.9970188   0.6263145  34.8579288  55.2853179  42.1947655  64.8457166
  55.8128000  41.9846595  65.6163331  54.8103929  41.3863737  64.6528902
  59.7314985  73.4300410  57.9364014  59.4754120  73.4648644  57.0147514
  59.3477930  74.2178699  58.3215332   2.2623508  45.4580038  35.5194592
   1.5315191  46.0248773  35.7659793   2.6712768  45.9034603  34.7774458
  66.2146838  55.7600360  25.7240772  65.3840979  56.2331526  25.7742786
  66.0768791  54.9769848  26.2570643  62.0922514  74.4671710  21.3817024
  61.8879082  73.9963201  22.1896482  61.5388955  74.0553989  20.7180214
  77.1155987  15.5247939  43.7462997  77.4919221  16.2697530  43.2776356
  77.6371740  14.7744024  43.4615135  55.4671875   5.1440394   5.1766783
  55.2170435   4.6961102   4.3685827  54.6352354   5.3728330   5.5910927
  19.5414758   7.2358489  30.1273274  19.0549159   7.9555440  29.7254181
  19.5831358   7.4640638  31.0559893  26.9417238   8.6920708  39.0851521
  26.3692117   8.4926707  39.8258972  26.3927221   8.5520506  38.3136439
  13.6122119   9.6227992  32.7014685  12.6912534   9.5152712  32.9391766
  13.7329972  10.5699039  32.6333857  21.8362546  15.2171290  23.6344576
  21.2427378  15.7280564  24.1848445  21.2667990  14.5959735  23.1804562
  61.7291117  38.1983251  54.6033483  62.0305443  38.8349892  55.2514446
  62.1036578  38.5024548  53.7766355  39.2651606   4.1920987  54.9794149
  39.3508267   4.0941131  54.0311050  38.4575558   4.6923900  55.0965261
  41.2915857  36.4711627  11.5363783  40.8411057  35.7063835  11.1780304
  40.6236239  36.9226103  12.0523733  68.4535297  74.6507143  22.7811766
  69.1789683  74.0268224  22.8081942  68.0673583  74.6070381  23.6559319
   8.1735498  29.2768502   9.4371217   8.8979870  29.3661213  10.0563574
   8.2204127  30.0665474   8.8982219  58.4102817  72.5079434  23.2868838
  58.3198501  73.2441973  22.6819181  58.0273120  71.7655291  22.8195643
   6.9967771  12.7808022  32.6528502   7.6170045  13.2049346  32.0598388
   6.2975359  12.4636328  32.0812750  76.1432154  32.1862422  13.5378260
  75.6497271  31.6772072  12.8947157  76.4936002  31.5325140  14.1428894
   6.8258506  33.3342457  49.5211601   6.3653469  34.0967345  49.8715544
   6.7458224  33.4217238  48.5713291  23.1089330  29.9331713  17.2130454
  23.2379031  29.0325642  17.5105476  23.7420177  30.4447770  17.7167249
  21.7470074  23.4015179  40.2612638  22.5816894  23.1571913  39.8614573
  21.7859244  23.0304003  41.1427355  21.7779851  43.4239292  62.5420952
  21.2777090  42.8544903  61.9575453  22.6138806  42.9723835  62.6587820
   7.9068857  19.5600891  35.2816582   8.0183333  18.9436221  36.0053849
   8.7941813  19.8592627  35.0830817   9.9713390  74.1058590  15.8359778
   9.0325277  73.9201181  15.8550811  10.0772683  74.7310023  15.1188958
  30.0622098  72.1410527  35.2368474  30.3669326  72.0648648  36.1410427
  29.1978280  71.7298778  35.2399540  14.1706872  44.6743250   1.8989658
  13.6415863  45.3770304   2.2764492  13.8077354  44.5455217   1.0226624
  17.0580399  25.9883618  35.8949542  17.2943759  26.5041137  35.1239967
  17.8736913  25.5611634  36.1565781  29.8680449  13.3253932  32.6534653
  29.9252057  13.3207440  31.6979837  30.0662851  12.4246705  32.9096508
  77.5825437  67.7510797  19.3136764  76.6289099  67.7587013  19.3958569
  77.8906067  68.2798051  20.0497317  74.1109474  70.2305834  17.2095978
  73.3504756  70.5577894  17.6900661  74.1377934  69.2953735  17.4118185
  40.8213425   0.4264431  40.1252651  40.8819675  -0.0928909  39.3234897
  40.9990454  -0.1976871  40.8289099  39.7885227  65.9624309  55.2116799
  39.3696857  66.7962212  54.9981326  39.3782497  65.3302378  54.6215611
  61.5988036  64.8776095  11.9600463  60.6888087  65.0888412  12.1686685
  61.5698822  64.5584946  11.0580707   6.2137425  43.3849525  38.1393027
   5.7660508  44.0399313  37.6037574   6.7182279  43.8967466  38.7715936
  15.3138363  10.5906618  22.6876163  15.5624509   9.8674631  22.1119380
  15.7480323  10.3958333  23.5181260  77.2448042  16.0421157  10.7024992
  76.8964660  16.0716963  11.5935767  78.0511517  16.5562809  10.7433629
  71.5142015  51.3931751  43.4718180  72.2036472  51.6795158  44.0709066
  71.9536516  51.3036823  42.6261806   4.9138162   2.9808992  59.4161606
   4.7703081   3.7059337  60.0244045   4.5208639   3.2760167  58.5947418
  27.2851849  45.2884722  12.9316580  27.9915452  44.6793652  12.7165437
  27.1942425  45.2236605  13.8823211  42.2107792   2.4068312   9.5292014
  43.0156946   2.4592276  10.0445676  42.2820187   1.5770045   9.0574551
  77.9700406  59.3239759   0.5644840  78.6796935  58.7829016   0.2182716
  77.3521836  59.4024180  -0.1623827  39.2519259  19.8669302  24.2496181
  38.5613966  19.6013665  24.8569703  39.1287112  19.3034923  23.4856892
  16.1673474  47.1392918  20.0881910  16.2479901  48.0045462  20.4895234
  15.2319455  47.0449352  19.9083233  21.0676360  37.7827430  38.9355683
  20.2442813  37.2995925  39.0054727  20.9518266  38.3436418  38.1686187
  16.8994777  61.9992786  45.5344009  17.6630847  62.1694057  44.9828625
  16.2891929  61.5346043  44.9618101  77.8965791  61.6772001  41.6580248
  77.2306188  61.9511526  41.0274076  78.5511501  61.2187486  41.1311579
  65.7927580  63.3092575   4.8431367  65.3643938  62.7708082   5.5085742
  65.3320213  63.0980687   4.0311316  76.1240244  34.3084803  51.0142761
  75.6943035  33.8233620  50.3098386  76.6598320  34.9610907  50.5634504
  15.6832886   9.2122644  40.7289934  16.3852453   8.5616761  40.7140303
  14.8862457   8.7084705  40.5642319  18.6495543  31.7807817  54.1622400
  18.0355871  31.3356996  53.5781336  18.3436739  31.5624905  55.0425911
  63.9237991  37.2490120   1.2341402  63.6190477  37.8747392   1.8912715
  63.3134023  37.3520637   0.5040525  74.9748442  24.7838998   6.3887191
  74.1524241  24.7040105   6.8719113  75.5381823  24.1053987   6.7608994
  44.1984451  33.3646840  63.3953087  44.6266353  32.7118060  62.8415617
  44.8565460  34.0502504  63.5099126  66.1583022  13.8393927  46.2411213
  66.5569392  13.4341896  45.4709721  65.8090070  14.6709168  45.9205151
  15.1125026  36.6762352  42.0898104  15.7508266  37.2017956  41.6075659
  15.2067554  35.7946038  41.7291498  77.6946862  71.3421680  20.3529954
  78.1309112  71.2690841  19.5041144  77.0504649  72.0397069  20.2319622
   7.0776284   5.6434697  41.4111233   6.3770735   5.2191782  40.9157133
   7.7895057   5.7459259  40.7794857  77.8180488  23.9360356  62.6937580
  77.4641022  24.1765213  61.8375349  78.3809135  24.6715713  62.9354239
  17.2140348   4.4158155  64.5057917  17.1515524   5.3279746  64.7891521
  16.3822365   4.2446992  64.0641356   3.1587476  56.3810778  25.8660579
   3.1992206  55.4326439  25.7432914   4.0731949  56.6507864  25.9513497
  75.0663108   5.5238503  22.8326821  75.4370937   4.6416897  22.8560233
  74.8303113   5.6602657  21.9151163  16.7949140  22.9862499  12.8259647
  17.4336469  23.6989450  12.8082085  17.3127675  22.1965623  12.6695824
  43.3105087   2.7538466  28.7155581  44.0303946   2.2864185  29.1392422
  43.7362623   3.3042619  28.0582857   4.2923343  68.2093000  41.0932207
   5.0666511  68.0438089  40.5553770   4.3247306  67.5363636  41.7731762
  20.0349236  26.3780093  25.9266734  19.8233652  25.7088089  25.2757931
  20.9666467  26.2516379  26.1059904  15.5085532  75.0066079   8.5314989
  15.2327029  74.2875162   7.9631299  15.8221166  74.5763807   9.3269950
  65.1181427  22.7695465  49.8940611  65.7197777  22.1966028  50.3694630
  64.8396042  22.2509289  49.1392851  18.3134334  57.3182004  14.6619833
  17.7444904  58.0315476  14.3727243  19.1912715  57.5871830  14.3912828
   9.5286965   5.9126997  19.1050315   9.0867060   6.1298728  18.2842314
   8.8606918   6.0420537  19.7782838  41.8432947  58.7492369   2.6778406
  42.7866550  58.6439227   2.8011793  41.6505511  59.6166061   3.0338663
  30.8803153  23.2693887  59.2170334  31.2949681  23.7422824  59.9386024
  29.9495578  23.2600856  59.4402695  78.7023969  30.1565552  29.2619419
  78.6974477  29.2314696  29.0161252  77.7967456  30.3435707  29.5090294
  11.6155100  33.9295483  38.5949659  11.6225815  33.4387660  37.7731895
  10.8199108  34.4598913  38.5503697  18.8853621  19.7381294  64.8319864
  19.6820045  19.8470831  65.3513336  19.0359700  20.2670813  64.0485573
  34.8007417  18.9214218  57.6541805  34.6556401  19.8016930  57.3073387
  34.2348933  18.3592200  57.1250534   6.3161641  49.6639252  13.1909788
   5.6083447  50.2943897  13.0577874   7.0358533  49.9947405  12.6535404
  47.9561019  21.3666910  52.0660025  48.1310630  20.8091325  51.3078814
  48.6467338  21.1452276  52.6906711  74.3387588  73.8412448   7.8515095
  73.4679111  73.6603795   7.4977523  74.2182096  73.8320478   8.8010436
  13.3687338  36.3758800  64.5592998  13.2083687  37.2952105  64.7722452
  12.5006136  36.0181888  64.3731394  27.4315127  67.9439943   9.9038285
  26.8452128  67.1879434   9.9333864  28.0750712  67.7218591   9.2309844
  41.6668892  40.2519131  21.8773651  42.1001530  40.8202076  22.5141978
  42.1879816  40.3449297  21.0798407  69.6115426  23.9253044  22.4651980
  70.1384107  24.2065525  21.7171741  69.1077724  24.7018909  22.7088451
  30.6373572   3.3973214  20.0483036  31.3450217   2.7541256  20.0065708
  30.6064034   3.6600158  20.9682298   1.1739884   2.1930134  19.1654372
   0.2618639   2.3852776  19.3829119   1.4890756   2.9860014  18.7317073
  70.5138405  61.2683563  21.1952448  71.0065289  62.0098107  21.5470028
  70.9988161  61.0084849  20.4119825  43.6112785   0.8229586  38.7162590
  43.1730127   1.4999899  39.2317986  42.9697275   0.5763140  38.0500698
  28.8882709  28.2290316  17.5252795  28.7304068  29.1348124  17.7914953
  28.5540843  28.1809258  16.6296029  60.6383419  47.3967183  63.5935077
  60.0169444  47.7755672  62.9717603  60.8679295  46.5478087  63.2155201
   0.1525304   7.4017179   2.7237990  -0.5696849   8.0233729   2.6333416
   0.8617535   7.7813953   2.2050701  64.1479118  57.9390555   7.9087973
  63.8999065  58.7484687   8.3555353  64.4006892  58.2188504   7.0289963
  24.5087719  10.4457593  33.0209446  25.3963661  10.7733572  33.1661606
  23.9577103  11.2280321  33.0456519  10.8485334  71.7900984  46.1920786
  11.2792484  70.9472560  46.3346720  10.1473443  71.5984215  45.5693245
  24.1259098  16.8489420   5.9320408  24.5186257  16.2734210   6.5883815
  23.7826347  16.2533951   5.2659208  69.7520490  74.7715177  33.8868403
  70.2693673  74.0744469  33.4834719  70.0669332  75.5744015  33.4715605
  28.0541539  20.1326203  22.5078034  27.8194237  20.7508516  23.1998444
  27.2557545  19.6263003  22.3580360   4.2688447  20.3456354  29.0396047
   4.9220386  20.4692411  28.3509159   4.0982404  21.2280107  29.3690586
  31.4298296  24.7732282  23.1041503  31.5821791  24.1252446  23.7920022
  31.0988975  25.5420876  23.5684443   8.8505405  27.2953248  33.0398941
   7.9337376  27.2872019  32.7648687   8.8663757  27.8720641  33.8036704
  34.0141225  47.6979971  27.2926235  34.0861201  48.6191320  27.0425057
  33.4763741  47.7061462  28.0844522   6.1620963  34.2397165  19.1752398
   6.1655688  34.9909520  18.5820580   6.4108658  33.4979439  18.6237693
  25.0591207   8.4177035  34.7882962  25.7064843   7.8332967  34.3938088
  24.7061443   8.9163882  34.0514421   3.7783748  48.3034611  31.8840933
   2.9800993  48.2872438  31.3561511   3.4908015  48.6109734  32.7437258
  14.3156540  37.6688647  30.9503984  14.3631101  37.7162075  31.9052482
  14.7930598  36.8700910  30.7261753   2.0842321  51.3023435   9.9080748
   1.2420948  51.5660583   9.5372767   2.7354439  51.7201315   9.3445057
  17.1263242  13.7656581  25.4645348  17.3486865  14.2296743  24.6573949
  17.9582143  13.4035158  25.7695651  26.3811445   9.7300392  26.7312598
  26.6541886  10.2039313  25.9456992  27.1499944   9.2175496  26.9811773
   6.6715467  46.5414572   2.0920208   6.7699343  46.3357401   3.0216610
   5.8532107  47.0354128   2.0413235  26.0181642  30.7427311  12.6086378
  26.1094069  31.4038062  11.9224262  25.2011418  30.2904940  12.3984301
  18.9725482  19.7741246  53.7378216  18.7733054  19.6846902  54.6697712
  18.6606205  18.9580071  53.3468151  72.8123346  11.5034115  37.5050783
  73.2205209  11.9948518  36.7922664  72.4120835  12.1733284  38.0593729
  63.7428578  51.8670099  21.6707277  63.0001106  51.2696331  21.5829825
  63.7076660  52.4101942  20.8833623  50.5811377  45.2735822   9.3888259
  49.6267917  45.2270000   9.4461453  50.8912014  44.7640984  10.1375031
  18.9838445   9.1849935  24.8193884  18.8599467   8.2449681  24.6881151
  18.1791735   9.4749260  25.2491283  64.8595019  16.4953853  63.8377452
  64.4067307  16.3778592  63.0026299  65.7792874  16.3210966  63.6381230
  10.7418072  30.8486128  34.7913909  11.2835181  30.2843285  34.2396998
  10.0356007  30.2788997  35.0962377  18.8960779  25.8241105  39.1905904
  18.1119668  25.8281159  39.7395778  18.9852190  24.9142599  38.9069414
  75.7612689  72.0643039  23.9620972  75.6819471  71.2944894  24.5254135
  76.7043813  72.1810948  23.8475180  19.3919742  33.9784431  27.4018812
  19.5896053  33.9491367  26.4657640  19.8496938  34.7569871  27.7190471
  33.4227610   6.4090550  61.8934727  33.3390522   6.7092788  62.7985048
  33.7787437   5.5235457  61.9668245  32.7924162  57.1507615  62.6269185
  32.7764684  56.4027602  63.2239705  32.0510888  57.0041210  62.0394131
  26.7247741  74.1628187   6.0400951  26.9703977  73.5442058   6.7280042
  25.8061616  73.9654202   5.8573091  23.1940460  24.6363115  18.8551807
  23.8516665  25.3124547  19.0182734  23.6874628  23.8161016  18.8603008
  14.0951204  29.6469808  49.1457701  13.5936046  29.6750855  48.3309555
  14.8948574  29.1726208  48.9185381  51.2373877  23.2185459  20.0857162
  51.9053698  23.0299449  19.4265771  51.0797691  24.1591930  20.0046539
  11.9711745  30.7348728  44.0838480  11.6374457  31.4114261  43.4946680
  11.7766380  29.9109840  43.6370897   1.6008472   2.8389650   5.4701561
   0.9097004   2.8945833   6.1300463   2.0073247   3.7055546   5.4754251
  48.1643534   2.5973904  48.5738277  48.8487148   1.9357210  48.6742067
  48.4356356   3.1088221  47.8115463  19.7576825  66.7943471  42.6601028
  19.1092794  66.2639533  42.1969748  20.5665080  66.2853633  42.6056385
  29.5167780  67.8554058  17.8031611  29.8451591  66.9856310  17.5753629
  29.8461890  68.4253597  17.1082687   6.6988313   0.8229306  33.1544852
   6.3349348   0.2885577  32.4486113   7.6214284   0.5710224  33.1943560
  60.4244709   4.0728730  22.9894090  60.8499908   4.2253864  22.1456623
  60.9274387   4.6001422  23.6100888   4.7882304  35.2463579  32.2596002
   3.9809701  34.9686766  32.6925611   5.3552181  34.4758797  32.2930884
  23.5470986  42.6336479  39.4184828  24.3153811  42.4967194  39.9727583
  23.4203076  41.7956591  38.9735913  14.0004241  35.9257102  44.7628927
  14.1561007  36.3490391  43.9186239  14.3638217  35.0461221  44.6604156
  41.2404060   5.7917106  23.7074876  41.6475677   6.5986961  24.0224862
  40.3504562   5.8194906  24.0588427  13.5455644  22.3341966   3.3095914
  13.2217693  21.5136909   2.9378951  12.7966821  22.6937079   3.7851512
   0.9771999  24.6363497  31.6173029   0.1524587  24.2332315  31.8884683
   1.4923781  24.6924186  32.4220872  15.8948326  26.8007946  58.7560129
  14.9719179  26.5492916  58.7212658  16.3490224  26.0067344  59.0378094
  24.6648526  41.0778046   4.3794733  24.6169758  41.5924788   3.5738367
  23.8137531  40.6436110   4.4372448  16.9602656   5.5007017  11.9466531
  16.7412817   5.0723588  11.1191261  16.7601740   6.4249170  11.7982554
  24.9273372  24.8577476  26.4235663  25.3578162  24.0040278  26.3778925
  25.6165433  25.4854417  26.2062526   7.2547543  32.6071024  42.9464722
   7.7613640  32.1578765  43.6230612   7.7671087  32.4902773  42.1464205
   2.1223079  24.2262435  45.9023190   1.4628199  23.7110353  45.4377031
   1.7635922  24.3362761  46.7829132  78.5611097  45.4584968  57.5934976
  77.6972643  45.3265047  57.2028851  78.4089843  45.3997553  58.5367042
   7.8652136  65.0758653  40.8401728   8.2049792  65.5959546  41.5683889
   8.0819504  64.1721993  41.0696173  69.0987349  71.4117044  64.9428973
  69.3497610  72.1738595  65.4647581  68.8239289  71.7771977  64.1019875
  27.3683715  21.9341183   8.3610970  26.6067743  22.1910429   7.8412980
  27.5312757  22.6835227   8.9338851  26.1488008  47.1996450  18.0266881
  25.7207012  47.4877453  17.2204864  26.4710259  46.3209486  17.8259504
   2.3933735   3.5289297  13.4051633   1.7341492   2.9424620  13.7762570
   3.2098639   3.2738718  13.8347220  64.1072798  17.5688338   4.8078117
  64.0529776  18.4060693   5.2685928  64.9189663  17.6251435   4.3036035
  44.7717381  17.3238373  13.5023499  44.0557241  16.7022777  13.3711267
  45.2602291  16.9727719  14.2469037  13.1799496  53.2340414  59.9572783
  12.7698887  53.3401174  60.8156666  13.9961708  53.7302584  60.0187927
  21.0005364  58.3245009  53.2018965  20.3608450  59.0291828  53.0996591
  20.9953436  57.8720707  52.3583859  11.2869024  60.9143829   1.4871563
  11.3037670  59.9608946   1.5696427  10.9593368  61.2221432   2.3322693
  75.5446561   2.7676679  43.4987384  76.2431844   3.3960630  43.6815291
  75.8922942   2.2214795  42.7937132  19.2430019  14.2117667   1.4407903
  19.4875646  13.3247030   1.1770881  19.9195445  14.4707441   2.0664527
  69.2608407   5.6775987  41.8369198  69.9613145   5.0787783  42.0957327
  68.9760605   6.0816067  42.6566172  70.2284833  69.4206469  22.0588827
  69.9128564  68.9334207  22.8199482  70.4218312  68.7472128  21.4067054
  41.2170219  50.0436640   1.2875834  41.6693974  50.3888655   2.0572753
  41.8980169  49.5857430   0.7948518  70.4615577  56.8060486  26.9500589
  69.8388465  56.7300444  26.2270880  71.0344644  56.0453110  26.8536854
  74.6412787  44.8362350  33.4164906  74.8836902  44.3156719  32.6506686
  75.4716546  45.0128031  33.8586807  28.1684184  46.5343809  38.3221412
  27.7118850  47.2669315  38.7358856  27.7613473  45.7545757  38.6995316
  19.3276453  43.7484217  25.4138756  19.2677903  43.4761190  26.3295746
  19.5930743  44.6672010  25.4540777  69.6294478  44.1135359  34.3491983
  70.5847767  44.1075706  34.4087148  69.3978146  45.0413847  34.3082714
  56.6327429   7.3312509  46.6373920  56.4465761   6.5996116  46.0489416
  57.4862623   7.1221852  47.0169020  40.5233505   9.9885136  11.0418934
  40.3958967  10.8216911  10.5882353  41.2901035   9.6008831  10.6199163
  31.9971347   3.5742208   9.5626080  31.6836476   2.6768121   9.6749246
  31.3168526   4.0022695   9.0427786  66.1584667   4.4467545  30.5059528
  66.3805786   5.0353456  29.7845244  66.7892376   4.6615073  31.1931515
  21.1906719  46.5190202  62.8799991  21.3555253  45.5769998  62.8393492
  20.3704232  46.6394943  62.4015537  45.6272602  21.9288111  50.6262112
  44.8160839  21.8310976  51.1248827  46.2229443  22.3805571  51.2239695
  26.5139533  55.3546117   9.0437073  27.2554091  54.9301170   9.4753117
  26.6395677  56.2879931   9.2147392  34.3685834  70.3999345  43.6024380
  35.1593940  70.9388827  43.6220169  33.9126603  70.6139662  44.4164133
   8.4115005  17.8488660  37.5056005   9.0652883  17.2008085  37.2432756
   8.7408197  18.1999612  38.3329535  79.0504755   5.3624547  24.6994686
  79.2592206   4.6725729  25.3293252  78.2456601   5.7574528  25.0348496
  50.4186249   5.0914454  23.9857936  49.8926497   4.5587072  23.3893275
  49.9145889   5.8979183  24.0943241  71.5573883  48.5916311  48.4993428
  70.9436560  47.8839809  48.6963159  71.0757876  49.3917460  48.7093729
  21.3536882  22.6180959  36.7502666  22.2638321  22.5144196  37.0279741
  21.4112687  23.0442691  35.8951092  24.3021536  18.6534536  60.1569366
  24.0366387  17.7437210  60.0223207  25.2589059  18.6284959  60.1415968
   1.4238416  11.2544024   9.1576505   2.0009665  11.7884505   8.6118007
   1.8606913  11.2229562  10.0087702  24.5283532  48.9031887  30.0133228
  24.4290686  49.8549700  29.9912953  25.3977656  48.7444973  29.6456695
  36.1130571  13.9089012  38.9846897  36.5304518  14.6034753  39.4941783
  35.5953121  14.3726826  38.3266020  13.9293528  16.1786461  19.8405755
  14.5252526  16.8710995  20.1263094  13.2675791  16.6324162  19.3186748
  77.1846742  53.2247686  38.7232661  77.4054928  53.6210012  39.5661592
  77.8194943  52.5161266  38.6180902  50.9703398   5.4228443  20.7153606
  51.8328810   5.0197804  20.8143067  50.3837729   4.8606431  21.2214279
   7.5208175  31.3560987  20.9975529   6.7413938  31.3501263  20.4419518
   8.1204122  30.7406902  20.5756640  12.1280789  29.9505615  22.5973892
  11.6260993  30.0859666  21.7937040  12.8417242  30.5862451  22.5440121
  76.6194248  47.5521702  39.4985109  76.0460949  48.0493385  38.9151197
  76.7596960  48.1315726  40.2474099  14.1529596   9.0517271  16.0389638
  14.0611839   9.4622868  16.8987596  14.9005961   9.4965541  15.6397140
  30.3228569  18.8597178  35.9105420  30.3594232  19.1374826  34.9952579
  31.2137556  18.5714674  36.1091375  72.6457759  61.3120370   1.5854415
  72.4296840  60.8459168   0.7778098  71.7977698  61.5004974   1.9874355
  71.1896053  27.7037144  44.2087460  72.0717946  28.0390549  44.3684959
  71.3024763  26.7556477  44.1404676  41.6306400  20.1214051  22.3872495
  40.8044291  19.7284865  22.1057773  41.5994263  21.0151005  22.0458293
  14.6564071  67.5220000  17.6549160  14.5790832  66.6256480  17.9817271
  15.4919355  67.5354843  17.1880746   6.7463899  33.6339998  32.7080870
   7.3604918  34.3194652  32.9712367   6.7460769  33.6670709  31.7514586
  13.5710990  10.2254367  28.6951518  13.6434305  10.7022738  27.8683352
  14.4700015  10.1707244  29.0195179   3.1059816  24.9850368  11.2931907
   2.7519828  24.0964603  11.3299084   4.0537626  24.8631644  11.2375963
  63.8047555  11.5198660  36.1795139  64.3826369  11.5177023  35.4164410
  63.1384054  10.8631527  35.9771848  21.0196185  28.2040501  19.5071268
  21.2986279  29.1196465  19.5154107  21.2836552  27.8654575  20.3626227
  39.0824843  49.1088254  62.8837326  39.0199817  48.1537050  62.8753255
  38.9416492  49.3500155  63.7992786  10.8679354  10.9047186  25.3986931
  10.4187012  11.7246914  25.6037903  10.4868662  10.6244934  24.5665336
   8.9020556  45.1390219  37.1840382   8.2592565  45.8426476  37.2731805
   9.2044950  44.9762964  38.0775070   0.3497928  37.8305650  22.8234649
   0.9779745  38.5520744  22.7911448  -0.2277039  38.0483866  23.5550952
  61.9432306  22.8814244  16.4643109  61.0918617  22.9770970  16.8912220
  61.8421412  23.3304834  15.6250513  75.0960473  21.3530707  33.1670880
  75.3947369  22.0527482  33.7480068  75.7381666  20.6531167  33.2853270
   2.7949107  31.4484978   5.4311585   3.2011968  32.0899606   4.8483297
   2.2390290  30.9215665   4.8570755   7.4265206  24.1464019  45.2175760
   6.6244841  23.6696529  45.0038433   7.4661410  24.1319323  46.1738443
  53.9800844  72.3175647  42.5395060  54.3029352  73.1550001  42.8722239
  54.5212493  72.1409028  41.7699862  15.5117893  54.5996094  31.1023068
  15.9902620  54.1552544  31.8021941  15.2714324  53.8999844  30.4948664
  37.9474747  34.2423585  61.8262020  37.4815524  34.9533260  62.2662854
  38.4519661  33.8201231  62.5214988  19.7212744  30.7612014  28.3974624
  20.0410056  30.8528161  27.4999022  20.1196957  29.9496770  28.7119794
   2.0561577  34.7429228  15.1920712   2.3412637  35.5345178  15.6484985
   2.4512179  34.8121452  14.3229520   2.0263609  27.9960746  64.5726537
   2.8088078  27.4476058  64.6291376   1.6616043  27.8047246  63.7086127
  18.6119525  70.3426911  30.7509947  18.5987632  69.3871712  30.6958652
  17.9445283  70.5541797  31.4037180   3.5491888  64.4867985  36.5133572
   3.9889781  64.3321579  35.6773520   2.6373164  64.6560781  36.2765789
   3.9396158  66.1555672   4.1307539   3.3170050  66.2435818   3.4090605
   4.4263047  66.9798040   4.1290721  25.6859732  48.5748482  20.5210304
  25.8319283  48.1616974  19.6700084  26.0592055  49.4514513  20.4288697
  24.2726898   7.1734536  22.3660660  24.4419670   6.7531383  21.5229106
  24.6186519   8.0602467  22.2653627  74.8202260  21.2820817  62.9013499
  74.1051896  21.1535169  63.5245855  75.4895599  20.6535055  63.1717521
  19.8081796  16.5996410  56.4258110  18.9458148  16.3127138  56.7261976
  19.7729509  16.5077592  55.4736823  36.1936641  31.2745547  19.1979027
  36.5631557  30.4631567  19.5462382  35.5397773  31.5374160  19.8456430
  21.7067480   4.7263208  44.6008444  21.0042739   5.3576690  44.4454050
  22.3325300   5.1953608  45.1527739  42.9577732  35.1088357  15.6661093
  43.0131292  34.3127155  16.1946547  42.0295286  35.3420305  15.6808233
  19.8595870  53.0415583  29.7678661  18.9533830  52.8806686  29.5049167
  19.8335028  53.8897943  30.2106357  59.7883129  51.4129066   6.8526572
  60.2996635  52.2093201   6.9957733  60.1177740  51.0621977   6.0251993
  67.5372489   1.1644275   6.7749256  66.7498381   1.7016275   6.8623108
  67.9665501   1.4952571   5.9859502  32.2372890  46.2094593  13.9317703
  31.9619584  46.1001110  13.0215681  31.6652346  46.8962955  14.2741787
  42.8616476  42.7533484  28.3282948  42.6151991  42.9991484  29.2199659
  43.2799911  43.5366011  27.9708934   8.4536177  29.0701294  35.2632594
   7.7178526  29.6179295  35.5367494   8.7089217  28.5986447  36.0562015
  16.3574135  21.6763997  24.7450185  16.3872826  22.6149249  24.9307990
  16.4184856  21.2599993  25.6047344  16.4532244  30.3989601  31.9909358
  16.7460001  30.2142119  32.8833389  16.4704251  29.5483518  31.5522957
  25.1149702  23.6263061  60.8629751  25.9050560  23.7746358  60.3433657
  24.8602557  24.4979191  61.1657047  27.6465988  43.3036995  29.5462966
  28.5780883  43.1409359  29.3977380  27.6219583  43.8618183  30.3235483
  22.6718116  37.3454618  26.6340852  21.8658757  37.0734334  27.0730615
  22.6088643  38.2994509  26.5874314   1.5613684  13.9271116  21.4622474
   2.4414667  13.8166606  21.1024594   1.3575110  14.8510313  21.3171673
  22.1198511  36.6503525  18.2274151  22.4481630  37.0843530  17.4399590
  21.6319060  37.3313427  18.6904407   2.4744098  58.6724072  18.3526540
   2.8355448  57.8003328  18.5117090   3.0681531  59.2652075  18.8134015
  72.4463919  38.8060069  54.9363422  72.7858213  39.4968605  54.3673563
  71.5491584  39.0760851  55.1319456  69.6612787  30.8097053  13.4404385
  68.8437176  30.4425645  13.1042302  70.2732515  30.0736928  13.4379196
  44.5535798   0.3484733  30.2719593  43.8470037  -0.1751511  29.8940706
  44.5628066   0.1056917  31.1978126  21.2863207  32.7627206  30.0245380
  20.5707240  32.5952935  29.4112515  20.9584093  32.4479151  30.8669186
  12.6947093  39.2706823  32.3637509  13.2972288  40.0144386  32.3585367
  12.7980340  38.8726711  31.4993763  71.7469358  55.7657766  33.8813186
  72.3882771  55.1663160  33.4998035  71.6489363  56.4588785  33.2284498
  32.4973226  31.3893557   3.6341652  32.3059750  31.4934659   2.7020821
  33.4450841  31.5069056   3.6986941  10.2752578  32.6104164  21.0791445
  10.3379810  32.0596695  20.2987766   9.5262301  33.1817436  20.9095097
  12.3478031  51.3888550  24.9138021  11.6087902  50.8155632  24.7102594
  12.8149581  50.9370518  25.6165624  62.5197363  73.2203931  50.6931275
  61.6833282  72.7553267  50.7123166  62.5923872  73.6184877  51.5605801
  45.1444054  36.9467521   7.3471445  45.5052137  37.2968006   8.1617087
  45.1062107  37.7006817   6.7586190  71.6370631  45.2640027  58.9453923
  72.0041895  45.7931203  59.6535492  71.1042929  45.8775199  58.4394443
  37.7145529  34.1407013  31.0896301  36.8224430  34.4820523  31.0275888
  38.2520986  34.7920394  30.6390381  32.8658223  62.1371794  13.5366082
  32.6652598  61.3832855  12.9819405  32.0209527  62.3945141  13.9056695
  37.6747894  39.9553132  17.8763008  38.2757044  40.6989336  17.8297794
  38.1329465  39.3104935  18.4153068  23.2453656  21.3916469  31.6181803
  23.9304090  21.9664168  31.2767363  23.6495113  20.5242324  31.6403055
  31.5729380  37.5440121  11.6086650  30.6937790  37.1759319  11.5201759
  31.5953827  38.2646275  10.9790301  42.1224213  46.4146996  16.6452003
  41.2846231  46.0602665  16.9430208  41.9110203  46.8822765  15.8371687
  29.2150341   6.2275838   3.6946720  29.8868580   6.8326853   4.0088934
  28.4463437   6.7786358   3.5473961  74.1403516  23.9470388  53.7406414
  74.0267189  24.5047857  54.5102101  73.4412392  23.2969762  53.8106364
  73.0889471  72.8004675  29.8784304  73.5690220  72.2701712  29.2423916
  72.5604327  73.3940919  29.3450308  49.2069435  64.0257883   9.4722688
  48.2740116  64.1576242   9.3034595  49.4949722  64.8437929   9.8774076
  35.4570651  63.3826637  30.1189566  34.6440697  63.0986929  29.7010636
  35.1719356  63.9340210  30.8476090  32.1005177  56.4567947   4.1731912
  31.8148470  55.5866575   4.4515431  32.1899486  56.3868713   3.2227468
  18.9347351  31.9024253  15.4954362  19.6726644  32.1159148  14.9243712
  18.3382118  32.6453924  15.4038286  19.7754323  20.4636765  37.6846290
  19.3655992  20.0415468  36.9295979  20.1979589  21.2428665  37.3232889
  34.2881680  53.5442019  39.8674035  34.0161848  53.9201069  40.7046318
  34.6618581  52.6933861  40.0969744  25.4075193  28.3952856  17.1043038
  26.2473130  28.8417125  16.9962108  25.1747656  28.1059647  16.2220621
  34.6078467  46.9007730  37.9317260  34.9131179  47.0572662  37.0381069
  35.1515126  46.1790562  38.2476139  76.5769309  19.1232169  33.3133793
  75.8256030  18.5308623  33.3425975  77.1452332  18.7560320  32.6362967
  22.7630973  26.7306542  14.4891047  22.5965762  27.2877240  15.2494836
  22.8534222  25.8498168  14.8526967  38.2969427  67.0550156  20.3031516
  38.6694813  67.0124197  21.1838508  37.3875308  67.3203087  20.4403496
  34.6913886  30.2697945  26.7181325  35.4754925  30.5338097  26.2367725
  34.0166068  30.8860135  26.4332199  28.2438946  49.5545292  29.4611216
  28.5742497  50.4351997  29.2835903  27.8595352  49.2711544  28.6315441
  11.8690193  36.4171004  46.5753555  12.5232136  36.0804486  45.9630394
  11.5582860  37.2276998  46.1721134  22.3788381  29.7075415  33.4578776
  22.1198750  29.3803906  34.3193531  22.7804065  28.9535117  33.0261183
  39.5095658  50.3538656  28.7677360  40.2000713  50.5595875  28.1375647
  39.5699477  49.4062138  28.8883424  18.4705651  40.8972740  30.0207376
  17.6722217  40.3692627  30.0115252  19.0274978  40.4779577  30.6766558
  33.2544255  27.2209096  17.1545517  32.7738047  26.3991070  17.2539496
  32.7095723  27.7478290  16.5699804  22.3747158  48.8812590  23.0092311
  22.6696181  48.1609869  22.4520302  22.7556562  49.6637774  22.6107597
   8.3641154  71.3088131  11.3963699   8.0265927  70.5545855  10.9132016
   9.2032427  71.5043736  10.9794116  37.0784259  36.7520595  17.7865064
  36.9129372  35.8275294  17.6018751  37.2357154  36.7834282  18.7301731
   3.1681749  37.4001670  31.6645789   3.7880388  36.6761065  31.7525387
   3.1221125  37.5629163  30.7224417  69.5266755   0.2652032   8.1963277
  69.4535668   0.4792697   9.1264147  68.7886556   0.7175214   7.7877146
  54.0461636   9.9597132  15.6358933  54.2000628   9.9906349  16.5801334
  53.1907940  10.3731191  15.5189717  21.8748093  32.7532339  20.6574082
  21.4933276  32.9616761  21.5102029  22.6017523  33.3688068  20.5632997
  18.4834933  12.1970606  18.1474626  18.1379199  12.4449110  19.0050066
  17.9001009  11.5004873  17.8463483  13.2431138  29.6274590  17.5348401
  14.0112770  29.9977684  17.1000671  13.6013246  29.1219211  18.2644618
  19.8309326  62.9653788  22.7229023  20.0614619  63.5580349  23.4383345
  18.9812243  62.6041985  22.9754472  51.7302704  34.7249198  11.5901327
  52.6011419  35.0945497  11.4445591  51.3140202  34.7460198  10.7284367
  75.1743397  53.8519335  30.4908013  75.2815831  53.5522270  29.5880795
  75.9134069  53.4657574  30.9607792  14.4644213  42.8234148  31.2519050
  13.5914421  43.1196642  31.5095401  15.0626600  43.3616972  31.7701650
   4.1641724  38.0271959  21.4919496   5.1126224  38.0415082  21.3636160
   3.9778823  37.1412539  21.8028116  36.4447880  11.4774370  29.2752624
  37.2918391  11.5650094  28.8381553  36.2383413  12.3620892  29.5769286
   1.1835520  27.8273202  40.0762325   1.4528935  27.6231147  40.9717709
   1.4928810  28.7214567  39.9310809  38.0151582  40.5296564  31.8455243
  37.2557282  40.0598288  31.5009117  37.6427889  41.1953783  32.4237871
  46.7131376  57.7446651  24.3081045  46.9719887  56.8966150  24.6687126
  46.1098766  58.1068230  24.9570656  51.6743200   7.1197845  53.3168739
  52.2491233   6.4944602  53.7582344  52.1248929   7.3218204  52.4968761
  60.4539442  67.0118284  37.8120732  61.1990356  67.5431442  38.0927420
  60.0901413  67.4856091  37.0641351  30.3132646  32.7430440  64.9244515
  29.6672885  32.3740913  64.3221076  31.1576955  32.4644424  64.5701240
  14.7652738   4.3670751  63.1189884  15.1859729   5.0171853  62.5563183
  14.2738502   3.8099862  62.5153452  69.4915390  61.5093422  23.9429736
  68.8321495  61.2267447  23.3092690  70.0676394  60.7515287  24.0432453
  61.1656626  10.1912410  17.1512282  61.2106736  11.1023528  16.8612421
  61.6893561  10.1686580  17.9521441  73.7529230  62.4863338  11.2464368
  74.2259073  61.7101192  10.9464216  74.2873478  63.2224703  10.9485710
  63.2247257  15.9220147  24.2470121  62.9594755  16.8044472  23.9878106
  63.2954025  15.9635830  25.2006936  29.8237085  60.2780056  38.5412073
  29.7177196  60.9433651  39.2211342  28.9357686  59.9611521  38.3756733
   3.1733927  74.7749347  60.5760562   2.2206721  74.7471637  60.6643027
   3.4544119  73.8726372  60.7280966  11.5471856  27.7321918  28.5558128
  12.0838611  28.5052688  28.7306213  11.2865083  27.8238304  27.6393628
  48.5660847   2.9386384   4.3042490  48.6484011   2.8228290   3.3576533
  49.4265755   2.7018411   4.6502444  34.7142141  21.2091018  55.7427674
  35.5110137  21.5950300  56.1066437  34.0036599  21.6102315  56.2432104
  70.2028275  40.0530672   8.2093149  70.1401520  40.9588480   7.9062253
  71.0205173  39.7299170   7.8309041  50.6155825  62.6045656  32.2360468
  50.8607197  62.3157740  33.1151009  51.3996363  63.0380344  31.8990016
  41.0017824  61.9510174  25.6597900  41.1866379  61.4022589  26.4219737
  40.7538366  61.3317728  24.9732852  67.9851866  69.5286149  54.0521914
  67.2841072  69.9515695  54.5480078  67.5309849  69.0292925  53.3735102
  21.6199732  66.4165306  22.0931053  21.8706870  67.2371674  21.6689205
  21.5299654  66.6431189  23.0187345  43.4631555   3.4615899  50.1650685
  43.0935447   3.3470394  49.2895692  44.1988151   2.8499843  50.1963764
  20.0288606  34.3609214  24.7089791  20.7922626  34.2977977  24.1349888
  19.2994213  34.5470309  24.1177821  59.0536507  12.2865487  50.2838880
  58.9683457  12.2256137  51.2353307  59.9634590  12.0458700  50.1090866
  28.3317852  46.5487909  21.3221383  28.5629177  47.3008823  21.8672729
  28.4453249  46.8599987  20.4240894  63.0187321  29.5649076  32.1506977
  63.5907078  30.0823069  32.7175951  62.1421862  29.6937990  32.5130415
  64.8979998  72.4079895  27.2136497  65.1283455  73.3146477  27.0108128
  65.7341480  71.9420671  27.2108173  61.1186266  53.7630606  28.1485271
  61.1533070  52.8226709  28.3237171  62.0037508  54.0746832  28.3374166
  40.1927185  46.8477678  34.1902232  39.3895292  47.1782923  33.7878895
  39.8915291  46.3364935  34.9413013  36.6003180  58.0942965   6.1359513
  36.6652346  59.0403700   6.2662047  36.7695212  57.9689121   5.2022052
  52.1560478  69.6130943  16.5892303  52.1688843  70.5036259  16.9399714
  52.1846056  69.0504551  17.3630846  78.8811405  28.9739229  64.5491831
  79.6845468  29.0646745  65.0615664  78.2934578  28.4703065  65.1124131
  40.9878747  64.0912439  59.7894025  40.5189721  64.9096681  59.9523371
  41.9103543  64.3451978  59.7614813  45.2381563  61.1078310  24.4060874
  45.3847980  61.9888496  24.7503829  45.1732826  60.5542898  25.1842976
  68.7633371  67.4674129  19.7151232  67.9911327  67.6759815  20.2408838
  68.4328651  67.4034357  18.8190627  59.4856770   2.7101524  43.7730551
  58.6526616   2.5369460  43.3345127  59.8712285   3.4329803  43.2779789
  27.3400831  57.1439505  21.6850638  28.1929493  56.7096186  21.6994762
  27.1877265  57.4027777  22.5939250  77.6960309  36.4831359  24.6791410
  76.9637711  35.9169776  24.9230504  78.0018885  36.1321742  23.8427782
  16.6298008  39.5621162   2.8865665  15.9610414  39.1385799   2.3484081
  17.3924827  38.9879518   2.8166765  28.2748079  60.3389549  22.3713112
  27.6240182  60.9095955  22.7800608  28.2271957  59.5244074  22.8717852
  65.9213407  31.7033107  41.6250467  66.0139139  32.6016242  41.3077164
  66.7347796  31.5318878  42.0995617  53.9561136   1.7475088  44.3527794
  54.5192821   1.3894327  45.0389719  53.5382135   0.9804399  43.9613724
   3.6897883  44.7571850  24.5617867   4.2830214  45.4657221  24.8113489
   3.7270197  44.7392797  23.6054802  23.7627840  13.5881144  22.9260439
  24.6781921  13.8674789  22.9409021  23.2815122  14.3243938  23.3035368
  61.8529806  37.5710398   4.8652309  62.0548084  36.8737894   5.4891962
  61.1543164  38.0730921   5.2848095  70.4116011  62.2278214  45.9217310
  71.1760759  62.0191050  45.3848505  70.7545805  62.7846909  46.6206503
  47.3140764  63.7786674  22.9093885  47.0044136  63.8509560  23.8122249
  46.5494156  63.9951515  22.3758507  55.9606600  72.2645283  10.6784928
  55.6572056  72.7829695  11.4237201  56.4340878  71.5321636  11.0731304
  47.3863427  32.5430585  57.5100726  47.4802224  31.9781448  56.7430711
  46.7859952  33.2329227  57.2273963  52.1411800  71.6274881  60.9077883
  52.3281097  70.7158184  60.6838512  51.5581369  71.9303942  60.2117014
  20.8255720  24.5883471   1.8041367  20.0004911  24.1164547   1.9172663
  20.5706596  25.5100685   1.7632145  21.4097404  47.1500683   3.6948022
  20.7170773  46.5699720   3.3786729  22.1725178  46.9247055   3.1622502
  49.4310427  71.1022329  11.1916113  49.0378571  71.7468882  11.7798829
  49.3806887  70.2764940  11.6731191  41.1076880  68.6037350  15.4687238
  40.6648970  67.8967810  15.9381700  40.4146433  69.2361403  15.2790308
  66.2240744  46.9847488  21.4975739  66.1719131  46.4455462  22.2867298
  66.0260630  47.8711891  21.7996478   0.4948172  66.1827660  19.1580200
   0.3556379  65.8781958  20.0547338  -0.1347366  66.8951416  19.0465975
  62.7982759  58.1291389   2.0911267  63.7290668  57.9058552   2.0891994
  62.3960829  57.4843216   1.5091626  23.9460373  42.7722269  12.6142162
  23.2472419  43.3886724  12.8330893  24.3839454  43.1648546  11.8590302
  70.3263092  57.5324869   9.5767784  69.8362970  57.8158569   8.8048834
  70.7637882  58.3252907   9.8871183  68.8281631  39.7167349  37.9763746
  68.8231421  40.4032135  37.3093271  69.1220522  38.9332700  37.5115705
  79.1201162  46.5540648  50.3028154  79.4701815  45.6722307  50.1761246
  79.7156620  47.1208858  49.8126316  54.5324707  67.3919344  43.4744978
  54.2774820  67.4951839  42.5576830  55.3557730  67.8743458  43.5499048
  63.1335545  61.9503784  30.3866172  63.8049889  61.4587355  30.8595800
  62.4420500  61.3103104  30.2182102  78.5603952  69.0030813   4.0895161
  78.3926153  69.2617130   3.1833202  78.7295580  68.0621147   4.0426329
  76.8219328  33.9715719   9.2124647  76.0892200  34.5696664   9.0653390
  76.4210415  33.1913924   9.5956570  75.3633769   3.1490810  35.6393218
  75.1191647   4.0716464  35.5653715  75.5739959   2.8845460  34.7438359
  12.6848618   1.4941890  31.9504142  12.1399180   2.2096927  32.2780156
  13.0602662   1.0993440  32.7374339  53.2275446   7.6600463  51.2422514
  53.9621384   7.2190006  51.6689587  53.3755143   7.5212772  50.3067970
   6.5411919  56.8198347   8.4525621   6.5276921  56.1249590   9.1107428
   6.8178886  57.5998592   8.9334238  58.4283416  11.6530330  36.7804193
  59.2518584  12.1396739  36.7453694  57.8108184  12.2566707  37.1933675
  14.9011676  42.9137708  50.4029888  15.4454057  42.2253229  50.0207847
  15.3072898  43.7299062  50.1110536  11.3825480  27.3316867  35.7747412
  10.6679217  27.1157462  36.3738370  11.8833081  28.0067642  36.2327099
   7.0566051  12.1196081  54.1311139   6.2899272  12.4458839  54.6022635
   6.9435970  11.1691810  54.1188019  76.0978174  71.9551897  32.2862935
  76.8869066  72.4853277  32.3981810  75.8112955  71.7608643  33.1786919
  10.8002218  49.2096043  26.5339661  10.1374086  49.0398312  27.2033572
  11.0663446  48.3402777  26.2345004  78.3854802  35.5490924  44.7514778
  77.7840479  35.3590061  45.4714638  78.1161268  34.9547721  44.0511447
  74.8644924  55.8648443   3.7353581  75.7059908  56.1098385   4.1201794
  74.9227953  56.1574316   2.8258383  60.3919792  61.4023829  23.0300856
  60.2610731  60.5299950  22.6585507  61.2587166  61.6665411  22.7215028
  54.1281986  33.7016106   8.3957231  53.2102680  33.5359406   8.6106318
  54.1076708  34.4836044   7.8440934   9.1726653   9.3009288  54.2207098
   8.8929145   9.4536311  55.1232958   9.9061458   8.6907012  54.2972851
  69.4550212  16.4030940  13.3952916  69.8813470  16.6259296  12.5677514
  69.0725930  17.2270210  13.6971760  31.1478209  67.7861738   2.2914340
  30.5056167  68.3264351   1.8310827  31.4411926  68.3321190   3.0208936
  54.1219616  59.5280409   5.8899242  53.7356710  58.9863348   5.2017629
  53.7465191  59.1874933   6.7018974   9.9621026  32.4432285   8.5143471
   9.1673200  32.2675140   8.0106831  10.6699960  32.0893581   7.9759246
  31.8323629  10.4020215  64.7131239  31.1923043   9.7518588  65.0026833
  32.2831886   9.9840642  63.9794365  79.6854241   0.4524476   1.6354877
  80.2057202   0.6841190   2.4048087  79.2803986   1.2759549   1.3634172
  71.1310799   4.0712459  12.9633987  70.3620179   4.1587360  13.5265291
  70.7720263   3.9067466  12.0914757  11.8509118  29.1145809  15.0971329
  11.0156600  28.8054187  15.4478538  12.3366324  29.4151981  15.8652055
  72.1518707  33.1169248  40.2616882  72.9841566  32.6670718  40.1162100
  72.1708107  33.3624721  41.1866617  47.4779415  69.8013544  29.2505884
  47.5158310  68.8454771  29.2175221  46.5430021  70.0027752  29.2900157
  60.7947111  44.7984886   2.9451713  60.4115772  45.3205585   2.2402740
  60.1374769  44.1278458   3.1309408  75.8632024   4.5268543  16.4881849
  76.3178904   3.7510927  16.8163383  76.0157760   4.5121295  15.5433381
  39.4080369  28.5157348  55.9927273  40.3030555  28.2110025  56.1421096
  38.9990394  27.8167011  55.4825216   0.5993113  71.7241764  27.4049330
   0.5591330  70.8715582  26.9717383   1.2961420  72.1933508  26.9460964
  67.5853157  36.5971851   3.1211209  68.4806347  36.6340590   2.7845544
  67.0516968  36.3742685   2.3583679  62.9924917  48.9943886  29.0733862
  63.3730125  49.2268229  28.2263851  62.2570515  48.4214258  28.8564253
  21.1453629  43.2866573   5.5579346  21.6759968  43.9849901   5.9413278
  21.7151141  42.5176239   5.5721521  63.8115072  48.0627012  17.6639318
  64.2836475  48.2106876  16.8445325  64.4964552  47.8650904  18.3027017
  60.1217842  64.4405746  57.2588253  60.6669235  64.7117949  57.9973984
  60.2724028  63.4983253  57.1832561   8.3425173  43.1121016  26.0088992
   8.7874159  42.8297281  25.2097988   7.9817900  42.3066759  26.3795710
  75.7543881  14.8338134  21.4488244  76.5131839  14.8542888  22.0319533
  75.8661969  14.0318496  20.9383440  62.0073271  43.6975050  12.8406453
  62.4444675  43.0069256  13.3388793  62.4011183  43.6502409  11.9694829
  74.2290545  54.3520069  17.2820711  73.5480022  54.1494656  17.9234552
  74.7658300  53.5603619  17.2446084  18.8506508  38.6909604  37.0336890
  18.8842213  37.7367210  37.1010160  18.2600367  38.8586235  36.2993217
   0.1800124  15.6390388  23.9523101   0.2158038  16.5108878  24.3457890
   0.9558980  15.5964858  23.3933640  54.2728472  74.6506834  25.1281762
  54.7574377  73.9100647  25.4927111  54.8252964  74.9706745  24.4149876
  57.4048376  65.5257082  15.1243806  57.8302813  64.6768427  15.2454436
  56.6072989  65.4711533  15.6508636  77.5678587   9.5155603  34.7488022
  77.5453568  10.2407265  34.1244149  76.6757727   9.1685772  34.7451425
  63.1888437  41.8723917  14.2262566  63.9430714  42.0486546  13.6638463
  63.5656548  41.4938831  15.0205982  61.7041874  42.7050352  35.1816344
  61.2494802  43.2865953  35.7909441  62.2153425  42.1222067  35.7431173
  43.5619593  55.3160381  15.1254582  43.4051418  55.0685453  16.0367143
  44.3156052  55.9049320  15.1635051  53.9613152  52.1409750  21.6985393
  54.2619514  52.0961094  20.7908845  53.0515099  52.4316692  21.6354084
  52.4506617  51.6416979  15.5187082  51.9694614  50.9497690  15.9724820
  52.4291468  51.3836575  14.5971954   5.4655234   8.7519748  30.1166773
   5.9367911   8.8928707  29.2955279   6.0303513   9.1378219  30.7862425
  43.2524252  68.9087486  33.5549307  44.0936184  68.5649586  33.2541990
  43.2328701  69.8097992  33.2324958  45.3002453  60.9274864  34.4745016
  45.5314922  60.8883953  35.4025269  46.0805035  61.2817335  34.0479589
  59.9539883  23.0072982  25.1098943  59.3190797  22.6949985  25.7545614
  60.3872783  23.7453658  25.5385423  17.5789611  21.0074146  45.0875759
  16.9614236  21.4115627  45.6971121  18.1944672  21.7076785  44.8707342
  77.6925611  69.5909643  24.8244691  77.8033781  69.7902727  23.8948321
  78.5853434  69.5154333  25.1613140  53.3065557  30.5549192   2.4572183
  52.5491667  30.3335428   2.9990542  53.1326580  31.4464450   2.1552721
  58.6722191   8.8113220  53.6320114  58.1495173   8.3907516  54.3147469
  58.0266412   9.1793544  53.0286694  38.6438060  41.4336777  11.4388287
  39.3519878  41.8959856  11.8871367  37.9175878  41.4456463  12.0622838
  28.1975102  52.8869629  10.0747275  28.2956243  52.6676464  11.0012841
  28.9448071  53.4532785   9.8822075  76.2625504  56.9921446   7.1346396
  76.0444498  57.8756857   6.8379515  77.1502495  56.8425417   6.8093050
  77.2829254  28.2686712  50.5651480  77.9428633  28.9581968  50.4925388
  77.3439797  27.9734088  51.4736217  16.2605016  29.2210628  57.4577164
  15.6375663  29.8207189  57.8683269  16.0897510  28.3762504  57.8740966
   8.9294809  50.7272291  37.7955508   8.9635289  51.6764355  37.9142022
   9.7702056  50.5055857  37.3951888  23.3129565   3.2248981  18.2452822
  23.2324616   2.7247341  19.0574324  24.2099826   3.5587032  18.2574785
  71.1412525  46.4024734  10.6859338  72.0165157  46.7736578  10.7971179
  71.2462091  45.7426548  10.0004709  26.2773673  16.8559558   2.8715232
  25.8095424  17.3499782   2.1982437  25.5861680  16.4834125   3.4189573
  55.2913380  58.3272982  13.1952298  55.7891512  58.7525749  13.8934791
  54.4074440  58.2378435  13.5515475  51.7240429  73.8707829  45.5307150
  51.4226866  74.5279312  46.1580658  51.2465334  74.0714025  44.7257471
  26.3376331  56.2440729  26.0257816  25.6052113  56.4179850  25.4345608
  26.8412232  55.5578899  25.5878472  69.1368437  73.4356928  26.0210729
  68.8096857  74.3095732  26.2344480  70.0712347  73.5631943  25.8570933
  10.8000008   0.9442670  22.4203730  10.7319610   1.7945344  21.9860411
  10.0684754   0.4366405  22.0690560   6.2694010  46.0834169   4.9963406
   5.8489927  45.2288580   4.9002999   7.0799479  45.8995771   5.4711616
  54.7455072  58.3669138  26.9934702  54.6409225  57.7704287  27.7347517
  55.4161644  57.9558611  26.4480495  61.1283112  29.8160195  26.2961698
  60.4695225  30.2059150  25.7215261  60.6625175  29.6484494  27.1154308
  18.2876619  66.0490370  34.7687531  18.3252462  66.9635868  34.4887233
  17.3807558  65.7870817  34.6102166  30.4450195  21.7599346  53.9559680
  30.4893844  20.9894945  53.3896750  29.6631543  22.2279216  53.6628657
  55.5029488  58.2245016  33.5562706  55.7869530  58.0179405  32.6658177
  55.4442167  59.1797447  33.5734153  32.6178424  51.9239618  61.6443911
  31.8692414  52.4621869  61.3872105  33.1728141  51.8974496  60.8649450
  64.5288713  35.3017528  27.7189469  64.2338736  34.6326930  28.3366513
  65.3394492  34.9485309  27.3523068  69.6336651  61.2571573  34.7402859
  70.5382729  61.4536858  34.4967723  69.5001364  60.3529596  34.4559765
  58.8899660  65.8902359  26.7964005  58.9790249  66.4619589  27.5589180
  58.7224293  65.0230885  27.1654797  61.9703436  58.3693981   5.5719715
  61.3768673  57.9714489   4.9350628  62.0149469  57.7345991   6.2870038
  37.2920625  21.2043573  62.0183876  37.2947471  21.9943382  62.5589069
  36.9378011  20.5237724  62.5906902  39.0320301  11.7651659   1.2479300
  39.4324684  12.4497705   0.7120270  38.5725593  11.2075621   0.6200785
  51.7116261  54.1001081   9.0214449  50.9310198  54.6470070   8.9332223
  52.4350166  54.7237062   9.0851599  13.0695852  42.6285362  38.1544256
  13.8715872  42.3803091  38.6142135  13.1275114  43.5801125  38.0684996
  11.7401632  55.2087688  13.9046752  11.5467962  55.3997803  14.8224735
  11.8258890  56.0690880  13.4938943  42.1118975  63.0968618  17.3478615
  42.5396919  63.7830067  17.8601348  42.0810175  62.3425961  17.9363883
  72.9367860  14.1412170   4.0089494  72.3551638  13.4097965   4.2162684
  72.6488717  14.8475368   4.5872682  37.1206737  38.1493950   9.3961126
  37.3149848  37.8049922  10.2678132  37.9436135  38.5419846   9.1047764
  65.9897518  52.6259565  13.2988858  65.5972195  51.7977238  13.0228806
  65.2449179  53.2138729  13.4246123  69.2303498   2.8096111  30.3330493
  68.8576825   2.9167135  31.2081957  69.7640546   3.5934026  30.2024269
  64.9147606  59.3738365  49.0571404  65.4281759  60.0802851  48.6652613
  65.0334978  59.4861984  50.0002813  64.5410569   5.6338413  60.7290649
  64.3608649   5.7283599  59.7937393  64.7218545   4.7010524  60.8450794
  45.6511021  64.7711849  33.7348270  44.9267006  65.0943470  34.2705941
  46.2479830  64.3615294  34.3610430   9.2576377  31.6454894  17.3102021
   9.5322625  30.7475860  17.1242225   8.3075539  31.5891178  17.4121666
  50.1787329  73.9471912  43.0981445  50.2726221  72.9946709  43.1091785
  49.2896271  74.1039276  43.4161997  12.9251611  58.8385868  30.7584524
  12.5783682  58.0918455  30.2702522  12.9464126  58.5410976  31.6680002
   5.0048574  54.8604155  17.7178693   5.4666075  55.3661823  17.0491290
   4.4830450  55.5087519  18.1907344  25.8724436  38.5564089  15.8221400
  25.3862318  39.3531847  16.0342109  26.6831144  38.6292911  16.3258672
  60.8146906  61.9749308  56.4559460  61.4814043  61.4919233  55.9676552
  60.8116770  61.5690565  57.3228312  20.9406964   2.7071483  36.7204094
  21.7060010   2.1911485  36.9739580  20.2903764   2.0567090  36.4553809
  68.9233001  11.2364585  26.5025449  68.5388882  12.1108348  26.5651965
  69.2413361  11.0507686  27.3860621  75.9219456  66.0105991  44.7852850
  76.4719009  66.7771196  44.6233368  76.4589024  65.2678967  44.5090628
   1.9681009  60.9747314   8.0224711   2.0485720  60.0606728   7.7499723
   1.6612085  60.9285831   8.9279652  31.1107890   2.6315505  47.7575684
  31.4636676   1.8826969  48.2381201  31.7412440   2.7829082  47.0533991
  39.2806101  51.7476088   7.8605408  38.9340877  50.9922510   7.3855728
  38.5247421  52.1047121   8.3267731  40.9316826  61.3118219  41.0117245
  41.6571236  60.7025433  40.8747959  40.4308081  60.9297657  41.7324162
  57.0632315  35.7146907  11.1277366  57.8132391  35.2856755  11.5396476
  56.5768909  35.0015926  10.7139826  70.7402992  73.7581348  36.4554501
  70.1520395  74.0226460  35.7481933  71.4483976  73.2882786  36.0149217
  60.9442282  64.5016766  44.5705080  61.6069794  64.4947672  45.2611208
  61.4457464  64.5681334  43.7579203  21.6686217  26.2231548  39.7482705
  20.7175843  26.2309749  39.6401119  21.8703763  25.3306587  40.0293255
  66.0162163  60.9875345  34.8711133  66.3875389  60.1985168  35.2658319
  65.0892687  60.9605408  35.1083350  25.7869243  23.2683617   2.8836864
  26.2249946  23.7477118   3.5869259  25.7129383  22.3730331   3.2140488
   4.1725222   4.9737079  11.8719769   3.3351151   5.0364025  12.3313773
   4.6833293   4.3508537  12.3890519  62.4314594  71.9883013  40.7385921
  62.7787781  71.5358496  41.5072823  61.4813566  71.9069576  40.8217525
  30.5615091  63.2349062  36.3593316  29.8876905  62.9357719  36.9698405
  30.7007885  62.4911451  35.7731104  26.2169495  20.6482322   3.8189474
  25.9828432  20.3158576   4.6855196  26.2226433  19.8723991   3.2583445
  51.2031524  13.6350067  14.3642950  50.3063456  13.9573295  14.4541991
  51.4910285  13.9623744  13.5121286  77.4244261  56.1222172  18.3675385
  76.6094398  56.1984539  18.8637412  78.1019545  56.4259148  18.9716530
  79.4877274   1.8013484  24.7102094  78.9409669   1.6486795  25.4809093
  80.0015910   0.9990127  24.6183562  18.5386197  41.1728717  38.8803392
  17.9014175  40.5148507  38.6024624  19.3249290  40.9746076  38.3717757
  71.9877625  56.2775946  36.6705680  71.8840647  55.9297180  35.7848716
  71.1036539  56.2665749  37.0372581  49.5694542  61.0817337   3.4692249
  50.0527191  61.5231562   2.7707720  48.7511539  61.5730047   3.5417616
  19.8036322  55.6224060  30.3753734  18.9265760  55.8961916  30.1069760
  20.2457079  56.4367056  30.6156182  15.0538382  45.8757401  31.3810635
  15.1185354  46.8262243  31.2882090  15.0625357  45.5461502  30.4824376
  24.2547385   1.4543826  43.2961559  23.4232203   1.9284065  43.2857037
  24.1450326   0.7933624  43.9797115  65.5343492   2.9607971   7.0150971
  65.1738460   3.1597097   7.8792173  64.8429926   3.2134588   6.4031982
  77.7437909  14.3744476  25.3292131  77.3669942  15.2251346  25.5541253
  78.0091555  14.4644744  24.4139481  39.5092320  70.5936718  21.8894339
  39.8215675  70.9629011  22.7154756  40.2980709  70.5003405  21.3553429
  35.3966022  47.0714188   4.3700153  34.4531584  46.9181347   4.4214800
  35.7584691  46.2383795   4.0678158  49.1694792  16.0893257  12.4548244
  49.5413835  16.2985523  11.5980029  48.2340606  16.2689884  12.3602462
  74.7319126  28.5349727   3.7554097  73.8765717  28.2540011   3.4303299
  75.0274277  29.1867685   3.1197479  57.1264076  70.4487276  22.0804191
  56.8870449  69.6137953  22.4826956  57.4722195  70.2098274  21.2204361
  67.9694112  10.7532508  29.1313982  67.5797446  10.0457389  29.6450329
  67.2204669  11.2404735  28.7879896  74.7747612  74.5605135  15.8140564
  74.6449232  73.6199617  15.6926417  75.0449276  74.8781872  14.9524736
  74.1133165  66.4352465  56.0949945  73.7902212  65.5815887  56.3832855
  73.7926722  67.0485020  56.7563057  31.7456055  65.0898981   7.9133987
  31.9103026  65.7423162   8.5941720  31.6696262  65.5994606   7.1066737
  35.5631845  53.2235719  60.3754124  35.4179065  54.1176988  60.0661158
  34.9451177  52.6928808  59.8728227  10.4835050   3.6047943  16.8728268
  10.7423322   2.6929719  17.0063186   9.6853558   3.7056024  17.3915052
  60.4553747  55.2131605  39.8902488  60.9117842  55.3418398  39.0587664
  61.1101389  55.4194307  40.5573082  69.6551132  52.1764421  32.3994541
  68.8383770  51.7658663  32.6833534  69.8228312  52.8540611  33.0543852
  37.6398198  28.0543949  58.1767452  38.0229728  27.8807689  57.3169321
  38.0619924  28.8624669  58.4683364  51.0300589  50.7066107  18.4968686
  51.5279388  50.0626898  19.0005720  50.3268766  50.9798193  19.0860379
  25.8111064  16.3100292  55.4061615  26.0408942  17.2361995  55.4812455
  25.4527824  16.0818578  56.2639355  40.0039164  11.2333495  26.1405945
  39.3564765  11.1918647  25.4367924  40.6510226  11.8683727  25.8336306
  29.5699756   2.0596172  64.4588507  30.0355308   2.3200513  65.2536234
  30.1410119   2.3405363  63.7438419  28.3272585  69.1775227  42.1050930
  28.8857588  69.6126223  42.7492952  28.5349402  68.2476759  42.1971750
  77.3133786   9.3155200   6.6046309  77.6510365   9.1419036   7.4833107
  77.4518330   8.4966380   6.1287141  57.4010499   3.0626304   8.1737053
  56.9189270   3.7882097   8.5703450  57.7742322   2.5884397   8.9167488
  67.5027037  50.7784319  25.0685811  67.2856569  49.9985409  25.5793548
  66.7409420  51.3494635  25.1679277  67.0301533  73.3058929  31.8273497
  66.3597202  73.4402418  32.4972034  67.1130991  72.3547554  31.7588711
  66.6199000   3.5734374  16.2622249  66.2468345   3.9933593  17.0372844
  67.5407679   3.4358079  16.4842474   7.8486268   3.8018472  61.9915342
   7.6966254   3.0253274  61.4528799   7.5418059   3.5524566  62.8632545
  65.4948092  48.9113522  15.5952334  65.5310583  49.7756529  16.0049903
  65.2437878  49.0865898  14.6883094  62.5908804  51.6182661  14.7796416
  62.8447533  52.5341749  14.6660984  63.3688784  51.1977053  15.1458132
  47.2334337  70.2868605  50.9723711  46.4263773  70.7194853  51.2511635
  47.0914364  69.3620062  51.1741495  44.5530987  71.8722630   9.5696455
  43.6848974  71.5133762   9.7531158  44.4023609  72.5273752   8.8882238
  57.6594400  59.5507956  51.5985203  58.1794024  58.9324999  51.0851145
  58.2959890  60.1882505  51.9220638  74.2938900  58.8587570  18.9337385
  73.8597870  58.1140661  19.3499351  74.1444302  58.7302446  17.9970539
   8.3912246   6.8391044  30.8676982   7.6598660   6.4121444  30.4215384
   8.0281894   7.1202857  31.7075634  54.3722351   8.7447078   9.6969235
  55.2851231   9.0244491   9.6289897  54.1271766   8.5076625   8.8025045
  66.7630513   5.5126293  35.4160404  66.7144091   4.7813136  36.0317016
  67.6283057   5.8939369  35.5649590  76.3528681  67.1949053  11.4625645
  77.0291901  66.5266609  11.5732956  76.4844131  67.7930212  12.1982181
  69.7420199  40.4957397  52.1363354  69.0177567  39.9932868  52.5094509
  70.2574237  39.8500831  51.6528893  73.7708028  13.9481742  50.1600170
  73.2417615  13.4565933  50.7882643  74.5697768  14.1673763  50.6394196
  60.2602577  57.4364567   3.5632229  59.3836117  57.4476624   3.1790406
  60.8456707  57.2914791   2.8199166  20.7830636  15.4384620  31.7669868
  19.9341504  15.8593471  31.6312337  20.7611815  15.1432140  32.6772547
  43.1883144  70.3253698  25.3946567  43.8752794  70.0342464  24.7950244
  43.3121634  71.2723303  25.4591346  10.9864458  71.3777494  10.1060128
  11.1504206  70.4404926  10.0016260  11.4680037  71.7866945   9.3869197
  56.2546698   9.2009265  25.8564043  56.4623229   8.7526901  25.0365305
  55.2990882   9.2561729  25.8638024  76.8596394   2.2944124  17.7923489
  77.0689519   1.3755710  17.6245797  77.4495108   2.5487239  18.5020065
  11.3136308   8.2399089   9.8905873  10.6098573   7.9273612  10.4591322
  11.0476939   9.1261108   9.6453345  65.9169960  52.3276758  18.7473929
  66.6074085  52.7267456  19.2768347  66.0378170  51.3856792  18.8668537
  37.9360652  57.7380371  15.4697347  38.5691547  58.0900621  14.8440313
  38.4022760  57.0255089  15.9069836  52.3477364  57.8260279   4.2703304
  52.2434425  57.2955561   5.0602388  51.7281199  57.4494839   3.6454114
  12.4759357  18.7232639  57.1291381  11.7491214  18.1664325  57.4082637
  12.8250973  19.0870763  57.9427451   2.2079388   5.9838207  15.5341017
   1.3533370   5.5560787  15.4799914   2.2390668   6.5547283  14.7664237
  22.3162460  57.9958439  26.4943361  22.7804375  57.2996044  26.9591069
  21.9474387  57.5646353  25.7234454  11.5886148  50.4925442  36.5953207
  12.3395475  50.7528687  37.1287632  11.7452559  50.9028387  35.7448173
   1.1575095  25.6100089  23.4650469   0.7054059  26.1157615  22.7897334
   1.2661712  24.7402484  23.0804133  63.9400227  12.1812541  21.6081548
  64.5951946  12.6450927  22.1295285  63.2922180  12.8503902  21.3871717
  62.2865303  10.4230888  31.7679119  62.0744307  10.2052600  30.8602786
  63.0376013   9.8681838  31.9781637  76.4927991  26.5503700  27.5863838
  76.8825515  26.8432815  26.7626548  75.7159837  27.0995052  27.6924109
  53.1454961  19.8380519  51.6777712  53.1636254  20.2587701  50.8181792
  52.5101869  20.3477718  52.1805590  54.4617128  68.7514400  49.9821043
  54.5806885  69.2323303  49.1630697  53.5974979  68.3482265  49.8997402
  72.5884219  36.2187959  64.3756789  72.5852354  36.1230613  63.4232838
  71.7682453  36.6708280  64.5737038  79.5591974  38.5213327  48.8190842
  79.7284603  37.7381110  49.3426704  79.6084642  38.2185531  47.9123735
  19.0857474  32.6281650   0.6082382  18.3618514  33.0165584   1.0995147
  19.8704783  33.0327422   0.9780282  77.0934057  73.2430220   8.2794631
  77.3111296  72.8236866   7.4470043  76.1511564  73.4033823   8.2276505
   9.0093931  48.3362293  20.5145788   8.5503420  48.4366179  21.3484979
   8.6487040  47.5336647  20.1377177  13.6134085  54.4670963   1.5157023
  14.0168604  53.7119102   1.9436558  12.7168879  54.4816065   1.8507877
  34.7058646  19.0155704  24.4905138  33.9146296  19.1873271  25.0010777
  35.4244868  19.1646583  25.1049972  61.2438965  64.3900013  22.6040602
  60.4539871  64.5271158  22.0811105  61.8565273  63.9631033  22.0051599
  12.8515753  63.2156420  16.4224708  13.3507380  62.5057220  16.0186458
  13.4148153  63.9845896  16.3346171  64.4645452  72.9538965  20.7340837
  63.7662363  73.5165262  21.0688138  65.2524900  73.4951591  20.7831979
  12.2533449  48.7416220  46.7346001  11.9038424  49.6022987  46.9655037
  12.2727522  48.7398767  45.7775974  71.1957486  21.4061839  19.7409570
  70.9782489  20.7678802  20.4202962  70.3802855  21.5249259  19.2539752
  45.3698111  61.7244864  38.5244036  45.4218102  62.6153517  38.8706493
  44.6594191  61.7576218  37.8837156  45.4869986  66.8891907  37.4243498
  45.8492994  67.5077724  36.7900562  44.6163607  67.2332239  37.6240039
  33.0230539  54.4261171  63.3066788  33.7747924  54.5285512  63.8903111
  33.3762376  53.9792825  62.5373706  71.7569256  63.0492163  22.7876043
  71.8988800  63.6957026  23.4790754  71.2519836  62.3541021  23.2096052
  46.8740749  43.6825657   3.3038011  47.4904919  42.9505157   3.2846934
  46.0108900  43.2688665   3.3051941  58.6921509  25.3516109  45.5756474
  58.7132438  25.0324542  44.6734715  57.8670819  25.0183399  45.9283781
  73.8827212  11.3045127  15.3039014  72.9864581  10.9741790  15.2421248
  73.8758786  11.8731124  16.0738921  71.7853625  26.0531242  46.9791174
  72.5420363  26.0463149  46.3929224  71.9887002  26.7298515  47.6248264
   5.7637056  63.0332375  43.5817385   4.8421415  62.8721666  43.7842226
   5.7690558  63.2556009  42.6507378  13.5006651  29.5308733  40.4619408
  13.4052214  30.3207970  40.9940529  12.8099379  28.9465857  40.7745695
  78.1561613  72.4784184  22.7039289  78.0983686  72.1644974  21.8015194
  79.0651512  72.3161793  22.9562068  48.3207082  54.0359884  16.1999601
  48.3283233  53.1927496  15.7470602  49.0655374  53.9925295  16.7996115
  14.4696650  72.1453810  39.4242859  13.6931356  72.6733446  39.6099997
  14.1774496  71.5118980  38.7688923  56.5680559   7.5272281  50.4896832
  56.5737970   6.6457469  50.1165962  56.2496741   8.0854804  49.7803068
  54.6097215  13.9779098  31.3440585  55.4863413  13.7788589  31.6729140
  54.6973212  14.8385246  30.9342957  80.0286102  63.7911987   2.4784005
  79.6777725  62.9175520   2.3055324  79.4105053  64.1792822   3.0977374
  78.4966357  40.7619573  56.1220610  79.0371855  40.5427028  55.3631365
  79.0631779  41.3040496  56.6710585  54.9039507  63.6905050  43.1193781
  54.6108961  63.6757994  42.2082615  54.1754675  64.0849066  43.5989475
  63.2884319  28.7262065   6.7260593  63.2627781  28.5896022   5.7790047
  63.1063350  27.8630454   7.0975733  12.6757256  11.0943611  37.5670886
  13.1629102  10.4292495  38.0534196  12.5984256  11.8282325  38.1767535
   2.3821816  55.3463966  64.8046254   2.9026827  54.5515675  64.6881906
   1.4787659  55.0350350  64.8605272   2.0368735   5.8742530  51.6886330
   1.7021148   6.7519863  51.8723726   1.2607257   5.3666408  51.4516687
  39.2944956  62.7669907  21.7305255  39.0128899  63.3974791  21.0676432
  38.6272931  62.0810318  21.7073798  63.1189394  61.9226694  22.8689122
  63.9478159  61.5081787  23.1084847  63.0211926  62.6413536  23.4935498
  73.7652540  54.7815228  42.5525045  74.4041252  55.4932165  42.5920200
  73.4227800  54.8164082  41.6593504  69.8419762  40.8057594   2.4453889
  69.4093943  41.6401768   2.2641288  69.4774008  40.5242777   3.2844850
  21.4755504   9.1177280  37.0739961  21.9172208   9.9316795  37.3161721
  21.7988412   8.9223201  36.1944914  23.9140543  68.6387348  64.6392012
  24.8498949  68.7628746  64.4809866  23.4869799  69.2606497  64.0500879
   7.3847231  51.7937136  29.0016103   8.1650099  51.9100189  29.5436931
   6.7501101  51.3737965  29.5822668  49.0100686  26.0356046  57.9478240
  49.3750636  25.2384378  57.5637251  49.1291825  26.7032243  57.2723025
  68.5587215  59.9647427  30.5077410  68.3773708  59.2292595  31.0928988
  69.5025492  59.9216127  30.3542495  19.1939799   8.1003578  19.8654366
  19.7078387   7.2946651  19.9205923  19.5726554   8.6721332  20.5332017
  36.7542204  61.6561365  28.3741689  37.1764216  62.1705818  27.6861811
  36.2663969  62.2990942  28.8888168   8.5480563  10.9015472  29.2796516
   7.5991837  11.0007102  29.2019486   8.7277476  10.0309379  28.9247179
  70.6975126  65.6467628  28.7258601  70.3490067  65.2456141  29.5220113
  71.5217733  66.0481834  29.0009689  66.0615301  62.7564859  25.5542994
  66.0508966  62.6294136  26.5029669  65.2268982  63.1831455  25.3604293
  41.4376799   2.8020007  56.2185478  40.7520358   3.4116895  55.9457731
  42.1731822   2.9926450  55.6363869   7.5258796   6.7095287  20.9646630
   6.7490737   7.0468433  20.5185533   7.1915500   6.3419254  21.7827868
  63.9855735  26.8020542  34.0607405  64.1482131  26.5353114  34.9655223
  64.6800868  26.3772876  33.5572839  72.9792833  66.4504051  21.5643954
  72.6886892  67.3542261  21.4423633  72.2359562  66.0139513  21.9805789
  29.2458463  65.9405661  43.0752325  29.9934030  65.3912020  42.8394508
  28.6471701  65.8619976  42.3325062  24.5654425  55.1990223   2.2586811
  24.6571669  56.0411739   2.7043277  24.5296511  54.5559692   2.9668003
   9.6120549  46.9222738  42.9321581   9.7420789  46.5669538  42.0529157
  10.0393106  46.2910749  43.5111767  56.7744207  57.2213316  31.2305641
  57.2762251  56.4486313  30.9710240  56.6120338  57.6879454  30.4107261
  18.2518721  71.0538960  38.1904054  17.8557801  71.2049484  39.0486145
  17.5073099  70.9539127  37.5972247  31.2948959  40.9522249  64.7078257
  30.6789605  40.3619911  64.2736859  32.1177451  40.4638196  64.7325004
  72.0113707   8.2496756  46.5046883  71.3113451   8.3733648  45.8636808
  71.9474459   9.0125018  47.0793581  59.6032143  72.1768236  42.1549368
  59.0695620  72.7113485  42.7429247  59.0442753  72.0290852  41.3920498
  73.9002784  28.8872058  14.8527205  73.1561692  28.3521278  14.5766413
  73.8899834  28.8368327  15.8085382  57.4583055  34.8137952  57.2542155
  56.8214958  35.5152370  57.1175289  58.0864962  34.9179984  56.5395480
  60.5496597  72.6074553   8.3453751  59.7713232  72.1412706   8.0402601
  60.8013964  72.1528292   9.1492242  33.7799105  57.0989418  19.3684793
  33.5236010  57.7464533  20.0251865  34.2055735  57.6108646  18.6807489
  69.4115146  26.9407089  21.9587851  69.4836409  26.7365844  21.0263872
  68.6289151  27.4879463  22.0243287  39.3597762  16.3931949  54.8771572
  39.3730704  16.5683658  55.8180952  40.2761905  16.4581497  54.6084690
  30.5652460  64.3693781  32.8040934  29.9085363  64.9895239  33.1209302
  30.0835451  63.7924194  32.2113705  58.9103985  47.4276781  37.4533987
  59.2782068  48.2589006  37.7534318  58.5210085  47.6311302  36.6029787
  12.6373947  37.4329305  25.9382296  11.7655408  37.1965837  26.2548399
  13.0734968  37.8146982  26.7000031  78.7600573  74.0416523  10.2972555
  78.4676059  73.6486030   9.4749320  78.5225375  73.4003897  10.9670305
  28.4048200  48.8425446   1.1116149  28.0557513  49.7289705   1.2045038
  27.6430845  48.3072424   0.8892509  19.2580104  27.8902769  34.1175818
  19.7096372  27.9927182  34.9552989  18.8058007  28.7235689  33.9858031
  70.1903291  11.4160777  58.5192591  70.3766306  11.1850501  59.4292861
  69.2471393  11.5782930  58.5016036   5.2471149  16.3387477   8.4991109
   4.8585281  16.8048906   9.2393428   5.6359041  15.5548406   8.8871384
  33.0026412  47.0873880  24.6502662  33.2145572  47.0422554  25.5826211
  32.3208165  46.4269018  24.5273733  68.2874306  75.0128191   3.1072882
  68.4480246  74.0802786   3.2515427  68.8885828  75.2531254   2.4022347
   1.5385787  71.0412394  30.3328872   2.2621934  70.5897634  29.8983979
   0.8966796  71.1886771  29.6382952  14.0000185  16.3940084   5.1047689
  13.6413511  16.2353754   5.9779400  14.0974077  15.5213606   4.7236753
  13.6101024  62.6239710   7.5147617  14.3081109  63.1950014   7.8356099
  13.3791773  62.0811896   8.2686138  77.9730876  39.2940705   6.0584444
  77.4260934  38.5758822   5.7402676  77.4065240  40.0643270   6.0143721
  28.9581370   3.4386864  17.5371921  28.5543466   2.7456748  17.0147729
  29.4495296   2.9730523  18.2139111   4.2068569  70.3891896  29.3859625
   4.3981425  69.8810129  30.1742506   4.1113846  69.7332327  28.6954284
  69.1406966  32.4764073  56.0389882  68.9478350  32.8512547  55.1796132
  68.2976198  32.1485240  56.3519501  57.5322819   5.1962585  55.4024791
  58.2027793   5.2587813  54.7222179  57.2345496   4.2874187  55.3625077
  69.3437000  48.0003040  30.7944393  69.0451916  48.4093969  29.9821806
  68.5437914  47.6729076  31.2057686  23.7380552   8.7470883  25.2551603
  23.2546592   9.4441509  24.8116922  24.6391773   9.0675950  25.2936625
   0.1157232  34.2334008  53.2784319   0.2416409  33.4904122  52.6882267
   0.0098543  33.8370347  54.1432571  78.3301688  55.6920368  62.0108798
  78.3516932  54.8079068  62.3770553  79.1826773  55.7971531  61.5884855
  20.4118776  16.7486918  25.5117917  20.2231193  17.6621377  25.7267785
  20.2997684  16.2799037  26.3387752   5.8695731  65.4094357  60.1655340
   5.2322373  64.9257249  59.6401185   6.6329703  64.8334116  60.2061727
  12.8987591  61.9875245  39.6112227  13.7452237  62.2194438  39.9932456
  12.2826450  62.6090806  39.9989128  76.1466486  16.4212275  26.6734171
  75.8754015  17.1758604  26.1507463  76.5491838  16.8025303  27.4536753
   1.9820580  49.2480690  55.8763790   1.8265662  50.1246375  56.2280625
   1.1075243  48.8730318  55.7725924  59.4555426  34.5437607  60.5088863
  60.1593614  34.7939384  61.1074525  58.8585115  34.0226007  61.0457083
  13.5096943  37.3242807  15.7624495  12.8948414  38.0567026  15.7206631
  14.1912115  37.6178765  16.3670695  45.6752968   6.4664745  13.8911390
  44.9901915   6.9786185  13.4615159  46.0074663   5.8875901  13.2050002
  29.5666623   6.4812404  20.6607175  29.9871039   6.8204695  19.8705375
  29.4781756   7.2445524  21.2314677  52.1951914  65.3993267  54.1784042
  51.4864373  65.4733795  54.8174792  51.8792248  65.8803076  53.4135157
  50.2489805  23.5212040  16.4288867  49.9993229  22.8105140  15.8382750
  49.4295454  23.7825823  16.8489277  30.1924628  52.7856607  64.3710286
  30.4204372  52.8966850  63.4480265  29.4304160  53.3505529  64.4991431
  59.7298885  30.7041443  53.2995254  59.5219946  31.2045551  54.0885764
  60.1889348  29.9284977  53.6218303  65.7744487  72.8363441  42.3495436
  66.5316887  72.9388155  41.7730713  65.1292105  73.4564589  42.0098972
  57.3794651   3.6647677  22.8446412  57.1847057   3.2441211  23.6821127
  58.2947302   3.9348403  22.9193878  43.4581566  28.3533192  11.5601349
  43.4097290  27.7702069  10.8025956  42.6366043  28.2059693  12.0287192
  38.2382727  39.9957697  64.3226791  38.6597145  40.8462209  64.4465796
  38.8522888  39.3667260  64.7015204  29.0651941  23.7270951  15.3499413
  29.8903608  24.1826892  15.5165792  29.0488553  23.0182695  15.9930062
  68.2622957   5.7481861  21.2050581  69.0806961   6.1297697  21.5226173
  67.6037073   6.0324174  21.8388629  64.1721721  62.9274182   2.7428383
  63.4876402  63.5912793   2.6595530  63.7069984  62.0937245   2.6735488
  36.3142514  59.8076916  15.8926725  36.9869709  59.1271114  15.8704853
  35.5537319  59.3799829  16.2862551  55.9742372  69.7448902   3.4400964
  56.4026828  68.8923805   3.3633348  55.5264135  69.7126340   4.2854631
  10.4210186   8.6875886  21.3566852  11.3135576   8.5620052  21.0344529
  10.1209927   7.8066045  21.5804791  38.4460902  17.9818463  12.6836574
  38.3993363  18.9039731  12.4312127  38.6823630  17.9990995  13.6110783
  65.4219266  51.6523330  16.0238564  65.6623467  52.1500294  16.8053472
  65.8962603  52.0810716  15.3115213  22.7567959  25.6855011   6.0106301
  23.3565831  26.4042544   5.8109242  22.6437473  25.2291942   5.1768225
  21.0958695  38.9583349  33.7608743  20.3686881  38.7934041  33.1606770
  21.8550563  39.0776920  33.1902432  35.9820509  24.3551993  11.2421250
  35.7987785  23.6699033  10.5994654  35.9538722  23.9053702  12.0865726
  41.4302111  13.7178349  21.0150075  41.0869360  13.5944355  21.8999767
  42.2040367  14.2687654  21.1329317  50.2426291   3.7744626  16.4199817
  49.6433735   4.1363949  15.7671964  49.6816349   3.5525402  17.1631312
  17.3402993  72.2977309   5.5457252  17.3060147  72.1263574   6.4868349
  16.4227454  72.3398956   5.2763712  51.9203520  19.5856118  14.1492462
  52.0857191  19.1211879  14.9697316  52.5507069  20.3059459  14.1505110
  57.9455090  31.4093637   3.4327918  58.2778597  31.5274501   4.3226406
  57.7529478  32.2965336   3.1293404  75.1660140  34.9784844  61.8659687
  74.3282302  35.4412930  61.8533754  75.2824481  34.7187464  62.7798653
  55.7001543   4.9205095   9.3547976  55.9325218   5.8455485   9.2739260
  55.1252747   4.8839113  10.1192629  37.8749530  74.4019498  26.5425944
  37.2848003  74.6064793  25.8172560  38.6835687  74.8690925  26.3324785
  67.5187655  71.7777567  27.3515677  68.0964668  72.2230246  26.7317057
  67.4147995  72.3999651  28.0714846  24.1774082  68.3298206   7.0546061
  23.8358474  68.8495016   6.3269389  24.5721078  67.5640154   6.6374844
   4.9211256  -0.0108932  39.4707137   5.5788867   0.2793027  40.1026708
   4.4828264   0.7939960  39.1945272  21.0729615  52.7632039   2.2656663
  21.2466876  53.6255901   1.8883890  20.1329868  52.6322072   2.1410714
  27.2358012  13.9083636  15.1608098  26.8617535  13.9405847  16.0413110
  27.6433396  14.7663081  15.0421667   7.8745073  17.9578459   0.4886984
   8.6442149  17.4236047   0.2928181   8.2074225  18.8546956   0.5212357
   8.3987181  74.0493781   7.2552842   8.6819069  73.3843008   7.8827465
   7.5919764  74.4035413   7.6294029  39.3112040  31.9444227   9.1800320
  39.8443866  32.4725008   9.7742385  39.9436188  31.4020276   8.7087697
  55.1175451  24.2304111  14.9072671  55.6253338  24.8229980  14.3529904
  55.7224655  23.9774489  15.6046295  15.6910563   9.6051538  34.5546126
  15.0478387   9.2504358  33.9408708  15.3803492  10.4909539  34.7418308
  29.4269292  68.4668492  14.0537274  29.7288482  68.9548938  14.8198140
  28.6132161  68.0516904  14.3396378  37.1483278  52.9650021   9.4048172
  37.2359133  53.8546467   9.7470093  36.5522981  53.0521202   8.6609149
  31.8330924  72.6410096  53.0682468  31.4750640  71.9193404  53.5852051
  31.6688935  72.3891737  52.1594858  60.7539487  17.9589540  63.4326817
  61.1291790  18.7088245  62.9710237  59.9377775  17.7752656  62.9675419
  56.9495106  11.0549486  17.8001165  57.1055412  10.7576573  16.9037330
  56.0146332  10.9065974  17.9423463  61.2292351  44.6700590  62.7547741
  60.9115066  43.8494914  63.1315327  60.7396390  44.7638409  61.9376230
  21.1260097  48.4455984  16.1999238  20.6723325  48.5017173  17.0409119
  21.3120954  47.5131266  16.0899258  23.6093426  37.4401546  40.4843235
  23.8294029  36.5450788  40.7424784  22.7604294  37.3620343  40.0490379
  17.6351373  70.9482031   8.1559527  17.0291536  70.9071230   8.8957667
  17.2458379  70.3752219   7.4953693  30.4237795  13.3881176  36.9623017
  29.7084236  13.6720347  36.3931870  31.1803889  13.8944852  36.6667247
  21.1348979  72.6770871  45.7591200  20.2186505  72.8464209  45.5399179
  21.4418142  72.0897662  45.0684023   0.4285435  49.6027899  16.8408000
   0.9775122  49.4695091  16.0680771   1.0501859  49.7064161  17.5612545
  69.9457360  70.0831837  52.2852415  69.4343710  69.7541851  53.0244952
  69.7517443  71.0201210  52.2579056  46.5869474  43.5333538  13.1381524
  46.2483644  44.3949413  13.3815861  46.7312193  43.0880547  13.9730918
  47.7888918   8.6292297  18.9993191  47.7259064   7.8270042  19.5176816
  46.8885422   8.9492577  18.9429224  66.3917406  61.6746097  48.9723778
  67.3177000  61.4431172  48.8999844  66.3278790  62.1505909  49.8003817
  64.2001152  11.2977904  54.9039441  64.8692560  11.2429184  54.2216903
  64.0145850  12.2335261  54.9827534  19.1763711  45.2329922   5.7125801
  19.7385001  44.4749689   5.5524528  18.8638234  45.4870892   4.8442587
   7.6163475  53.1370847  31.9424510   8.4705536  52.7075522  31.9878983
   7.0686142  52.6463955  32.5551844  60.0778723   2.9857129  34.3616748
  59.5186567   3.5926089  34.8466349  60.9454584   3.3894700  34.3840909
  47.7467203  69.6426386  60.0202852  47.7076745  69.1487068  60.8392724
  47.0557356  70.2997607  60.1037198   7.1713543  14.2742240  23.0772567
   7.8623319  13.9503419  23.6550832   7.1884865  15.2243018  23.1925416
  55.3621169  61.1002832  33.0960631  54.6107509  61.5446751  33.4887433
  56.0103299  61.7929690  32.9686332  24.8599648  29.5147824  30.0531626
  24.6786165  28.5778332  29.9792051  24.7768044  29.7017574  30.9882331
  77.7933558  60.2584045  18.5772479  78.3924993  59.7081940  18.0727398
  77.1798332  60.6023245  17.9279876  76.3845595  63.5699945   0.9468732
  75.8837088  63.2417636   1.6936290  76.5474470  64.4902961   1.1536246
  41.2887383   7.2856015  28.0350947  41.6291189   8.1784678  27.9788542
  41.8817949   6.7684180  27.4900794  12.0463622  25.6278062  20.5144286
  12.0860875  26.3347411  21.1585546  12.9110801  25.2191997  20.5536222
  26.3870668  27.6737595  26.0313702  26.1228061  27.3208356  25.1817584
  26.4324570  28.6199689  25.8940434  67.6622646  56.1248999  30.9870601
  68.4211986  56.1312847  30.4037881  67.7883880  56.8868189  31.5525723
   7.2050206  14.4574357  56.0630607   8.0197398  14.5732595  55.5741364
   6.8278567  15.3358556  56.1115813  10.0994889  68.0550079  34.1637683
   9.9480955  67.5884836  34.9857569   9.4545858  67.6891117  33.5584140
  41.8971467  33.7561024  58.8534689  42.2275091  34.6068427  58.5647940
  42.6609016  33.1798923  58.8235777  23.8727204  43.9019244  17.6035500
  24.7792689  44.2032497  17.6635695  23.9269845  42.9538624  17.7238202
  41.8621159  35.1837373  19.3799460  41.6584587  35.9694052  19.8873699
  41.0273552  34.7205377  19.3102896  74.4732531  58.0993657   0.7134874
  75.0145300  58.0621009  -0.0750947  73.5759504  58.1586044   0.3855103
  72.6634312  38.2584953   3.3674106  73.6067390  38.1576538   3.2400173
  72.5666332  39.1235900   3.7654981   9.0051240  38.1522059  24.3916869
   9.6266162  38.2937336  23.6775804   9.5222098  38.2769632  25.1874804
  61.5607500  74.2749661  48.2362574  62.2189737  73.9549679  48.8531631
  61.5975118  75.2278179  48.3196610  61.4360471  68.3285116  10.9903336
  61.3810154  68.1848626  11.9350910  61.4526846  67.4482154  10.6147885
  30.8012176  41.5695667   8.7304068  30.0879121  41.4963818   9.3644989
  30.4761124  42.1860409   8.0742830  15.0598919  18.9966726  35.1067185
  14.5239460  19.7017241  34.7435427  15.1672292  18.3800507  34.3825030
  57.9754161  73.5517365  43.8158464  57.2072132  74.0814002  43.6024141
  58.2976486  73.9180884  44.6393633  76.7527230  70.5356010   8.9345950
  76.2523564  70.9301450   9.6488786  77.3421319  71.2309261   8.6424464
  24.3754165  58.1172304  21.3409138  25.1367204  57.6834552  21.7262506
  23.6231677  57.6764588  21.7359805  27.1450663  19.3587041  44.0618706
  27.6230073  19.6607184  44.8342657  27.3858237  19.9788284  43.3736038
   4.6726267  61.3847225  15.7767642   4.8170225  61.5942257  14.8540020
   4.2508619  60.5255442  15.7641494  13.0630422  23.4096861  35.9798074
  12.4213493  23.1338191  36.6342998  13.6099112  24.0496588  36.4354444
  51.4812613  66.4091110  10.3357625  51.8907833  65.9804821  11.0872960
  52.0491505  66.1908579   9.5967770  48.9505243  16.8232632  20.8776093
  48.7956429  16.4425755  21.7420864  49.1590548  17.7407110  21.0537839
  63.2768202  48.6852521  59.8162561  62.5450707  48.3860034  59.2766040
  62.8647924  49.0311677  60.6079671  32.5940466  13.3677900  33.3286619
  32.5965858  14.2968619  33.5589862  31.6774487  13.1715965  33.1347847
  49.3980885  56.6601849  14.7947073  49.9446201  57.4452496  14.8294401
  50.0214624  55.9338427  14.8026264  61.2063837  65.6467003  62.3364112
  61.4694953  65.3808517  61.4553153  61.3461304  64.8668903  62.8736274
   7.7433372  43.0288935  10.2725899   8.4034950  43.2807732   9.6268499
   7.3622561  42.2231007   9.9237239   8.9447153  22.5114894  43.4597540
   8.4704351  21.7106795  43.6833429   8.4820086  23.2036686  43.9320040
  54.5642138  12.7064157  20.4184484  54.4698000  13.1691980  21.2510037
  54.6259117  13.4017813  19.7635508  69.8015786  58.8452214  37.1934753
  69.6922064  58.6381406  38.1215840  70.0603152  59.7667235  37.1825534
   6.0195574  27.7608299  10.7845354   6.2155088  28.1404328  11.6411185
   6.2668451  28.4415340  10.1586592  70.4041274  65.8653598   7.0900005
  71.0714443  65.4615401   6.5351588  69.9030181  66.4228581   6.4947551
  11.4761011   7.2954418  45.9993928  11.4248054   6.4213611  46.3861543
  11.4572446   7.1409322  45.0549346  41.7381430   3.8477811  43.7227726
  42.4598074   4.3838841  43.3941078  41.4299202   3.3649117  42.9559183
  29.3335557  22.1497822  17.7190447  28.8550687  22.5444746  18.4480846
  30.0348592  21.6491437  18.1358981  27.8515458  27.9029894  32.7846432
  28.0526185  27.8258824  31.8519831  28.3627009  28.6571217  33.0783081
  24.3356037  40.8170938  17.2448778  23.5494685  40.8855247  16.7030823
  24.0239716  40.4554176  18.0745208  18.7351815  49.2023151  32.2744536
  18.4818427  49.6544640  31.4697099  18.5099618  48.2857125  32.1152401
  48.1416845  15.0595891  42.5958729  48.6886835  14.2792034  42.6854324
  48.6015987  15.6022310  41.9553614  70.8531189  13.2978213  10.9153581
  71.7924452  13.2473278  10.7382822  70.5157471  12.4375284  10.6657398
  23.1773297  64.4035344  21.1461425  22.7255742  65.0686174  21.6655779
  23.9520471  64.8509209  20.8057213  60.8540418  66.7113917  16.5201807
  61.2597420  66.5083753  15.6773150  61.1027767  65.9817712  17.0876467
  23.2076120  30.5395722  12.8598821  22.4624419  30.8562946  13.3704090
  23.0719185  30.9053850  11.9858110  49.3954468  23.4216976   2.9808888
  49.6815443  24.1495538   3.5327998  48.4879971  23.2652521   3.2422122
  10.7114618  68.4748422  30.5080032  11.2372987  68.2415621  29.7429466
  11.1970513  68.1161194  31.2508035  13.8195643   7.2920436  61.8342238
  13.3498606   7.6808590  62.5720799  13.1332526   6.9057745  61.2901628
  17.4171846  72.2997497   2.7459019  17.5573032  72.3338776   3.6921754
  17.2517984  71.3751634   2.5614601  75.0675535   6.0477155  29.5001292
  75.8387327   5.6207299  29.1270399  75.3677320   6.9275618  29.7281504
  26.3385122  69.4460474  19.0653944  25.6769626  70.1130860  19.2488098
  26.6392533  69.6444582  18.1785905   0.0291333  45.7257492  60.3088307
   0.6789383  45.0289005  60.2172500   0.0198016  45.9229553  61.2454492
  24.4347541  70.0128077  26.5145898  23.8166682  70.1428710  27.2338152
  25.2850930  70.2519267  26.8833494  12.9096167  71.3271760  34.0728331
  12.2002237  70.9279074  34.5764017  12.4728958  71.9642471  33.5074592
   2.2671923  50.5785591  41.5383702   1.8203434  51.3567049  41.8716103
   3.1777939  50.6898290  41.8116075  58.0599737  17.5828731   4.1551590
  57.9052734  18.1933165   3.4342849  58.7005043  18.0263579   4.7112828
  38.4704232  15.4961586  32.7163529  38.6231732  16.2877250  32.2002912
  37.5190949  15.4531884  32.8131080  21.3820696  18.2116604  29.9226975
  21.4176369  18.8790929  29.2374969  22.2882128  18.1232440  30.2182007
  76.9412566  30.6786609  34.8407745  77.2711578  29.8717690  34.4453979
  76.4224577  30.3839278  35.5892467  71.4896222  59.3695574  24.1407776
  72.2161277  59.7689598  23.6623430  71.7719288  59.3775981  25.0553656
  21.6284227  39.6471500  12.4904943  21.8161011  38.9884782  11.8217933
  20.6786656  39.7608185  12.4548161   0.3042635  22.8999025  44.2664414
  -0.2751938  23.6026782  44.5606619   0.0960478  22.7904469  43.3385950
  13.7609673   0.7740963  -0.0135293  14.2579865   1.2218963  -0.6981307
  14.2795634   0.9010995   0.7809262  34.2200899   8.8214743   6.9052303
  34.9206400   8.1707907   6.9507569  33.5341573   8.4752512   7.4760681
  16.4965391  21.1957240  16.1397552  15.9111130  21.1046004  15.3879535
  15.9121609  21.2129188  16.8976724  13.8263690  15.4058421  16.8038285
  14.1553438  15.7716107  17.6249385  14.4967389  15.6272125  16.1574292
  38.4487915  40.4834080  15.0022614  38.9566517  41.2773085  14.8348308
  37.5608826  40.7983398  15.1715779  67.4869851  27.7694607   5.8637416
  67.1437791  28.6093807   5.5588222  68.3302573  27.9855752   6.2617600
  14.6186957  61.9654411  62.2216204  14.5462975  61.2040800  62.7972226
  14.0236458  61.7749161  61.4964676   5.7089996   5.9291053  34.2935371
   5.0494587   6.2000930  33.6549425   6.1470640   6.7421454  34.5451260
  46.9640589  21.4995718  17.9800165  46.2460136  21.9295478  18.4445202
  47.4660778  21.0619736  18.6675608   4.7880784   9.2963034  41.4293385
   4.5156312   8.8545179  40.6250811   4.1188028   9.9652362  41.5736675
  21.1428261  11.4177704  18.3722866  21.4657426  11.7509472  19.2095137
  20.2085495  11.6259599  18.3759522  23.7585711  61.7289019  21.5774345
  23.0532551  61.2935877  22.0562458  23.3714509  62.5505733  21.2754035
  79.3892479  64.8341269  38.5154110  79.0749312  65.7291097  38.3871823
  78.6766768  64.3941206  38.9789468  21.5551345  61.5355711   1.5401068
  21.9852750  62.3238509   1.8715094  21.8738858  61.4484828   0.6417498
   7.8609173  14.8189069  62.4990037   6.9281141  14.6318675  62.3935276
   8.2989757  14.1714670  61.9465911  75.8131504  65.3870625  60.0122332
  76.3226748  65.5067557  59.2107999  75.4124499  64.5232767  59.9145418
  50.2149439  31.2472320  16.8032682  49.9966574  31.6239810  17.6557016
  49.8783970  30.3520656  16.8437719   4.7564539  33.0305147  35.4606825
   3.8627467  32.7087370  35.3424769   4.7884211  33.8409525  34.9523502
  35.5126476  40.8089113  15.9854329  36.1289549  40.2775621  16.4894855
  34.7451591  40.2472830  15.8769667  10.3870547  52.3024511  30.0323653
  10.3675437  51.6915035  30.7689714  10.9819543  51.8976450  29.4011307
  51.5524960   0.9527237  19.8177946  51.8887568   1.8377027  19.6764779
  52.2467184   0.3783051  19.4947910  32.7019119  17.9881084  11.9952381
  32.9136086  18.3065259  11.1177266  32.2473001  18.7199235  12.4123776
  16.7201361  71.9884748  64.1396400  16.9747815  71.1923856  64.6061486
  16.5232024  72.6192683  64.8321348  15.0156951   3.4012732  33.3859110
  14.3238807   3.0397424  33.9399147  15.8059323   2.9313487  33.6522341
  65.4651737  37.9246759  27.4177599  66.0425091  37.6286936  26.7139745
  64.7536993  37.2844362  27.4291325  23.4460926  46.9769382  10.6866467
  22.6783299  46.5878773  10.2678347  23.0847740  47.5735569  11.3421810
  55.8812475  12.1258378  46.3980150  56.6249371  11.7673278  46.8823957
  55.4232168  12.6749432  47.0343494  25.3223634   5.7392579   6.9668883
  24.6773863   5.0415182   7.0826209  25.7181311   5.8454788   7.8319412
  28.4610319  30.2543759  13.6046183  27.6417661  30.5873847  13.2383668
  28.1926227  29.7508144  14.3731332  29.5084357  56.1443663  11.5264010
  29.3299937  55.6888437  10.7036698  29.9916053  55.5075026  12.0528817
  45.9041183  56.4142959  28.6504650  45.2579848  56.9317942  29.1310263
  46.6218774  57.0245652  28.4812784   0.7028803  27.6322079   7.4514484
   1.0187658  28.0590248   8.2478631   0.0767168  28.2531404   7.0791638
  51.1585093  29.9538398  13.5965252  50.2994394  29.6345544  13.8727295
  50.9944963  30.8441162  13.2854939  28.2637334  36.1948323  14.0099144
  27.8999114  35.3872681  14.3728268  27.5172544  36.7917609  13.9581442
  71.1862898  26.0364962  54.9403906  71.0049582  25.5126691  55.7207489
  71.6412592  26.8106318  55.2719736  10.0811228  16.6172254   6.1585283
  10.7388624  15.9242857   6.2171412   9.9759039  16.7687571   5.2192736
  44.7744846  20.0689459  12.9582441  44.8089695  20.0680447  12.0016658
  44.8960924  19.1516364  13.2031596  46.3459969  55.9052610  15.7614160
  46.9352293  55.1519346  15.8005786  46.9266176  56.6655016  15.7953036
  53.0446863  32.0284724   5.8929676  52.3368740  31.4033318   6.0493004
  52.6051569  32.8761697   5.8262295  35.7783484  43.2988691  21.5058374
  35.9190392  43.3456230  20.5601883  35.5777502  44.1988134  21.7629242
  13.5515086  13.6046792  64.2331766  13.7077157  13.4980441  65.1715054
  12.8551023  12.9790212  64.0336784  60.8063889  35.9661031   2.7526662
  61.4209270  35.5492735   2.1486551  61.3336849  36.6117120   3.2231766
   5.7105905   0.1275493   5.6389338   4.9472570  -0.4483274   5.6827563
   5.8535081   0.4050737   6.5438020  50.7663155   9.4831735  31.4396739
  50.1946068  10.2281070  31.6252899  50.1673841   8.7473673  31.3127947
  33.9181161  69.4749016  62.3033100  34.6996028  69.9899334  62.5039378
  33.2155335  70.1216072  62.2371301   1.8835005  15.9218926  53.3313101
   1.3710961  15.5678863  52.6044327   2.7787766  15.9637541  52.9952115
  24.9828434  36.2152195  26.5020919  24.1223764  36.6325784  26.4616060
  24.7958469  35.2770782  26.4680934  14.1086166  65.8654766  24.6744084
  13.8957183  65.2487652  25.3748178  14.2089479  66.7073028  25.1188111
  18.4160726  75.1814670  19.8435986  18.4438579  74.2365503  19.9939060
  18.4135215  75.2724469  18.8907361  43.1212473  54.2431879  17.5456333
  42.4473476  54.2548227  18.2253075  43.1685543  53.3274794  17.2709072
   2.0572171  67.8019733  49.5472294   2.2445616  68.5742277  49.0136009
   1.7107472  68.1553239  50.3665775  50.6893587  69.2126936  43.1747967
  50.6795121  68.7524504  44.0140277  50.9326411  70.1113266  43.3972913
  47.5280619   2.2052780  36.3327670  46.9605112   2.5147265  35.6268215
  47.1217585   2.5415316  37.1315694   9.6216576  53.0405371  49.9959850
   9.4971721  53.6637633  50.7117558   9.1173474  53.4064715  49.2693567
  33.3212924  19.1221070   9.6330005  33.3049560  18.2147837   9.3284863
  33.2233882  19.6438670   8.8365006  23.2343785   0.1429511  63.7937070
  22.6547830   0.8977009  63.6904864  22.7054946  -0.6049441  63.5159175
   5.3517374  30.0781107   6.7210102   4.5128473  29.6875620   6.9659084
   5.1479467  30.6288910   5.9651393  48.0281639  50.6162739  11.8971610
  47.2676802  50.6862164  11.3200963  48.3861256  51.5034056  11.9302344
  22.4044625  72.5906595  23.6494470  22.2574250  72.5581597  24.5947289
  22.8555314  71.7705717  23.4488845  78.7618160  51.5532923   8.3210915
  78.0079842  52.1346569   8.2211995  79.4877052  52.0312548   7.9200059
  39.9209090  68.1786661  31.6866255  39.1733487  67.5855719  31.6116261
  39.9714013  68.6094748  30.8333468  60.3664684  12.7608597  13.1395292
  59.4774723  12.4060798  13.1467438  60.6904125  12.5774014  12.2576928
  25.0115459   0.6488396  33.6127525  24.6900861   1.3744069  34.1479593
  25.4661433   1.0716773  32.8842073  30.6632757  59.2921066   7.6657718
  30.8096600  59.3559217   8.6095577  31.5393424  59.1899633   7.2938812
  30.7089297  22.8485252  56.3277668  30.5917899  22.4547578  55.4632103
  29.8373525  22.8230144  56.7226523  42.4766111  36.4679313   8.0547762
  43.2891750  36.7251492   7.6191020  42.6474571  35.5830026   8.3771801
  12.7013890   4.0393163  44.7650152  11.8805997   3.5862781  44.9581271
  12.9424016   4.4604255  45.5901307  53.9480305  13.4918904   4.9834698
  54.8299360  13.1847918   4.7733098  53.9443636  13.5753524   5.9370172
  66.8034223  18.7547767  22.8835511  66.3471225  18.0132842  22.4857926
  66.1067358  19.2854798  23.2698321  53.7090969  23.8746357  23.3463573
  52.9323816  23.4114575  23.0326486  54.3097591  23.1798005  23.6158705
  20.5760226  65.9962839  58.9745289  20.7669720  65.7012743  59.8648876
  21.3579020  66.4809293  58.7099313  70.9584618  12.1594787   4.1994441
  71.2077522  11.3225937   4.5915020  70.1639414  12.4160540   4.6675637
  11.8153369  68.7365103  36.5192413  12.5478172  68.2182264  36.8525457
  11.2587631  68.1019449  36.0678124  69.8910141  52.9512614  37.7827126
  70.0619364  52.9383463  38.7244397  69.6751356  53.8638741  37.5909620
  14.7418606  27.4508238  45.8819771  15.5760109  26.9868040  45.9534693
  14.1288340  26.9214773  46.3920975  22.4277067  26.1848283  27.3753929
  23.2477975  25.7488203  27.1439171  22.6812840  27.0889187  27.5612736
  17.2979674  61.3322372  56.3974821  17.8971466  61.9461864  55.9728890
  17.8386673  60.8780021  57.0436585  16.8228230  60.1022810  34.3096715
  16.0351929  59.5737475  34.4381958  16.5808901  60.7312912  33.6299330
  32.2899183   0.9955670  13.3445966  32.0945200   1.8595210  12.9817808
  32.6013884   0.4863996  12.5962901  30.5225293   9.3710948  52.4028474
  31.2894504   9.3712903  52.9756218  30.8497827   9.0449764  51.5645247
  42.6784897   7.8161478   2.8818905  43.4311867   7.4062365   3.3080962
  42.2667265   8.3365721   3.5717019  27.2470474  11.5479445   9.9977571
  26.9690180  11.6283011  10.9101570  26.5997839  12.0522356   9.5048350
  46.6303460   3.4133674  62.2987568  46.8265979   4.1530038  62.8737837
  45.6955640   3.4975578  62.1108034  23.5667014   2.0950507  13.4978235
  22.9149437   2.1079664  14.1987348  23.9987111   2.9471815  13.5567462
  35.2350259  42.9453468  31.0328817  35.2595687  43.9014196  31.0723209
  35.6025648  42.6615906  31.8699169  13.2391009  42.1414262  47.7735358
  12.4397978  42.6222295  47.9884082  13.5075220  41.7412177  48.6005884
  46.7220831  30.4911017   1.3252574  46.1029768  29.7753215   1.1817286
  46.4152145  31.1921191   0.7502434  57.9383922  52.0689553  58.8109851
  57.0885754  52.0848197  59.2512029  57.9463911  51.2382001  58.3355766
  58.1099987  24.4219422   9.7866970  57.1665144  24.5801997   9.7546375
  58.3264923  24.0876222   8.9162993  26.5595675  41.5007925  34.1675687
  27.5052929  41.6247511  34.0871334  26.4479899  41.0433340  35.0009441
  22.1746016  51.4109135  29.5845461  21.3664269  51.9172907  29.6662307
  22.3948431  51.1647511  30.4829502  16.7236519  12.5045383   8.3010769
  17.6343369  12.4396384   8.5886037  16.2823892  11.7753518   8.7367445
  46.5483634  22.8321887  63.7101361  47.4370687  22.5808813  63.9616866
  46.1462180  22.0183755  63.4064585  40.0656097  73.9465234  35.4318929
  40.1594846  72.9948773  35.4741836  40.5492751  74.2689407  36.1923838
   0.8177464  40.9406234  64.4258819   0.6334321  41.2296487  63.5321685
   1.1261265  40.0398160  64.3274881  38.6614490   8.2937324  33.9380527
  38.7299919   8.6125278  33.0381060  37.7958059   8.5809183  34.2286015
  58.5968351  54.7856331  28.4782362  59.5225668  54.7644711  28.7207365
  58.1295204  54.7117281  29.3103361   9.4687399  44.5651770  56.4991355
   9.8672327  44.7954303  57.3384338  10.0920662  44.8789317  55.8439564
  45.8132935   9.8731363  15.4729271  46.4713287   9.1994441  15.3015792
  45.6192827   9.7865587  16.4062524  35.6151915   5.7847351   9.6232575
  34.8222327   5.3277111   9.3429470  36.3051081   5.1235771   9.5674258
  55.2393890  53.4472066  29.2978579  54.5852900  53.5714001  29.9855810
  56.0796213  53.5397679  29.7469359  48.4578848  53.4057760  12.6822042
  48.8309193  54.0586233  13.2745481  47.5833130  53.7380028  12.4797714
  40.9426737  30.3917074   7.8872019  41.3429594  31.0952902   7.3763466
  41.6392183  29.7429895   7.9883069  14.3929267  24.5343041  17.5947285
  15.1864958  24.8912525  17.1958959  13.8131690  25.2897096  17.6920736
  15.6415164  17.8321970  14.6471763  15.6378317  17.5762832  15.5695248
  16.5086412  18.2128119  14.5076847  35.0280333  32.2262526  29.0743709
  34.6403503  31.5527678  28.5154867  35.1614213  31.7910957  29.9164391
  19.1158390  28.3275485  51.5188169  18.7347639  29.1822386  51.7201233
  18.7319124  27.7357459  52.1658134  64.4898796  74.3553680  62.5624934
  64.6136165  73.7158102  61.8611476  64.4717121  73.8318104  63.3636099
  69.8529625  66.7941207  51.0187798  70.6807280  67.2059959  51.2665480
  69.4504834  67.4129385  50.4094296  40.2639644  58.9271288   8.4236753
  40.9331767  58.7626045   7.7593571  40.5612819  59.7187250   8.8722414
  65.5593173  71.6514637  36.3108659  64.9137752  71.1759304  36.8337202
  66.0970752  72.1119111  36.9551039  22.6668534  50.1247102  56.5637672
  23.1433138  49.6169979  55.9069228  23.3471855  50.6075102  57.0331150
  66.5373611  64.1596794   1.8536203  65.6277084  63.9082909   2.0135164
  66.6060734  65.0470591   2.2058465  19.3654573  15.0097525  10.0712276
  19.8777390  14.6774793   9.3340743  19.4840920  14.3553591  10.7596505
  21.3244390  31.5334368  53.8913774  20.3911710  31.6580462  54.0637684
  21.3526964  31.0356379  53.0742931  29.8888016  17.9185581  23.2433796
  29.4521952  18.7313771  22.9885674  29.9304366  17.4058115  22.4361682
  78.8259507  67.7898878  57.1153819  78.5801697  67.2123975  57.8381037
  78.9603949  67.2006911  56.3730865  63.0889702  56.1856085  65.2503319
  63.4472227  55.3926474  65.6492042  62.8059197  55.9085208  64.3789323
   6.5482697  37.0531298  55.8829206   5.5955538  37.1104918  55.9555316
   6.6999897  36.6696961  55.0190967  17.2938475  22.0251912  39.7691017
  16.6706881  22.6581604  40.1258284  18.0462250  22.5537044  39.5029551
  60.8097045  71.3193135  54.8747826  61.6615169  71.3075357  54.4382954
  60.1829974  71.1084284  54.1826916  42.8380060   3.5962480  18.5015070
  43.2505322   3.1469268  17.7638292  42.1408176   4.1182676  18.1044495
  66.8167257  13.6109412  21.2833738  67.7637386  13.5344231  21.1670041
  66.6092157  12.9844618  21.9766951  36.6873789   9.4564444  35.5184507
  36.1268973  10.0179029  34.9828601  36.3211870   9.5237547  36.4002705
  31.7967452  10.4163177  30.7474184  31.4464085   9.7067458  31.2859344
  32.5731947  10.7152564  31.2207007  45.6053114   6.8750119   1.6940784
  45.8319950   6.2419236   2.3752877  46.3545799   6.8645704   1.0984945
  25.7640219  30.1907372  24.9699235  25.0834894  30.8539820  24.8549795
  26.1015081  30.0383782  24.0872455   6.9444355  51.3279742  63.3257706
   7.2835049  52.0743662  62.8316438   6.0020670  51.3379962  63.1582227
   8.6585554  66.1930484  43.2489878   9.3797860  66.7705673  43.4990531
   8.7361750  65.4435414  43.8392812  71.7346430  40.6225014  23.6965775
  71.8489122  39.8552632  23.1357574  71.3334179  41.2783432  23.1263876
  61.8332052  22.6744246  22.5996661  62.3246431  22.2174907  23.2822585
  61.8867731  23.5984254  22.8437686  44.0382290   4.7911212  26.9910359
  44.3621254   4.9700412  26.1082506  44.6389437   5.2640355  27.5669932
  41.7510784  71.7617339  40.5561095  41.5429378  71.8933791  41.4810830
  41.1387277  72.3305387  40.0895053   0.3471884  39.7776813  54.2315250
   1.2378296  39.6851632  54.5697969   0.4598030  40.1635456  53.3628136
   3.5856423  66.7627567  65.0130619   3.6238083  67.6166767  64.5822493
   3.7363467  66.1322397  64.3088130  76.5707541  24.0550566  26.4963412
  76.5250981  24.9598145  26.8054676  76.7870584  23.5457206  27.2773814
  52.4283409  62.2486591   3.4877911  51.9565821  61.4588499   3.2234442
  51.9987583  62.5245190   4.2974788   1.8195407  18.1869222  49.5963806
   1.1414520  18.3278180  50.2571219   2.5557892  18.7231876  49.8906308
  70.5520010  51.0479683  19.7588783  69.8194695  50.6887955  19.2582565
  70.9288550  50.2914340  20.2081829  23.1031577  12.8929521  56.3479161
  22.5055520  12.7015258  57.0707297  22.6599567  12.5477697  55.5728966
  21.9715898  73.7176741  32.1062469  21.6631477  73.0843215  31.4582062
  22.9072349  73.5352529  32.1929741   9.7179620  68.5367947   8.3205795
  10.2660005  68.7375074   9.0792620  10.2423708  68.8091205   7.5675422
  65.0917816  68.1057805  63.5858001  64.9617362  69.0422815  63.7350809
  64.2098046  67.7346248  63.6101131  59.8735874  51.3747298  62.8496851
  59.9476068  50.8409106  63.6407540  60.6715505  51.9033372  62.8419198
   1.0966810  12.6698565  40.2216148   0.9093699  12.4273992  39.3147755
   1.6430410  13.4527433  40.1522636  75.9158325  40.8334369  57.0613259
  76.8074084  40.8442101  56.7131740  75.3814221  40.4992727  56.3409304
  50.2423096  33.5887694   3.7886432  49.6798944  33.2355905   3.0993050
  51.1152792  33.6126471   3.3967519  35.7875745  56.5563827  22.9044390
  36.2438695  57.3952978  22.9696059  34.8716609  56.7926674  22.7577996
  52.2681070  59.8228568  62.4251979  51.8840862  59.8606271  61.5492218
  52.3774553  60.7394308  62.6785031  31.5763164  21.8095589   8.0397934
  31.9857049  21.1445284   7.4862915  30.8455515  21.3553572   8.4592175
  12.8465781  70.2976603  58.1921893  12.6476464  71.1469716  58.5863030
  12.0849881  70.1027435  57.6460957  10.0233722  24.8664093  37.4890518
   9.3272752  24.6693587  36.8622732  10.4811418  24.0342331  37.6080561
  57.7807617  -0.2066201  22.9203463  57.5338364   0.1992151  22.0893478
  57.1709394   0.1638731  23.5583758  20.9036288  60.6073231  58.8955444
  20.3330550  59.9061340  58.5808891  20.6165251  61.3836450  58.4147876
  30.9280062  21.0097980  41.2685680  30.5748844  21.4995360  42.0113277
  30.4627466  20.1735544  41.2900925  37.1393602  71.7652937  31.5483594
  36.3701598  71.1955880  31.5484023  37.1259515  72.1857472  30.6885505
  31.8369269   8.2519299   9.8277593  32.0025659   7.8395653  10.6755519
  31.8252850   7.5244516   9.2057687   8.5461268  74.8228044  57.4196696
   7.8795561  75.3850478  57.0249533   8.8994202  74.3191046  56.6863900
  24.2777173  12.5037385  59.5341336  25.0841586  12.0839263  59.2347324
  23.5940997  12.1361305  58.9739901  69.2238235  23.4366179  61.6809082
  68.4252548  23.3266449  62.1970749  69.8683357  23.7703443  62.3049831
  52.0901108   8.6525279  13.5122681  51.6753197   8.3444703  14.3180466
  52.2012758   9.5939559  13.6448872  10.0740473  31.0440256  51.6781789
  10.7098000  30.3929044  51.3813752  10.1147954  31.7365505  51.0186487
  36.2588406  29.6342707   1.0850988  36.1480880  29.9068141   0.1742273
  35.4061937  29.2772722   1.3336486  40.6288719   3.0249143  41.4249516
  41.3796473   3.0545956  40.8319187  40.2784681   2.1399370  41.3236380
  26.2323689  34.6263123  19.0965450  26.4507437  35.4244614  19.5776904
  26.9941258  34.4665241  18.5393846  62.3076143  63.6367421  14.6974170
  62.3030086  63.4056680  13.7685382  62.5355758  64.5662897  14.7118604
  44.5338392  49.5848465  11.5817475  45.1661682  50.2460241  11.3002574
  45.0290537  48.7657118  11.5845978  49.4563437  70.4803038  16.1080301
  49.2445421  70.6176853  17.0313382  50.4027414  70.3372526  16.0981131
  61.5924883  37.3457813  12.6591647  62.4823856  37.6958108  12.7015567
  61.0362434  38.0703092  12.9453206  64.4420004   9.0037662  14.7779918
  64.0464115   8.4411693  15.4437423  65.0782108   9.5330584  15.2589476
  69.1354609  22.7231073   6.2212354  69.3789053  22.5869250   7.1368891
  69.1470242  23.6736512   6.1091536  42.1961737  12.6632977  25.1814723
  42.9478788  12.1785557  24.8405910  42.5749969  13.4548771  25.5637431
  75.8220799   2.3933704  13.4649146  76.1300595   1.9136388  12.6959956
  76.2587674   3.2432325  13.4077489  72.7932549  43.5139847  12.4192762
  72.7760744  43.0386257  13.2499194  72.6480150  44.4280672  12.6633787
   9.8310885  11.9889414  35.4632068  10.6909212  12.1164083  35.0623822
   9.4075045  12.8448904  35.3987169   1.4472470  68.6929077  57.9259747
   0.5541024  68.4003228  57.7445584   1.3376030  69.4845695  58.4527415
  40.1829672  19.2385423   0.9350821  39.8509264  18.9259851   1.7766817
  40.2729082  18.4471238   0.4042349  34.5601797  34.5608926   4.6003446
  34.8251987  34.4381690   3.6887878  34.5573926  33.6779189   4.9699134
  58.1698799  71.3418865   8.0884749  57.5850821  70.9159613   8.7152350
  58.5500526  70.6204987   7.5871778   2.5666365  45.2993011  29.8852468
   2.8350767  44.7337151  30.6093168   3.1245932  45.0336599  29.1542554
  32.2455518   4.6196081  58.9110303  31.7566077   4.9939157  59.6438753
  32.1640365   3.6730005  59.0272927  62.2106171  14.1336787  21.2186909
  62.4916649  15.0341034  21.3814235  61.3655663  14.0625978  21.6626143
  62.2201528   6.2057306  48.8583535  62.1676930   5.5058814  48.2074350
  62.8274019   6.8408586  48.4787565   6.8474659  63.1531376  64.9056880
   6.0925564  63.5255307  64.4499840   6.7479548  63.4447593  65.8119365
  29.6514320  18.0474210  14.0791404  29.5395088  18.4296155  13.2087195
  29.8269844  18.7963498  14.6488059  54.2486095  40.3446293   1.6420595
  55.0215960  40.0631285   1.1526959  53.5197639  40.2110624   1.0361090
   2.4138991   7.6361663  18.1415939   1.5220515   7.5291927  18.4723461
   2.3834102   7.2836025  17.2522092   5.8979384   3.1659944  25.0216579
   6.3438479   2.7101047  24.3078232   6.4273898   2.9746015  25.7957911
  16.1285910  51.2186307  42.8975850  17.0646939  51.4178366  42.8815275
  15.7675394  51.8171186  43.5515600  56.5135002  19.9729931  25.5347824
  57.0965433  20.3702688  26.1816692  57.0898008  19.7300351  24.8101592
  47.4945545  30.7641077  11.2288904  47.6807690  31.3867736  11.9316304
  46.5399265  30.7603693  11.1589229   3.2763712  14.1782476  60.8574247
   3.7850253  14.4378139  60.0892263   3.9209597  14.1186668  61.5625396
  12.8363196   5.3890140   3.5899037  13.7889163   5.4787929   3.6168295
  12.6870839   4.5491130   3.1557095  42.4637286  13.9129259  60.5965292
  42.6886909  13.0793954  61.0098687  41.8125169  13.6834718  59.9335783
  71.0606289   9.6989912  32.3365641  71.8915272   9.6214581  31.8677068
  70.7630348  10.5896008  32.1508694  21.4807431  11.6330196  54.7321385
  20.6279628  12.0616723  54.6596807  21.3142459  10.7244922  54.4809705
  14.9909147  12.2292519  17.1813357  14.1935381  12.0748508  17.6878715
  15.1448092  13.1708825  17.2580123  39.9326158  46.5281582   6.2017143
  40.3056765  47.4063253   6.1250108  39.0040493  46.6771412   6.3800508
  68.3961964  43.7340450  20.4159403  68.6099625  44.6670675  20.4142976
  67.8625059  43.6092186  19.6311951  19.0256247  56.7099065  49.0307992
  19.4263253  56.2434906  49.7643691  19.6626601  57.3861176  48.8002449
  68.8879347  42.9596281   9.1730773  69.5327187  43.6436129   8.9923948
  69.1879034  42.5569344   9.9879944  70.6943178  38.1422700  64.5584461
  71.3094807  38.6725349  64.0518628  70.5922318  38.6166118  65.3835582
  32.0231414  34.2198038  23.3738947  32.6658297  33.5231423  23.2403040
  31.8780732  34.2336464  24.3199348  77.0812178  34.4617081  21.7443705
  76.9930649  35.1034713  21.0396695  77.2795391  33.6395240  21.2961364
  46.1214273  15.9969856  44.0692192  46.8497007  15.6062938  43.5863024
  45.8259265  15.3036310  44.6592742  32.8965425  40.6077194  12.1147859
  33.6225367  40.9647751  11.6032481  32.5432801  39.9040627  11.5704441
  42.3872423  32.4391723   6.6557211  42.9001665  32.7821445   5.9239364
  42.5014210  33.0858636   7.3521304  21.8145013  63.5466194  15.6212771
  21.5826035  63.2740974  16.5090764  22.2246695  62.7738285  15.2329636
   4.9004110  62.4723816  13.0495834   5.5126795  63.1902313  12.8881848
   4.0363344  62.8567505  12.9016912   2.3372492  36.3910488  53.9398581
   2.5100550  36.3711473  54.8811203   1.4434037  36.0596943  53.8533848
  66.6304970  30.1633382   5.1867777  67.3317385  30.7941818   5.0239170
  65.8462143  30.5793238   4.8288748  50.6089544  68.7875652  12.8560460
  50.8967638  68.4933424  11.9918525  50.4026079  67.9804325  13.3274114
  79.0211296  40.0905180   0.4409307  79.4020748  40.5826378   1.1682093
  78.0783081  40.1123667   0.6047601  10.0634305  21.0381652  61.1112261
   9.6703951  21.3915159  61.9092858  10.3485315  20.1573516  61.3543540
  67.4286461  49.4588900   2.9695225  68.2005262  50.0015068   3.1307745
  66.7257786  49.8923779   3.4535617  78.7018681  20.1854730  24.3135977
  78.5282946  20.6145382  25.1514578  79.2875195  20.7867002  23.8534093
  72.9771757  27.5428653   0.7708690  72.1523237  27.4838042   0.2888289
  73.5279894  26.8602800   0.3875740  19.1237577  36.0820651   8.2875735
  18.8915094  35.6098485   9.0871376  19.9277433  36.5508914   8.5112625
  56.2948179  67.1497250  47.5606537  56.1255980  68.0888987  47.4861336
  56.5275145  66.8771172  46.6730928  57.4099112  31.4561582  49.1877794
  58.0059528  30.8398581  49.6133804  56.7022848  31.5805554  49.8202562
   5.0850663  66.3841671  33.4480649   4.2242607  66.4592141  33.0362254
   5.1731858  67.1840900  33.9663225  28.4261513  61.5479755  12.7394867
  27.8611922  60.9863615  13.2701850  28.6403418  61.0163164  11.9728756
  70.5776834  63.7514162  54.8470116  70.4440260  63.3072519  55.6843233
  70.7341146  63.0431223  54.2224503  20.4154325  37.3331690  24.5082188
  21.2084174  37.3395514  23.9721560  20.3160954  36.4201856  24.7780776
  69.8873997  46.6657352  15.9199047  69.9442387  47.1422386  15.0916862
  68.9509773  46.6375875  16.1162555  68.6507559  18.2545888  26.7380500
  68.9055061  18.2245398  25.8158612  67.8758335  17.6951766  26.7908168
  50.4425399  67.9097520  29.1298413  49.9807899  68.2447087  28.3611917
  50.8460586  68.6836271  29.5229316  52.2228003  16.7383850  21.7731762
  51.9466925  17.6392913  21.6047597  52.5290775  16.4190972  20.9243655
  44.6903133  34.3327713   6.3063544  44.6604013  35.2757192   6.4681697
  45.0815105  33.9659834   7.0992368  14.9878439  41.8638897  28.5210681
  15.4392942  42.2748613  27.7838254  14.3751844  42.5316954  28.8291454
  15.5344614  44.4733238  34.0718627  15.2916750  45.0744820  33.3676648
  14.7000631  44.2083788  34.4589233  15.7645147  29.4745637  64.3660540
  15.9370248  30.2937604  64.8301512  15.0319640  29.6783639  63.7846219
  13.5883793  54.3508858  52.2054988  12.9280457  53.8839442  52.7175110
  14.1237864  54.8011238  52.8588444  59.5016098  47.0423973  53.4799236
  59.4922304  46.3656652  52.8030354  60.3671456  46.9672883  53.8817185
  49.5871274  62.5688617  26.2768459  48.6764114  62.8502958  26.1895084
  49.8779123  62.9520302  27.1044064  13.5133824  66.7265767  44.3231636
  13.7756476  66.8257398  45.2383774  13.6894688  65.8075160  44.1217857
  57.5696850  23.6980438  16.5537310  58.1992579  23.7881255  17.2690988
  57.8990173  22.9634404  16.0359192  46.1945534  61.5387297  15.1675391
  46.3436556  61.4624310  16.1099708  47.0724392  61.5908575  14.7896039
  24.2528343  60.9706593  27.5164151  24.1560316  60.3437805  28.2332683
  25.1355553  61.3244867  27.6252174  21.7914407   8.6384494   7.5989079
  21.4565579   7.9714782   8.1982696  21.0134570   8.9696128   7.1502352
  62.6925421  45.7739305  59.1420126  63.5824299  45.7066774  58.7958813
  62.5155497  44.9111843  59.5169497  16.1400907   9.0306760  29.6426302
  16.0992591   8.3634044  30.3276902  17.0341794   9.3690778  29.6908813
  50.6537867  59.1187525  23.5124087  49.8336983  58.7460327  23.1887317
  51.0057545  59.6062231  22.7676129  70.1622391  34.0883631  57.9156291
  71.0531283  34.3416223  57.6739645  69.8511839  33.5694891  57.1738428
  57.7844381  40.3623199  13.2681310  57.8499508  39.4310260  13.4793985
  58.6704588  40.6110954  13.0048561   0.8651480  64.0081424  55.9651446
   0.2615532  64.5761389  55.4863077   1.7180046  64.4327611  55.8725542
  16.6116461  72.4289912  61.5474081  16.5454850  72.3105973  62.4949509
  17.3452744  71.8719858  61.2870833  64.0145970  70.7534236  52.2517019
  64.3464327  70.8263272  51.3568264  63.5568214  71.5798778  52.4054736
  42.9231644  14.8081064  10.0039005  42.4567986  13.9998674  10.2171671
  42.2738266  15.4998720  10.1305997  23.7075895  56.7658359  63.8073319
  23.1603518  56.1212403  63.3587116  23.3040002  56.8639320  64.6697267
  66.3245487  42.3961449   3.6457282  66.4477682  41.4608192   3.8076380
  65.8047485  42.7014875   4.3892395  54.4735575  32.7295065  12.5183856
  53.7744427  32.0761561  12.4937654  54.3590212  33.1712556  13.3597970
  36.0210514  12.9320800  26.4800119  35.1752353  12.5305462  26.6790128
  35.9173846  13.8484645  26.7363811  65.4789543  35.2397561  12.2784984
  66.0877800  35.1203132  11.5495968  64.6491718  35.4723167  11.8618309
  66.6906929  23.8177991  38.5529280  65.8060217  23.7571573  38.1925011
  66.7271090  24.6863937  38.9534926  62.9697752  27.3229909  14.0286267
  63.4604979  26.5690708  14.3557787  63.5789061  28.0572653  14.1062927
  38.6034553  20.5528976  51.2134534  39.1823833  20.1285745  51.8467170
  37.7236812  20.2776576  51.4712828  35.3134267  29.1893245  59.3269431
  35.5892818  30.1026918  59.2501676  35.9943311  28.6943675  58.8712889
  73.7301255  55.7079369  28.2381350  73.1199360  55.5652803  27.5145656
  74.2874193  54.9296993  28.2384473  66.9324637  65.6882400  56.1057663
  66.4778662  66.5262860  56.0206276  66.2424207  65.0628323  56.3269859
  61.0463524  70.8842564  34.0541124  60.7231474  69.9838829  34.0872884
  60.2550411  71.4216137  34.0180326  12.0639794  10.8038093  45.6746298
  12.6348226  11.0484935  46.4029830  11.8356745   9.8901225  45.8457440
  21.5759246   2.2775818  43.2144123  21.5350167   3.1894876  43.5024816
  21.3171403   2.3055459  42.2932821   7.4306902  27.6942134   6.5763766
   7.0027861  28.5299730   6.7624956   8.1448874  27.9184127   5.9798068
  67.1016216  45.9958363   6.5460891  67.7382898  46.6416788   6.8523127
  67.6136971  45.1976204   6.4162445  63.4643054  50.8373016  64.2672573
  63.2008195  50.6453914  65.1672443  64.3158126  51.2659925  64.3532260
  52.2059011  30.4551435  26.4406466  51.7265272  31.0394239  27.0280576
  53.0700159  30.3673029  26.8429112  21.6819350   7.6731635  45.7805520
  21.1100738   7.2419788  46.4156013  21.0860650   8.0087568  45.1108175
  56.9860046   2.3591019  55.4437470  56.6538398   1.5633203  55.0282639
  57.0479934   2.1363593  56.3726037  25.8481614  39.5595695  64.1863211
  26.4548795  39.1573049  64.8078582  25.9394424  39.0365507  63.3898575
  44.6277189  11.6965556   1.1435907  44.1251802  10.8923852   1.0132084
  45.5210638  11.4645028   0.8899820  15.3286967  73.2549924  46.7979043
  14.8583683  73.8678712  46.2327522  16.1642632  73.6865753  46.9762200
  70.4569530  41.5694761  60.6809187  69.9387550  40.9215260  60.2035666
  70.0452185  42.4075890  60.4705095  49.6693373  56.9003827  55.6272447
  48.7458587  56.7323572  55.8148288  49.9761558  56.1009497  55.1994574
  62.9201746  25.3962708  23.4650397  63.7469435  25.1085854  23.8522434
  62.5693369  26.0287690  24.0920091  72.7815771  71.8452662  60.4864982
  73.1382799  71.3817042  59.7288000  73.5060025  72.3877186  60.7982397
   1.7006144  25.5468988  13.7664855   2.2071775  24.8892617  13.2899010
   2.0424780  26.3848257  13.4546578   1.1956915  27.8852987  50.3917313
   1.2056669  28.1405210  51.3142252   1.5343794  26.9900298  50.3872347
  71.5545511  43.8591671   4.3293664  71.1710262  44.2460155   3.5422918
  72.4996090  43.9314175   4.1956559  67.8629072  14.1695119  51.2423950
  68.6053081  14.7734453  51.2240141  67.7798684  13.8644792  50.3389066
   4.3195900  71.2172073  54.5111543   4.1286692  71.1946315  55.4488486
   4.9077687  70.4756254  54.3685657  40.4779863  35.8150935  16.2468946
  40.2730751  35.5135775  17.1319544  39.8289990  36.4959741  16.0695624
  64.4572878  19.9536943  45.2444696  64.1017103  19.2589951  45.7987118
  63.7414265  20.1748633  44.6487713  10.6860670  48.9704079  59.9337625
  11.5091786  49.4325561  59.7751975  10.0107369  49.5652563  59.6076995
  65.3843260  22.5333905   6.1255091  64.6338177  22.4224281   5.5418521
  65.9415197  23.1718922   5.6804436  71.7812300  16.2585855  20.9614849
  71.6037750  17.1768570  21.1652493  71.6882086  15.8050406  21.7992663
  56.1724758  21.3905287  21.2497330  55.4643202  20.7465196  21.2499332
  56.1129045  21.8122911  22.1069384  66.4995337  47.4586678  39.3847156
  67.2691631  47.2230673  39.9027777  66.1498117  48.2382298  39.8162413
  52.7890396  30.4210734  15.8955705  52.2172976  31.1076212  16.2390733
  52.3337317  30.0967240  15.1185763  62.4063206  28.1223202  36.9346428
  61.6450882  28.6900854  37.0546293  62.9978991  28.3608627  37.6483440
  11.4661154  23.3513665   5.0446534  10.6529841  23.1875300   4.5669472
  11.4404520  22.7376318   5.7787538  47.1584670  17.1081830  46.8317669
  46.3174598  16.6541387  46.8844682  47.1134298  17.6014711  46.0126978
  45.9321801   8.0855180  55.1949167  45.5417268   8.4394266  55.9939956
  45.4322784   7.2889520  55.0165409  57.7240372  57.5862312  15.8349168
  57.1943140  56.8960285  16.2339699  57.3557997  58.3999872  16.1790633
  43.0990824  74.2175693  62.5714469  42.8240809  73.3419627  62.2995651
  44.0526137  74.1607780  62.6331052  39.5212507  38.3346343  20.3676105
  39.8247337  39.1404486  19.9495304  40.3158188  37.9336643  20.7199144
  62.8595114  12.7170134   2.0769431  62.0632648  12.7165568   1.5456942
  62.6583004  12.1360278   2.8105670  64.0378666  22.7391553  20.6848812
  63.6273098  22.4429107  21.4972305  63.8543272  23.6780286  20.6522870
  33.8548207  34.6472192  -0.0522695  34.2135358  34.8427033   0.8133748
  32.9759955  35.0263095  -0.0385424   1.5744909  49.8287582  46.8038654
   2.3866400  49.6433735  46.3323975   0.8822950  49.6558475  46.1657429
  51.5162945  50.8164978  12.8367472  51.9404697  49.9869919  13.0563569
  51.3291597  50.7492971  11.9004261  41.7387247  42.1315384  16.5798986
  41.2692451  41.9949389  15.7570028  42.6149654  42.4089384  16.3125360
  65.7481830  26.4329626  47.8548878  65.3407447  25.9399034  48.5670119
  65.0695388  26.4868785  47.1820026  49.2957115  74.0583134  12.4227560
  48.5210562  73.8132143  11.9167280  49.2688465  75.0146341  12.4537408
   7.9798500  19.6037103  54.6892780   7.1336691  19.2529966  54.9671393
   8.0199616  19.4174482  53.7512332  69.5658207  49.6559000   7.5701195
  69.6236849  50.3615618   8.2142651  70.2625847  49.0480137   7.8175533
  14.9051034  52.8910923  29.1003084  14.4299114  52.6504278  28.3050060
  15.8014321  53.0506611  28.8047338  20.4777638   1.3161332  28.8476968
  21.1093633   0.9109647  29.4419622  19.9736850   1.9108159  29.4031096
   6.2910399  50.6444311   5.4431319   5.9928831  50.4642105   4.5515841
   6.2125525  51.5940189   5.5345708  11.8993982  12.0397365  33.3803511
  12.6445421  12.1913671  33.9617276  12.0796141  12.5832152  32.6132870
  32.8978190  66.4137316  28.8463068  32.1306166  65.9050560  28.5838580
  33.3308538  65.8712578  29.5054293  21.6080443  19.1884715  18.4876740
  21.8120353  19.9565132  19.0212858  21.7691438  19.4723613  17.5878477
  54.0919638  30.8399582  38.7868977  54.9595594  31.1231971  39.0754938
  53.5152912  31.0478997  39.5220447  55.7622974  11.6107036  65.1014337
  54.8303954  11.7172862  65.2923112  55.7875602  11.3035680  64.1951992
  18.5826032   3.0417878  29.6845031  17.8253810   3.1584937  30.2582836
  18.4398572   3.6628206  28.9702392   3.7029299  34.4683480  13.0499411
   4.0658888  33.5831833  13.0186415   2.9601606  34.4441152  12.4466729
  53.1789701   0.8557750  53.6390656  52.3026340   0.4770161  53.5697525
  53.0476443   1.7921616  53.4901851  70.4472542  48.7915707  14.4146895
  69.8954058  49.4938326  14.7589636  71.2808609  49.2178011  14.2155504
  74.9761820  47.6774472  48.1755846  74.9039269  47.8705424  47.2408515
  74.1556502  47.9975564  48.5504061   2.8455576  63.0253691  64.8224445
   3.2079491  63.4545797  65.5974808   3.2057175  63.5183448  64.0852260
  52.6255671   1.2733514  25.0460625  53.0962912   0.5184038  25.3991914
  52.1980063   0.9412057  24.2566895  55.1274967  55.6899738  25.8779716
  54.7457981  55.5491734  25.0115347  54.4176292  55.4892492  26.4879131
   2.8244146  67.3693323  28.8826609   1.9397577  67.0592928  29.0763044
   3.1160578  66.8214798  28.1539440  28.1018043  39.8124886  12.9194593
  28.3381462  38.9405107  13.2357335  27.7236390  40.2496433  13.6824238
  72.1043015  71.7238998  18.5757744  72.1048975  72.1919537  17.7408147
  72.4997139  72.3377228  19.1947246  17.8417365  12.1773101  57.4465179
  18.6421125  11.9834710  56.9586068  18.0745856  12.0188095  58.3613360
  63.7030172  25.3827238  20.8339286  63.3673239  25.2335000  21.7178249
  63.1131887  26.0379982  20.4611707  58.8963079  58.6241817  25.2361035
  58.4586048  58.0022335  25.8173347  58.8914728  58.1961107  24.3799686
  51.1812751  21.2334539  52.9679531  51.7967956  21.6213132  53.5899943
  50.5062501  20.8338596  53.5164946  78.4096861  53.0567247  63.0055842
  78.1544638  53.0610401  63.9281215  78.2786656  52.1509809  62.7250629
  32.6154804  57.7993870  30.5766082  33.3434868  58.3081055  30.9335995
  32.8631401  56.8874121  30.7289290  75.5591965  44.6401405  29.2399478
  75.9180260  43.7665272  29.0841341  76.2725019  45.1206064  29.6601582
  19.1953866  35.6075771  30.9475994  18.5285823  34.9247749  30.8741999
  19.4648091  35.7772643  30.0449109  73.5669947  40.3682470  27.8045607
  73.9966679  40.0093555  28.5809660  73.9228439  39.8585033  27.0767140
  55.8940077  60.6709719  14.5963788  56.4854240  61.2099409  14.0710557
  56.4240551  60.3915167  15.3428268  18.8357162  56.4647627   9.0142822
  18.9429390  57.0292044   9.7798812  18.6332202  55.6030369   9.3785000
   1.7544588  69.7120237  15.6058002   1.7888674  69.1784143  16.3997185
   2.5014242  69.4159031  15.0856185  64.1240311  67.2105742  19.3648076
  63.2011604  67.4631453  19.3921602  64.1287041  66.2911129  19.6308923
  19.1709582   8.4564216  32.6955914  18.7858502   9.0452583  33.3445930
  19.6549813   7.8130443  33.2132888  31.4788882  24.8197372   9.7934026
  32.0797889  25.2589137   9.1915053  32.0202414  24.1685207  10.2395892
  74.4214249  50.7734067  56.5751415  73.8678026  50.3296846  55.9326130
  74.0448571  50.5337745  57.4219030  78.3366442  71.5838713  48.0341619
  77.4725342  71.5826220  47.6223999  78.9277458  71.8970722  47.3495203
  70.6347418  28.3174849  12.5875330  71.2354803  27.5727153  12.5618458
  70.3370762  28.3538604  13.4965456  77.3613882  11.8868577  33.4837675
  78.2853317  12.0100176  33.2660770  77.1860313  12.5393534  34.1618013
  13.2443938  65.4424972  58.9220327  14.0497860  65.9287733  58.7456625
  12.6736197  66.0747618  59.3587136  73.5542870  27.8521228  35.9308767
  73.1427765  27.1327782  36.4098692  73.4931517  27.5934887  35.0113106
  18.3400377  62.4954700  10.3979993  17.4638781  62.5572300  10.0175214
  18.6900171  61.6708422  10.0607646  39.3525061  17.2039807   8.2050133
  39.4073614  18.1497979   8.3415902  40.1460012  16.9861865   7.7159667
  18.2269113  15.3456212  59.3059456  18.1670110  16.3008548  59.3193871
  18.3140962  15.1241304  58.3788150  54.5677996  54.2828989  12.4647570
  53.6636400  53.9903879  12.3500240  55.0697947  53.4744644  12.5680602
  49.8813376  65.8964843  55.6321752  49.1958842  65.3358764  55.2687031
  49.5947298  66.7870659  55.4298162  68.2413244  60.4923439  15.9151435
  68.3899498  61.3490009  15.5147946  68.8421965  59.9057531  15.4556906
  78.1998634  24.9737167  44.9535465  77.9368162  25.3165722  45.8076477
  78.2653189  25.7479310  44.3944931  64.6673250  47.2209358   6.8377924
  65.5813026  47.1085310   6.5765643  64.7039413  47.8137016   7.5884742
   7.6062616  56.2607956  35.4075599   7.8000006  55.7499695  34.6215892
   8.4540972  56.6115141  35.6803083  54.3815041  29.6812272   6.9293118
  54.4280243  29.8225522   7.8748775  53.9752007  30.4777861   6.5877855
  71.4651680  56.8061924  17.1412933  71.7415857  56.9826412  18.0405664
  72.0574665  57.3297405  16.6015649   9.7198169   2.7348001   4.9842468
  10.1857345   3.3343942   4.4014582  10.3702800   2.4848420   5.6404865
  73.3667421  47.6838064   5.6143194  72.8816891  48.2617474   5.0253046
  74.2737627  47.7424288   5.3141338  64.3994761  43.8239336  37.8281426
  65.2639341  44.2342949  37.8047180  63.8581705  44.3731833  37.2610903
  48.1498544   9.3999244  59.5585197  47.6239125  10.1167442  59.2038655
  48.2357948   8.7833883  58.8313800  75.6819391  25.8586526  17.1731782
  75.9497166  24.9650764  17.3877668  74.7400379  25.7949924  17.0150757
  73.4225607  73.6517382  19.5700061  74.3423986  73.6394787  19.3054652
  73.2240105  74.5785809  19.7033203  16.4583048  41.6880465   0.9563410
  16.5838560  41.1312103   1.7247158  15.5122980  41.8276215   0.9136897
  44.3367545  15.9193517  61.3083800  44.4484107  15.6069423  62.2062453
  43.6143605  15.3962709  60.9608698  29.7268995  53.6818075  16.1275899
  28.9938482  53.6042118  16.7382002  30.4618105  53.9668512  16.6706264
  33.9873251  65.8142871  50.9884387  33.6603197  66.7063540  51.1046988
  34.6686682  65.8940476  50.3208786  39.8157279   3.0754096   5.0927275
  39.3966357   3.9298780   5.1950794  40.0581614   2.8194148   5.9826273
  43.8689439   5.6556941  62.5986582  42.9179494   5.6691982  62.7066189
  44.2045419   5.4130269  63.4616291  36.1196487  13.3093358  43.5073644
  36.4882867  13.6875202  44.3056851  36.8454282  12.8240873  43.1149202
  70.3481054  36.5326834  20.6758499  70.7904005  35.8651829  21.2002993
  70.7684994  37.3542619  20.9298348  21.3573568  29.3082477  63.7807780
  20.6925313  29.9690153  63.5867893  21.4550082  29.3389417  64.7324891
  62.7326107  62.3150015   5.8833402  62.7246046  61.6350460   6.5570056
  62.8469801  61.8370295   5.0619435  73.5149431  73.4788704  23.1822801
  73.7040615  74.3946218  23.3868766  74.2681837  72.9967308  23.5234547
  42.7024794  50.5368805   3.5130218  43.5402584  50.3304911   3.9274657
  42.1490669  50.8435869   4.2312801  58.9266729  69.2647743  45.7888556
  58.6418819  69.9391747  46.4055490  59.7056580  69.6341181  45.3729248
  73.9298010  60.9897757  22.6252937  73.3694792  61.7658138  22.6190591
  74.8073816  61.3294029  22.8006244  61.1973143  21.3317919  20.1882339
  61.3559341  21.7934465  21.0116100  61.8618202  20.6431317  20.1679015
  48.0263662  70.7749796   4.0589955  48.0703735  71.1192226   4.9510679
  47.5684309  71.4534330   3.5627809  25.5702130   0.9604074  60.5337947
  25.1335351   1.6907383  60.9721586  25.5203645   1.1757065  59.6024549
   5.5563864  66.3120365  42.8358793   6.4907202  66.5095806  42.7708673
   5.3635153  65.8042955  42.0476961  39.1069571  14.0231426   5.5588460
  38.3798949  13.9144142   4.9458328  39.7921054  14.4500549   5.0444973
  35.7167546   8.5971071  57.3274833  36.6383283   8.5367633  57.5790667
  35.7060020   8.3629228  56.3994342  17.5219123   7.3375614  40.6981277
  18.2225482   7.7114875  41.2324715  17.5398414   6.4021022  40.9001875
  58.1211805  62.3370981   6.1567396  57.4813890  61.9014502   5.5936170
  58.9479589  62.2657871   5.6796843  37.7580500  37.5238967   1.0629322
  37.0436358  37.8865004   0.5391350  37.9750037  36.6970229   0.6323028
  30.0062625  54.1068746  57.4492639  29.2698733  53.5157300  57.6058268
  29.8272102  54.4903566  56.5907120  74.1146803  32.5286722  22.0082831
  74.6848392  32.1439624  22.6739788  74.2555714  33.4720492  22.0884037
  37.3094813   5.7048137  27.7610302  36.6329257   5.6614787  28.4367657
  37.0844905   6.4797599  27.2461843  53.8276672  71.7068481  25.7785988
  54.7491646  71.9650602  25.7586122  53.6607599  71.4855194  26.6947794
  15.7359919  53.6237526  22.6533055  16.0048899  53.8894653  21.7739201
  14.9512037  53.0937433  22.5138903  43.6122370  71.8752766  32.0160151
  43.6123943  72.5799322  32.6638532  42.6916933  71.6263580  31.9331050
  74.5859671  50.2072954  43.7566042  74.6311569  50.2110910  42.8004789
  74.2724895  51.0823822  43.9850473   6.3770980  70.9347725  13.4041929
   6.5708113  70.0621939  13.7467110   6.9433928  71.0222578  12.6374543
   5.3019556  55.0169754  36.0708094   5.2362474  55.6067371  36.8218756
   6.1156305  55.2724075  35.6361747  64.1509724  37.6895142   8.9094716
  65.0441122  37.5876474   8.5806108  64.1180801  37.1350479   9.6890342
  61.0097122  62.5682163  25.6542945  60.9768534  63.4767294  25.9538865
  60.9470558  62.6279545  24.7010183  51.2965171   9.9037219  56.0114807
  52.0303695  10.1585437  55.4522335  50.5922715  10.5060531  55.7717567
  67.4241161  65.1833200  53.5040855  67.5037384  65.3006172  54.4507313
  68.2969141  64.9091959  53.2224607  25.0958793   3.1850864  62.2454321
  24.2982166   3.1291963  62.7715924  24.9062650   3.8602735  61.5939736
  76.6531086  32.2079730  26.5266013  75.9706163  32.5113702  27.1252561
  77.4602890  32.5915527  26.8694615  20.3477781  27.0422698  62.7141519
  19.5690696  26.9558717  63.2640446  20.7926147  27.8206731  63.0494691
  31.2410371   7.1768524  57.0179373  32.0120017   6.7043926  56.7038905
  31.5051047   7.5276424  57.8684932  16.7525610  63.8147831  20.8518815
  17.0385679  63.3993864  21.6654396  16.9229158  64.7470760  20.9862161
  25.6201959  51.3110876   5.6031936  26.0511088  51.8267441   6.2848443
  24.8747754  51.8471336   5.3325778  15.7232396  32.2861530  62.2897386
  15.6596105  33.0430890  62.8721741  15.2993791  32.5706769  61.4800364
  19.5867984  47.0768644  53.6543399  18.9717691  46.9549371  52.9310804
  19.0671079  46.9118596  54.4410616  56.7614619   2.5004484  43.3462244
  56.6211860   1.5537168  43.3620888  56.0273235   2.8428413  42.8362900
  15.3398673  45.5064870  40.2723366  15.9662263  46.1589433  40.5857068
  15.6955259  45.2172567  39.4320494   0.4472670  52.4577475  47.6670265
  -0.3422419  52.4377298  47.1261835   0.8351168  51.5896034  47.5568771
  59.9789762  52.0529461  33.1934285  59.1017199  52.2533369  32.8670835
  59.8476410  51.3267803  33.8030744  76.1892271  36.5262532  16.8546534
  75.9442377  37.2442126  16.2709165  77.0828009  36.3012171  16.5955937
  13.3151404  26.6031654  14.4761455  12.7284304  26.1581333  13.8646317
  12.7853648  27.3099334  14.8449922  71.8185838  17.8422363  16.2274253
  71.0078318  17.3735912  16.0292089  72.4104102  17.6102645  15.5117702
  77.7302504  43.6928356  63.6687961  77.2020006  44.4571859  63.8989147
  77.1496010  43.1531072  63.1323516  56.4376640  69.3817759  16.5171015
  56.3749027  69.3359423  15.5630612  56.9982243  68.6435795  16.7559922
  27.4705760  20.4944517  60.9848580  28.3239667  20.0619174  60.9553498
  26.8416707  19.7960378  60.8034041  48.6486959  17.6525772  30.5041170
  48.6139727  17.2338414  31.3641691  49.0087938  18.5226989  30.6757283
  46.4958620  26.3832521   4.5623371  47.2380733  26.2133980   5.1424241
  46.8750763  26.8528223   3.8194144  11.5686449  70.5964369  62.9116040
  11.4033541  69.9133557  62.2617486  11.3602814  71.4134878  62.4585652
  45.9452248  37.5662518   9.6618599  45.7322407  37.3532319  10.5704248
  45.7451963  38.4988451   9.5812887  67.4073458  28.3055258  28.3771825
  67.3649740  27.3950982  28.6696815  66.8007278  28.7706614  28.9532876
  42.9763381  20.7183744  58.4211087  42.9360311  21.4266397  57.7784836
  42.9996602  21.1642362  59.2678058  48.3286540  39.2108632  62.4070114
  48.5085647  38.8957883  61.5212381  47.4191444  39.5075752  62.3755660
  19.3290266  48.0186892  21.2190819  19.5239100  48.6133623  21.9433856
  18.7245115  47.3770475  21.5920162   1.4689509  12.5705821  62.6501942
   0.7570569  12.2184188  63.1844378   1.0291497  13.0923564  61.9789553
  66.4633115  25.1870735  20.9926009  65.5787762  25.3501232  20.6651187
  66.8476374  24.5853908  20.3550291  11.2700813   6.2092210  43.3916241
  11.9889204   5.5775978  43.4151894  11.1484496   6.3990594  42.4613553
  15.5611197   4.8599155   3.9389232  16.0848967   4.1495473   3.5684258
  15.8049123   5.6301505   3.4255624   1.1956724  11.8005526  23.0804801
   1.2072786  12.5405800  22.4734735   2.1124872  11.6786695  23.3271122
  76.0559511  58.2756519  25.3967214  75.4035330  58.6582518  25.9834075
  76.4417839  57.5599051  25.9017682  58.7439156  34.8565722   4.2436001
  59.3431520  34.3482375   4.7901762  59.2999172  35.2245092   3.5567817
  73.0387910  21.5026672  35.9805250  73.0801089  22.3550041  35.5468798
  72.3879702  21.0105903  35.4800057  21.7602286  73.3238215  57.9382235
  21.1089453  73.7455434  58.4987670  22.5610623  73.8286227  58.0799144
   1.1525091  24.0113878   5.2763170   0.3242334  24.3660545   4.9532092
   1.3202128  24.4940257   6.0857409  73.5701513  62.3982811  45.9865952
  74.1576576  61.7760897  45.5577087  73.7299395  62.2728491  46.9219923
  16.3883035  15.0950630  20.8702397  15.6454198  15.0986106  20.2666354
  16.1642901  15.7517726  21.5296221  15.5309281  67.2420091  58.8909149
  15.0265726  67.7547759  59.5225215  16.4195713  67.5922483  58.9532023
  36.3133542  19.3495275  51.9771784  35.5117767  19.2557765  52.4918812
  36.6551034  18.4586049  51.9017118   6.8339762  36.4437985   4.3213424
   7.2370562  35.8990097   4.9973345   6.0862192  36.8524146   4.7573739
  56.4965884   6.9608451  32.7080708  56.5212791   7.5978042  33.4221488
  56.4665382   6.1105157  33.1465488   9.8501389  20.3152801  63.7364331
  10.6265943  19.7559739  63.7135261  10.0449555  20.9680988  64.4088191
  22.1368822  67.5623608   9.0841758  22.8850874  67.7287197   8.5108095
  22.0107874  66.6143370   9.0444213  19.0191397  58.0258465  19.6559083
  18.5977110  57.7668381  18.8364267  19.8661455  57.5802183  19.6409440
   8.9497026  21.8207669  24.0212393   9.5119986  22.5921464  23.9503527
   8.9907965  21.5786147  24.9463892   6.3639673  41.2806273  63.1140709
   5.4397615  41.0947561  62.9481411   6.4518961  42.2201633  62.9535246
  65.4885547  14.3192197  29.1066962  66.3350551  14.7441770  29.2448288
  65.7018916  13.3938886  28.9863568   3.7508775  12.0370294  54.6101302
   3.4490968  11.1763097  54.9005109   3.5615255  12.0532752  53.6719864
  49.1841571  39.5638801  46.3332957  48.6553828  38.7718202  46.2369770
  49.0238015  39.8510696  47.2322064  48.1760168  71.9179487  31.7163157
  48.8655376  72.4582720  32.1021199  48.6441135  71.1970282  31.2951422
  71.3286829  40.4944611  30.6798053  70.8105850  40.7439089  29.9145722
  71.7591953  39.6792746  30.4221940   0.7238611  59.9232578  10.3403330
   1.3562521  59.7526264  11.0383260  -0.0685087  59.4631767  10.6172979
  15.7318625  56.3869238  37.4011588  16.3161787  57.1418810  37.4707460
  16.3115152  55.6536198  37.1949840  42.6878040  18.7598802  42.6787191
  42.8218476  19.5308687  43.2299357  43.5554187  18.5649253  42.3245054
  56.5147114  47.6997662  11.7930329  55.7210779  48.1431961  11.4934468
  56.9907236  48.3679008  12.2862267   6.2606398  17.6762016  34.2723465
   6.7417161  17.4621589  33.4729815   6.7227666  18.4319980  34.6348977
  38.9798021  46.5678024   3.5534424  38.5284734  47.3581982   3.2571074
  39.8626065  46.8646431   3.7742898  65.8521048  10.0095661   8.9535743
  66.7618529   9.8533828   9.2069691  65.3393523   9.4765575   9.5611978
  22.9657857  31.6383077  61.8307808  23.2973306  30.7457973  61.7321017
  23.7227170  32.1435596  62.1274313  77.4031305  45.5501270  31.1063766
  77.5999451  45.0163603  31.8761754  78.1002712  45.3403902  30.4848957
  43.6480618  61.9468021   7.3591870  43.6846209  61.3375282   8.0965334
  44.5517349  62.2419262   7.2473192  63.4396124  59.2055178  24.4892788
  63.2519102  59.9159479  25.1027036  63.4467459  58.4166384  25.0313544
  68.1587267  66.5037394  36.4187407  67.9578495  66.4350510  35.4853797
  68.5626364  67.3663092  36.5139580  61.8383090  14.1996957  58.6822289
  62.1238963  13.4927179  58.1035620  61.3044421  14.7651388  58.1241148
   6.2866258  24.5737749   0.4227203   6.9026780  24.8799282   1.0882944
   5.6880974  23.9971024   0.8975262  18.9135472  16.6560180  35.9232569
  19.2304246  17.4074180  35.4220438  18.1229560  16.9747550  36.3586879
  20.0402848  71.3707842  12.7049387  20.8971517  71.3422142  12.2792685
  19.4354694  71.0234504  12.0493555   7.0885453  74.9303550  60.7499489
   6.1729559  75.0361580  60.4916215   7.0561728  74.3617362  61.5192717
   7.8017366  39.2182183  14.3393552   7.5652778  38.9533448  13.4504461
   8.0268461  38.3995509  14.7813284   8.6642775  25.2132034  11.4710367
   8.9092669  24.2878866  11.4729249   8.6612162  25.4582667  10.5457437
  16.9640934   0.5886922  18.9614928  17.8565764   0.4115841  18.6642754
  16.6061246  -0.2737648  19.1718686  26.0164008  22.7798695  46.2480706
  25.8551964  22.2460920  47.0260983  25.9082875  23.6818153  46.5497964
  70.3776312  29.7653574  52.1338683  70.7557631  29.7723222  51.2545508
  69.9838257  28.8970208  52.2183686  67.2992802  22.5362700  55.6790608
  67.1614981  23.4715933  55.5293327  66.6459227  22.3003334  56.3376128
  75.0872087  20.5307412   9.1663289  75.2699232  19.7634375   8.6240262
  74.1330194  20.5505753   9.2395329  10.9049813  59.2292755  27.8491282
  10.9896938  59.7744827  28.6313081  10.6813948  59.8449175  27.1511126
  73.5800982  37.4717838  22.9820734  73.6528445  36.5357719  23.1686789
  74.4532347  37.8204167  23.1618458  52.4640512   4.0330571  41.4534950
  52.9366255   3.2937723  41.0709190  52.1163225   4.5106393  40.7003498
  16.5162627  62.4832206  18.4144354  17.3416297  62.0285552  18.2462692
  16.5815417  62.7689259  19.3256664  62.6217239  41.9696610   2.7102882
  63.4433810  42.4253504   2.8931707  62.4845283  42.0909851   1.7707720
  69.9375534  31.2147230  62.5006291  69.1053629  31.5778232  62.8036932
  70.5960465  31.8402046  62.8029398  15.2624576  44.7614234   7.9905415
  16.1009280  44.3109148   8.0917490  15.3186052  45.5086248   8.5861641
  45.7001114   0.4666675   8.8590640  45.5189323   0.0512185   8.0159694
  46.3271809   1.1603104   8.6544335  25.8784263  75.1068207  17.0392680
  26.3525741  74.6858533  16.3221908  26.3917463  74.8994781  17.8201282
  79.5615530  33.9021749  56.0341048  79.8613262  34.7629062  56.3265246
  78.6317349  33.8827116  56.2605816  57.4076939  31.7846775  25.1305175
  56.7536020  32.3865342  24.7753119  57.3124743  31.8606114  26.0799384
  59.6408654  50.5781704  42.2335726  60.1478625  49.8413271  42.5745255
  58.7279296  50.3166610  42.3535448  17.9324643  74.4602211  15.9967220
  17.0802753  74.3610268  16.4211774  18.5588996  74.4848594  16.7200530
  65.8405447   3.8900700   3.6623770  65.9356403   4.8333675   3.5305515
  65.0850105   3.8044530   4.2438179  50.7656924  21.6371061  60.8456456
  50.7780187  22.4050523  61.4169031  50.4297368  21.9646026  60.0113123
   5.1290879  54.8879653  52.1904975   4.4710907  54.2107338  52.0335442
   5.0723252  55.4591650  51.4245075  22.9591322  55.7752037  30.8824658
  22.5495839  55.1257277  31.4540267  22.2351575  56.3311338  30.5943084
  34.0048663  16.2655116  61.4959192  33.4375255  16.3712789  62.2595727
  33.6315314  16.8511535  60.8372277  40.2986240  12.2892392   7.2385967
  40.3766203  11.6995466   6.4886558  39.6333957  12.9250836   6.9751394
  57.9691887  35.8087301   7.9684496  58.7583399  35.8661151   8.5071325
  57.3274755  36.3527942   8.4249866  55.0248718  25.9097743  17.7855563
  55.5902052  25.1509476  17.6412976  54.4343567  25.9151721  17.0322335
  48.6229849  52.6931858   8.7638271  47.9409361  53.2016611   9.2025661
  49.2134762  52.4264431   9.4683832  42.8757334  12.8610802  15.0028408
  42.4267912  13.4177375  15.6390905  42.2049761  12.2450531  14.7081792
  75.5228520  34.6241197  39.6848184  75.7405281  35.3849653  39.1463357
  75.1335144  34.0004137  39.0719253  74.6967602  16.5932870   3.2792792
  73.8970470  16.7644346   3.7766764  75.3930998  16.5988326   3.9360210
  13.5026106  32.9553449  60.6241381  12.5608525  33.0573824  60.4866084
  13.8838705  33.0510208  59.7513729  27.9063869  15.9168935  21.7002583
  26.9750285  15.7168233  21.7939258  28.0029178  16.1857152  20.7866669
  69.7978783  14.3979275  47.4720764  70.3871250  14.8883271  48.0452490
  69.8755789  14.8307705  46.6218758  18.1248841  66.0498017  49.6977705
  17.7055630  66.6537828  50.3106409  18.8496336  66.5517372  49.3249064
  67.1038771   9.4224876  44.5292431  67.1430826   8.9328522  43.7076884
  66.6730976   8.8271064  45.1425796  78.2037480  72.4487435   5.8052242
  79.0046700  72.5344010   5.2880996  77.5357755  72.8995438   5.2886760
  47.3365609  15.4588367  64.3957222  47.8454463  15.4418184  65.2062625
  46.9238918  14.5961715  64.3538473  72.9727507  42.2273254   8.5728210
  73.2315731  41.3781977   8.9308971  73.5722446  42.3712873   7.8406215
  77.3637820  56.9054073  57.0275873  77.5864888  56.0426253  57.3772156
  77.3911286  56.7931360  56.0773879  73.7810183   3.6010030  37.6961422
  74.3555307   3.3498737  36.9728851  73.6163902   4.5338342  37.5584602
  57.8980565  43.3002562  58.3616274  57.8024793  42.4572724  58.8048821
  57.4191857  43.1942928  57.5396263   2.8806224  36.9963050  16.1725092
   3.1337103  37.8256512  15.7670927   3.1625819  37.0791435  17.0834804
  79.0487003  24.7112083  15.0521898  79.9313927  24.8870826  14.7263801
  78.8080931  25.5038357  15.5318582  77.4268405   1.6762043  55.0755006
  77.5418632   2.0109989  54.1861671  78.0653636   0.9668781  55.1488471
  56.6771722  16.7192525  54.2267912  57.5171495  16.3956899  53.9012509
  56.7119599  16.5678376  55.1712990  39.4887957  53.0233139  64.6725088
  39.7161803  52.1599621  65.0176960  38.7470373  52.8605300  64.0898221
  10.7120149   7.0049240  34.3647605  10.8509533   6.7333032  33.4574848
  10.6391184   7.9583360  34.3208533  16.1620681  67.0249473   5.5161726
  15.3658788  66.4997136   5.5964249  16.7806594  66.4540939   5.0604284
  79.2166312   4.6010639  65.0474179  78.6679800   4.5058347  64.2688643
  78.6113675   4.8807098  65.7342145  18.2359537  30.3959012  18.6837506
  19.1328463  30.7145786  18.5824919  18.2215151  29.5657611  18.2074213
  47.6469104  55.1469367   4.8229307  48.0042426  56.0220044   4.6719378
  48.3093898  54.7062366   5.3550357  40.6666486  62.8593068  36.6495109
  40.1367252  62.3349862  37.2499275  41.5374391  62.8713792  37.0467663
  25.5071735   6.1950332  28.7034750  24.9906468   5.5082202  29.1250443
  24.9867725   6.4532584  27.9427290  40.6030703  49.7058725  13.6533046
  40.6113958  48.7489986  13.6297631  40.2389383  49.9211740  14.5119572
  69.3403196   3.7282896  16.7182696  69.9059916   3.0709606  17.1234405
  69.5063782   4.5278093  17.2176945   8.9357504  42.5161457   7.5096869
   8.3874640  41.9127893   7.0081168   9.8222765  42.1671343   7.4175048
  41.8484323  71.0070579   9.1861504  41.4007394  71.7763575   9.5382601
  41.2983768  70.7231062   8.4560549  41.3324308  44.5304537   4.5187011
  41.2412357  45.4148293   4.8733735  40.4991245  44.1046000   4.7199044
  31.3002729   4.2358893  51.4887667  32.0942688   3.9924717  51.0127974
  30.6276965   3.6445153  51.1509085   4.1253361  59.6328563  42.3234039
   3.8392910  60.3089828  41.7091876   3.3891997  59.5302886  42.9265767
   5.4362664  36.7493151  60.4415610   4.8262057  37.3342542  59.9922234
   6.0749659  37.3353768  60.8475467  67.7119160  33.4610376  63.2086432
  67.1902085  34.1581828  63.6061825  68.1468869  33.8808856  62.4665111
  71.1945096  14.9936938  23.5415626  70.9464220  14.9975979  24.4660449
  72.1233210  14.7623146  23.5438013  31.1562952  67.4129027  40.8117681
  30.4381403  66.9761604  40.3537994  31.0202917  68.3442229  40.6374842
  65.2947116  69.0907926  37.8737122  66.1394215  69.5386619  37.9196340
  65.1568723  68.7483162  38.7568551  31.4181249  60.7696395   4.8152041
  30.8761422  60.5253821   5.5654210  31.2450950  60.0903075   4.1634348
  44.6536128  41.8756049   3.2616130  44.3756787  42.0431655   4.1621169
  43.8654964  41.5543597   2.8235489  62.8225422   0.1473535  49.9331856
  62.2754097  -0.5533510  49.5783806  62.7742672   0.8438244  49.2783356
  58.7116885  59.5263070  47.0837074  59.5482540  59.4854874  47.5470954
  58.0713749  59.7364944  47.7634495  33.4983651   0.9638215  52.7097887
  33.3840148   1.7647149  52.1981960  32.7709357   0.9711005  53.3319050
  73.9593792  15.3093314  18.7577116  73.5743570  15.8107162  19.4764626
  74.7227383  15.8213103  18.4905100  76.0279370  20.0275916  60.1138150
  76.5449000  19.5259422  59.4834751  76.6489888  20.2552492  60.8056938
   3.4269127  73.9769000  50.5531615   4.1803631  74.5662040  50.5887753
   2.8510413  74.3639869  49.8937911  75.5729628   0.0239076  58.4651232
  76.3250923   0.6060782  58.5728502  74.9720097   0.2768190  59.1659260
  65.7836437  36.5019083  18.7791073  66.2445164  36.1115599  19.5217085
  66.2429667  36.1666989  18.0091143  49.9204063  25.0807953  14.1258836
  49.9381495  24.9344826  15.0716686  49.1841841  25.6771350  13.9895463
   2.5226530  36.9787979  44.8114395   2.2234472  37.0606661  43.9059019
   3.4243998  37.2994590  44.7956514  59.7485876   2.1407859  28.2258224
  58.9994669   1.5471907  28.1739092  60.2611017   1.8154894  28.9659190
   0.9908899   9.3837625  43.3985901   0.5335554   9.4910586  44.2325926
   0.4547342   9.8643333  42.7678633   6.9877085  12.8548521  43.6770969
   7.1753392  12.0764011  43.1526547   7.6684985  13.4804195  43.4292632
  28.2649279  37.2541046  17.7043104  28.2058358  36.3299656  17.4620175
  28.9885259  37.5939417  17.1778607  47.4672723  54.2807108  61.9172233
  47.1389604  54.0309936  62.7809846  47.3099470  55.2234227  61.8645450
  52.4721146  70.9130663  52.5065440  52.9118228  71.1904782  51.7028457
  51.7400408  70.3748507  52.2055036  45.1221466  12.1528518  22.4491096
  45.6997538  11.4159858  22.6481867  45.5302668  12.9014385  22.8841805
  70.9845734  12.5549138  31.1824656  70.1559019  12.8381574  31.5688634
  71.1593533  13.1963253  30.4937887   6.5864882  17.4823987  31.3829708
   6.8856749  17.6129961  30.4831600   6.3686403  18.3614409  31.6929078
  34.2799918   5.2198936  43.8267570  34.6697395   5.7146074  43.1059366
  34.4233958   5.7678224  44.5984059  35.1951027  16.4522016   6.8191040
  34.8658967  16.3860595   7.7154750  35.9319282  15.8419502   6.7889190
  46.4476633  15.5361211  -0.0160237  46.1824322  14.9477589   0.6908817
  47.3810005  15.6859291   0.1345353  36.6817777  71.7219685  19.8847282
  36.1726730  72.3961957  19.4347692  36.0561673  71.0149222  20.0426316
  45.5781078  14.5683753   9.6832657  45.6732321  14.9376452   8.8053000
  44.6685743  14.7480059   9.9214029  46.1690187  14.4473994  24.1861486
  45.6825113  15.1932967  23.8351846  47.0839453  14.6405566  23.9816141
  60.1374245  12.8293002   5.2018654  59.6095228  13.2405150   4.5174289
  59.4964504  12.4608660   5.8098483  73.7663174  47.6128340  40.5608559
  74.3535948  48.1964111  40.0804663  74.3081331  46.8545961  40.7793570
  12.4079451  16.2272495  63.5263543  13.0921254  15.5635041  63.6133940
  11.7367491  15.9633249  64.1556954  33.5776997  39.2375107  64.4380377
  33.4435493  38.3138076  64.6501884  33.7982637  39.2397480  63.5065989
  37.9469681   4.1895503  33.6504793  37.2319460   3.5919318  33.8691711
  37.7420163   4.4950062  32.7667785  17.2895734  59.9382870  29.4481468
  17.1426599  59.0362625  29.7327495  16.4339606  60.2335434  29.1367221
  73.3446169  43.6018705  15.5415690  73.1110573  43.8900900  16.4239573
  72.6164675  43.0421591  15.2718401  69.3491316  48.6395079  57.6675147
  68.6558008  49.0849644  58.1544381  69.9525643  49.3387550  57.4162096
   3.9520868  19.9047554   9.0123552   4.8308786  19.5271027   8.9757633
   3.5352167  19.6205926   8.1989038   7.4372570  74.1890941  50.2540588
   8.3176081  74.2017654  49.8784876   7.5007407  74.7432010  51.0319853
  27.9405451  25.2922177  25.1617122  28.0828524  26.1460233  25.5703616
  27.2722483  25.4538298  24.4957590  59.6373701   0.5016766  15.5070019
  59.9163294   1.3413620  15.1418400  59.6817112   0.6261922  16.4550328
   8.7759209   4.5877329  25.3178024   9.1535574   3.7132627  25.2233362
   8.7091875   4.7189111  26.2636209  10.5478987  10.8415222   9.3490249
  10.2918943  11.3948429  10.0869489  11.0453066  11.4235282   8.7744969
   4.4773659  47.5909674  55.6087029   4.5058665  47.5582338  54.6524876
   3.6501154  48.0289740  55.8088076  74.8583889  51.3648254  62.8899975
  75.3913927  51.8183929  63.5430023  74.7053290  52.0197684  62.2089296
  56.3019228  13.3054769   1.5072742  55.7513523  13.4474444   0.7372418
  55.7082081  12.9372919   2.1616250  13.0300269  58.2881612  62.4384439
  12.8037819  58.7762803  61.6467470  13.6029658  58.8782472  62.9281111
  30.9365401  72.0071358  59.5734972  31.5376314  72.5724238  59.0883541
  30.3045687  72.6098722  59.9653530  47.4078274   9.4237298  23.5139036
  46.9843006   8.7622702  22.9667974  46.8209600   9.5264387  24.2630816
  61.6142146   8.5150339  54.4732314  60.8680026   8.6686756  53.8937574
  61.2608974   8.6326457  55.3550291   2.9908881  42.6475185  62.4943897
   2.1395001  42.3750210  62.1521723   2.7876410  43.3539814  63.1074407
  38.3606689  15.6809141  46.1957234  37.5471418  16.0619403  45.8652431
  38.2796209  14.7453500  46.0102933   5.3356489  10.0166833  21.0865545
   5.5389055  10.9373045  21.2520099   5.8080896   9.5406127  21.7694831
  56.9389820  31.0282135   8.9710927  57.2860575  31.0644746   8.0797702
  56.5517521  31.8920660   9.1126662  49.1589865  59.9928421  55.2667701
  48.2819208  60.2911419  55.5075955  49.0794119  59.0410275  55.2039283
  67.6580238  54.1106129  23.9769125  66.9088745  53.6247301  24.3217707
  67.7599335  54.8503685  24.5757532  74.1014814  64.5047903  49.8587751
  73.6456299  65.3439665  49.9236727  74.5843410  64.5576668  49.0339851
   8.6472830   8.2371444  28.5179901   8.6909136   7.8537250  29.3939567
   9.2140612   7.6802379  27.9842758  76.1124754  60.9455061  16.1455643
  76.1065769  61.7589569  15.6410921  75.2528095  60.9179449  16.5656257
  51.6048861  45.2987003   4.7606775  52.1778965  45.4846811   4.0168384
  50.7338858  45.5622768   4.4638240  15.3566536  64.6483439  61.5109899
  15.0667748  63.7454480  61.6413018  15.4629931  64.7313518  60.5633431
  65.1500511  22.4651074  17.2377348  65.4237270  22.8171134  16.3907266
  64.1994715  22.5770497  17.2477818  73.7185812  62.5855226  54.5926612
  73.3631134  61.7012185  54.6814328  73.3667136  63.0617208  55.3447604
  59.9822903  29.5862865  11.6891038  60.2580118  29.3023300  10.8175671
  60.5853891  29.1445208  12.2868896  58.3628988  13.6764634  17.4719977
  57.8105354  14.3356180  17.0517063  57.7669859  12.9529023  17.6658618
   1.5477308  34.1155767  11.3875830   0.6699499  34.4702506  11.2463725
   1.5947184  33.3548951  10.8084595  77.2150524   6.6007425  59.4017911
  77.6221140   6.0294963  58.7504786  77.8651460   6.6679527  60.1011413
  32.3212402  14.9582530  54.2892092  31.8010347  15.3046991  53.5642308
  31.7569463  14.3008663  54.6962052  71.3621187  38.3296275  46.2552404
  71.4885521  37.5495005  46.7952824  71.4939117  38.0236673  45.3578806
  51.4833546   9.3390244   9.6235734  52.4176502   9.5172018   9.7311670
  51.0735941   9.7372323  10.3915298  16.5691790  59.6691036  14.3513346
  17.2631392  60.2626753  14.0644026  16.5158495  59.8026752  15.2976680
  71.0954189  14.2663801  14.0754139  71.2277842  13.7267387  13.2959926
  70.2331734  14.6623337  13.9489830  53.2531452  16.6229248   0.5295122
  53.2128763  16.5274918   1.4810914  52.8849983  17.4900770   0.3599711
  74.6394491  21.4922118  38.0798769  74.0723038  21.7246270  37.3446465
  75.2258253  20.8226085  37.7277064  54.8677969  26.2479281   9.4194561
  54.3968582  26.5521669   8.6436397  55.6806755  26.7533588   9.4197363
  76.1271382  72.2948379  51.0336584  75.6118346  72.4685043  50.2459210
  75.4793406  72.2388763  51.7361229   8.9048132  49.0177202  46.4670849
   8.9047274  49.3057775  47.3799133   9.1115412  49.8071718  45.9668255
  78.4205914  16.2096703  17.4073458  78.6969423  17.0123124  17.8496444
  77.4747086  16.3091564  17.2994626  57.4160958  64.1040033  51.7242735
  57.2000933  63.8011283  50.8423203  57.0592761  64.9911851  51.7669409
  68.1917000  70.0691480  43.5136705  68.0331421  70.2274627  44.4442755
  68.3720637  69.1307634  43.4576827   4.6493277  63.7968844  54.2264646
   5.4630885  63.4253162  54.5669943   4.1618714  64.0613336  55.0066465
  71.8510993  14.6027137  34.2154318  71.2414821  15.2257587  33.8199383
  71.2891491  13.9499427  34.6329671  13.7318866   4.0550710  14.5313555
  13.8546769   3.5799457  15.3531891  12.8802077   4.4815494  14.6262032
  37.6505916   1.5210487  42.8295642  37.4613492   1.2832714  41.9218856
  37.5969331   2.4766494  42.8430015  61.1950207  26.3179612  44.7791576
  60.3877258  25.9590220  45.1474953  60.9163809  26.7608666  43.9776421
  54.1066360  57.5161362   2.2054127  53.4473515  57.5795317   2.8964669
  53.6349106  57.1502829   1.4571783  77.8165388  36.6357183  27.4837065
  77.9240608  37.0119691  26.6101480  77.7045250  35.6978631  27.3284197
  61.8158182  67.8661174  53.0596441  62.2569689  68.6658448  52.7731973
  62.4028906  67.1594018  52.7910763  47.7655666   5.8630849  40.7052070
  47.9001157   6.0385085  39.7738892  48.2853191   6.5310670  41.1522895
  65.1288033  47.2794426  61.5138364  64.5947767  47.7576715  60.8795291
  66.0304690  47.4315214  61.2308141  56.3939579  14.1755779   9.0342146
  56.6621621  14.4315822   9.9166894  57.1443398  14.3961341   8.4823835
  68.5380220  66.2497520  27.0069051  69.2768478  66.2193632  27.6147270
  68.5547161  65.3998232  26.5669370  70.9924889  61.2405443  12.8807390
  70.9085798  60.4826260  13.4593177  70.1651716  61.7113638  12.9812682
  40.8780353  69.4850927  37.2100854  41.0814016  70.1434081  36.5456343
  40.0070302  69.1666626  36.9730496  19.8650869  68.0544567  15.6462216
  20.7252249  67.6429319  15.5623734  20.0200972  68.8239479  16.1940217
  12.8466742  38.4301568  58.3680206  12.4378674  37.6485301  58.7397259
  13.5879104  38.6107065  58.9461225  30.7423139   8.3495498  32.2989488
  29.9084258   7.9874098  31.9994235  31.1267710   7.6550001  32.8337622
  66.7311144  45.3157759  13.9823842  67.3773623  45.3457832  13.2769108
  67.0225096  45.9839916  14.6027136  60.6150770  59.3559074   0.5229359
  60.7022762  58.4069347   0.6128097  59.9439335  59.5963192   1.1616842
  19.0550074  60.4719728  63.8983840  18.3210167  61.0853142  63.9344290
  19.5281586  60.7112402  63.1014441  66.5389872  16.5230525   2.9496834
  67.2800541  16.4526141   2.3479441  66.6570377  15.7961416   3.5611540
  78.0796099  72.6825089  59.1709304  77.3743868  72.4924463  58.5522473
  77.9144526  72.0967120  59.9097115  13.1691734  55.8387821  29.4016600
  13.7202947  55.0563114  29.3863893  13.4896867  56.3717263  28.6740088
  66.3914490  22.4965191  43.1644058  66.4223623  21.6361690  43.5828209
  65.4906893  22.5782347  42.8510523  13.7500827  63.8156753   3.0311969
  13.5091130  64.0818541   3.9185029  14.4296281  64.4374972   2.7708292
  66.0717821  51.4255768  64.6527443  66.0777068  51.8580717  63.7988448
  66.9685173  51.5183455  64.9744400  59.7878981  31.1056209  24.3410611
  60.1089907  31.8401575  23.8180065  58.8659000  31.3088179  24.4987345
  20.9747045  10.2870036  61.0113212  21.5161388   9.5256378  61.2196606
  20.3255622  10.3187896  61.7140564  61.8383503  23.2932496   2.0179372
  61.0534620  23.7992096   2.2281444  61.8356323  22.5736666   2.6491454
  15.6809267  49.1667843  24.9686456  16.0275110  49.1870642  24.0766263
  14.8614725  48.6774302  24.8961425  76.0832739  22.0092678  28.6921167
  75.1597071  22.2426963  28.5985136  76.0862494  21.0526943  28.7265635
  70.0846529  15.4603004  18.7420750  70.6044054  15.7994211  19.4708347
  70.1658535  16.1264992  18.0595660  13.1253752  15.5297267   7.3833507
  12.6080164  14.7894228   7.7004033  13.9130434  15.5218649   7.9271847
  71.9801331   6.5309179   9.5651096  71.6862392   5.7348377   9.1222614
  71.3826132   6.6269475  10.3067172  10.6558260  32.5106192   1.3539457
  10.7528433  33.4552789   1.4741123  10.1778349  32.2182941   2.1300299
  16.8904369   2.7488090  43.7529880  16.4257447   2.1160127  43.2053929
  17.6981799   2.3007299  44.0039998   5.2985224  24.3355989  15.8199108
   4.6083197  23.7033153  15.6197155   5.0268587  25.1366186  15.3718090
  59.8586798  38.0379558  17.0878065  60.6676960  37.5311422  17.0180905
  59.2835236  37.6640320  16.4202654  19.0894715  -0.0436829  49.3025285
  18.9354865   0.6244470  48.6346048  19.8172347   0.2993299  49.8211139
  19.6140353   6.1145259  53.5902935  19.8922126   6.3717653  54.4693130
  19.2725436   5.2267457  53.6973542  66.8525410  34.4750643   9.8904306
  66.3359499  33.8418221   9.3920630  67.6516485  34.0022087  10.1229525
   3.0057280   1.7949320  44.3409806   3.1757967   2.5724269  44.8727756
   2.8796594   2.1338345  43.4547049   1.5102769  27.0935108  42.7060395
   1.1115838  26.9441463  43.5633403   2.4035932  27.3752500  42.9031473
  35.7214849  15.1966812  33.7409574  34.9384420  14.6493484  33.8001591
  36.3271730  14.8179389  34.3780809  76.7393398  28.2965183  33.5411286
  77.3021841  27.9987025  32.8264666  76.0049677  28.7275553  33.1039357
  46.8806140  11.5873052  57.8801286  46.5577809  12.3933221  57.4772078
  47.7437179  11.8197490  58.2225620  16.1768850  34.9400973  25.9915638
  15.4720816  34.6251488  26.5575051  16.6192087  34.1448116  25.6947422
  61.3719940   6.7513019  23.8095808  62.1812010   6.2871218  24.0239596
  61.1686373   7.2547621  24.5978761  58.7295151  19.2543590  30.7962942
  59.5493698  18.8060486  30.5887175  58.1839800  18.5803735  31.2017131
  53.2393408  23.1006360  17.9576123  53.6096764  23.8603568  18.4069550
  52.4381924  23.4302092  17.5504601  60.0015306  37.5419688  19.7662330
  60.8696318  37.1401381  19.7321594  59.8170185  37.7906990  18.8605165
  79.6737035  39.2456676  43.2025796  79.5756753  39.5451547  44.1064220
  78.8047321  39.3583871  42.8173357   3.3250650  62.9604197  24.6970415
   2.6995310  63.6819601  24.7628188   3.8413652  63.0169868  25.5010724
  36.8148017  34.1174006   8.3934128  37.2339845  34.0032911   9.2463470
  36.1439085  34.7834516   8.5434455   2.7453646  56.9283867  22.2912979
   2.8516993  56.3114023  23.0153513   1.9234308  56.6693926  21.8746710
  64.1510773  45.3537846  14.0855837  63.6908007  44.7404099  13.5127401
  65.0432253  45.3810120  13.7398028  22.1400277  13.6031152  38.5715991
  22.6107471  13.1239940  37.8896242  22.6516120  14.4019319  38.6996752
  27.8743808   4.4721557  57.2720057  28.1543462   3.7349273  57.8145373
  27.7384059   4.0926172  56.4038521  44.1431856  32.8499222   2.4579154
  43.8544703  32.4060893   1.6604894  43.3343124  33.1570816   2.8673178
  70.0930469  27.1307374  52.7009552  70.4890506  26.7883445  53.5023170
  69.7392909  26.3584663  52.2597199  42.7662978  68.6848206  45.2296704
  41.8495592  68.8930196  45.4098838  43.2397208  69.4912285  45.4341501
  33.4041087   5.5549003  56.4926052  33.2442157   4.7368623  56.0219854
  33.2161538   5.3455402  57.4075216  36.1602990  10.6194211  59.5156461
  35.6828515  10.8419372  60.3148728  35.9673659   9.6930171  59.3714624
  16.6801231  13.7890960  50.1407963  16.3431422  12.8976299  50.0515419
  16.7037074  14.1269876  49.2455286  80.0454521  68.2082558  29.8970914
  79.8449850  69.0672922  30.2687097  79.2327690  67.9361343  29.4707990
  57.2508812  45.9850168  15.5186355  56.8229580  46.8409491  15.5408490
  58.1054497  46.1546993  15.1222098  16.9707712  70.3522062  15.9879506
  17.0277056  70.9266663  16.7514849  17.1554121  70.9245825  15.2432823
   6.7230162  29.2088890  13.0145240   7.0687326  28.6607862  13.7190068
   7.3294767  29.9478984  12.9664516  74.7344875  35.0376463  23.2015443
  74.9015808  35.1170087  24.1406989  75.6025696  35.0742984  22.7998877
  69.1144705  62.8955746  18.2102907  69.8885202  62.4069548  17.9304194
  69.3915462  63.3470488  19.0075564  73.9601326  52.0228148   9.6965188
  74.2818975  51.3546848   9.0912938  74.6722603  52.1391773  10.3254616
   6.4054140  68.5360760  49.9412840   6.9996819  69.2087192  49.6086782
   5.6425366  69.0232009  50.2526670  67.0636702  53.5319090   7.1545559
  67.3319101  54.4462395   7.0635635  66.5744209  53.5065365   7.9768831
  51.3692665  27.4590039   4.8347414  50.6894398  26.7855215   4.8124841
  51.9412279  27.1982121   5.5566001   5.2425417  30.6751323  19.5993721
   4.3290743  30.6361699  19.3160164   5.7469305  30.4829049  18.8088822
  38.1660303  69.3069357  45.1321226  38.1727728  68.7314362  44.3672782
  37.5194868  68.9163608  45.7200581  33.4852616   8.7892677  48.7232274
  33.0574624   8.5483076  47.9015463  33.3812492   9.7392322  48.7778133
  72.1500635  60.4358816  50.7471275  72.3033428  60.1722002  49.8398161
  72.5551510  59.7435474  51.2694454  25.8794912  26.4317393  23.7051678
  25.2770933  26.9544482  23.1759071  25.9111151  25.5828643  23.2639837
  18.2154727   7.5566608  15.1300466  18.1137025   7.8973782  16.0187459
  17.3641241   7.1716523  14.9221873  33.6481977  -0.1562514  22.3253298
  32.7537942  -0.1224440  21.9860172  33.7946033   0.7116513  22.7015495
  28.6185984   5.3832538  46.6062069  28.6007859   5.1458461  47.5333261
  28.0097018   4.7725541  46.1908436  59.3670543  69.3819069   5.6409306
  60.1587375  69.2989515   5.1093382  58.8970406  70.1219820   5.2567333
  49.6590641   7.0880180  12.6217026  48.8785720   7.0424992  12.0694393
  49.7603855   8.0196148  12.8168625  78.7820616  24.9783808  19.8099417
  79.1962805  25.6198650  19.2327494  78.0910054  25.4682737  20.2556700
  25.1602030  44.4773769  62.0575285  25.1255298  44.6065569  63.0053377
  25.0547099  45.3557491  61.6920662  10.3518939  64.7753191  54.0582800
  11.0024202  64.5369816  53.3977938  10.7790303  64.5871782  54.8939753
  34.8966503  48.1560183  63.6191845  35.6127381  48.7196970  63.3264112
  35.2565765  47.2700739  63.5768700  35.6228484   3.7351091  52.9194498
  36.0278292   2.9001720  53.1541729  36.2437107   4.3966348  53.2246494
  73.5441986  39.6781445  47.8132725  74.1546485  40.2597666  47.3601723
  73.0780122  39.2256451  47.1103144  61.8493220  34.3968731   0.8503765
  62.5217953  33.7468821   0.6466049  61.9413844  35.0594669   0.1657433
  38.5086401   0.4783161  19.6723831  38.4121783  -0.1486581  20.3892040
  39.0283342   0.0139005  19.0162826  63.4317222  28.4783846   4.0339083
  63.2793954  28.5826736   3.0946774  63.8054493  27.6013761   4.1200108
  70.8575771  66.9547796  64.7416735  70.8666721  67.6442766  64.0777874
  70.2271906  67.2591734  65.3945065  65.1681855  35.9582621  14.9641508
  65.6212178  35.7047468  14.1599602  64.8008862  36.8206984  14.7704453
  21.5585923  63.1150579  36.6778255  20.9276199  62.9022455  35.9902096
  21.6231990  64.0698338  36.6564560   1.8060787  58.2661057  54.2710447
   0.9626688  57.8613710  54.0683651   1.6176443  59.2035818  54.3142557
  13.9507222  54.5608044  40.1359653  13.6721432  53.7583637  39.6947002
  14.8321664  54.3655872  40.4540491  66.7916909  36.7546183   8.1518168
  66.7033675  35.9628635   8.6824364  66.9516793  36.4319712   7.2649521
  42.9264005  18.2602222  60.5392981  43.3557089  19.0407188  60.8896589
  43.3871301  17.5286491  60.9501076   3.5825498  14.6782405  36.7962313
   3.6489303  15.2370174  37.5705624   3.0722673  15.1938922  36.1717820
  50.8032553  11.3727909   7.4805588  51.7499161  11.3701111   7.3389334
  50.6199667  10.5273205   7.8902096  76.6659299  27.9684311   1.6714758
  77.5605050  27.6279026   1.6741222  76.1349717  27.2494989   2.0141882
   8.4959406  44.5270538  30.4103351   8.5225189  45.4815722  30.4768038
   8.6717546  44.2200375  31.2997532  12.9846406  26.1808896  47.4271202
  13.2901514  25.9617567  48.3073902  12.0494807  26.3546157  47.5344849
  53.1348386  33.7046104  17.8312201  52.3177581  33.4163004  18.2380194
  53.6584624  34.0415913  18.5581869  23.9710283  62.3810768  37.4844050
  23.2177186  62.6462317  36.9567227  24.1447020  61.4784336  37.2173715
  75.0227219  52.3449373  59.3958139  74.6359268  51.4801455  59.2588377
  74.5389453  52.7089882  60.1372004  11.1529636  53.9170837  62.2266436
  11.3313985  54.8486090  62.3556805  10.7591295  53.6321878  63.0512428
  15.6972575  73.4094048  59.0575314  16.1765301  73.0621862  59.8098373
  16.2150621  74.1613436  58.7699604  40.4525852  55.6574488  27.2163248
  41.3294506  55.3828478  27.4845243  40.0073338  54.8428202  26.9831657
  78.8634515  74.2258358  62.5424194  78.5126623  74.5602512  63.3678532
  78.6205716  74.8865271  61.8937826  63.0003551  68.8417196  28.1290889
  62.4899116  69.3826103  27.5264955  63.6745718  68.4420061  27.5796437
  37.8553081  20.7343483  11.6662490  38.2711649  21.3211608  11.0346270
  38.2285285  20.9878397  12.5104535   1.0897772  36.2143993  36.3937092
   1.3241467  36.4590120  35.4984617   1.9199066  36.2254906  36.8701482
  63.6304573  26.6038060  46.1766481  62.7376893  26.6065264  45.8314085
  64.0760437  25.9153152  45.6830263  79.2489192  33.6712122  15.1238251
  78.9250957  33.7011027  16.0240901  80.0857815  34.1348219  15.1547921
   8.5501045  34.0574312  28.1347966   9.3953604  33.8435864  27.7397704
   7.9983765  34.3138123  27.3958135  62.7948860  35.7945323  47.3824072
  62.2639719  36.1562204  46.6727972  62.4491111  34.9117565  47.5142384
  18.5480024  73.4233092  10.5459303  18.4229375  74.2082618  10.0125975
  19.2846610  73.6375402  11.1183542  60.0239757  37.2118258  63.5501671
  60.6111470  37.6529741  64.1640472  60.6007698  36.6611552  63.0207300
  67.4855545  60.1477098   6.5254319  67.3312870  60.1855612   5.5815035
  66.7037168  60.5421734   6.9119060  73.3027831  35.9068894  38.8159204
  73.3994457  35.3043389  38.0784774  73.9388845  35.5991745  39.4616127
  52.3605672   9.5697629  49.4050980  52.4747983   9.7305906  50.3417492
  52.6243797   8.6575347  49.2847919  65.9846238  24.0863562  53.0437565
  66.1679569  24.7846127  53.6722946  66.0318747  24.5148945  52.1891499
  66.6333714  50.1706219  43.6356163  66.0721425  49.8628807  42.9238939
  67.4641374  49.7150230  43.4996319   8.8633239  17.7538311  25.6428194
   8.5787588  17.1335161  24.9716520   8.1743783  18.4180546  25.6626105
  61.4331658   2.9423721  51.0024786  60.5563219   3.3153255  50.9114647
  61.2844928   2.0628602  51.3497448  74.5266065  59.9710655  59.3914175
  73.7320569  59.4805145  59.6018553  75.1993624  59.2997932  59.2772961
  18.1170464  62.2571898  32.4973297  18.1806636  63.1553984  32.1726561
  17.1766019  62.0964718  32.5745606  16.2465377  28.3263214  54.7684193
  16.4897545  28.7139232  55.6091595  15.3141673  28.5218818  54.6752930
  25.7277227   3.6915548  39.1647673  26.6531834   3.8482864  39.3523574
  25.6795872   2.7576787  38.9603543  64.0516988  69.8094606  30.6215262
  64.9262360  69.9457693  30.2570558  63.5410670  69.4560337  29.8931193
  22.9813313  66.2258530  63.7500477  23.1950688  65.6762695  64.5040369
  23.5037684  67.0180655  63.8753271  55.7919693  65.1799250  35.9050202
  56.0777569  65.7069063  35.1587987  54.9509335  64.8137331  35.6315446
  73.3177367  26.5950685  12.5693554  74.1159263  26.8275457  13.0437750
  73.0133954  25.7918316  12.9917568  15.7267606  48.8783884  50.4618597
  16.0211849  48.9241505  49.5522165  15.0373936  49.5395565  50.5240250
  69.7946462  36.8623018  58.2819366  68.9225880  37.2305727  58.1400824
  69.6571222  35.9150338  58.2843208  16.8913889  52.1880102  63.3600712
  17.1134615  51.6439152  64.1156340  15.9648764  52.3967886  63.4793043
   6.9703615  35.5965137  40.2561140   7.5880820  35.4899454  40.9795094
   6.1080652  35.5583692  40.6699038   5.0631177  53.0214643  48.1098557
   5.4281205  53.9061975  48.1258297   4.8982301  52.8137541  49.0295839
  18.2153642  61.7190266  39.3568802  19.1673076  61.7631435  39.4468212
  18.0476022  61.9852495  38.4528828  52.8574260  22.7822978  54.5999050
  53.7706597  23.0622203  54.5376205  52.4425609  23.4407527  55.1571798
  63.6360362  45.2909613  44.5917940  64.4065717  45.3794336  44.0308332
  63.5830441  46.1246157  45.0591755   4.0075696  60.5722761  19.8824811
   4.9308395  60.7474470  20.0644684   3.6621156  60.2284098  20.7062840
   3.4324640  24.0401912  53.5215521   3.6307919  23.1038213  53.5320282
   2.5020304  24.0904117  53.7406492   7.2504349   8.3683689  63.8512325
   6.6417439   8.4901054  63.1226015   7.8808554   7.7229984  63.5314083
  44.8264964  20.8362491  16.3568997  44.8269315  19.9125488  16.1059117
  45.5381818  20.9120757  16.9924986  24.1201186  37.2517300  61.9692612
  24.5189905  36.8087649  62.7182007  23.4218001  36.6615319  61.6859818
   7.2532147  51.5010071  46.8490458   6.4622319  51.9346666  47.1692276
   7.5590295  52.0584297  46.1335135   9.7691822  31.2396336  59.6857929
   8.9524025  31.0046315  59.2454767  10.3087747  30.4512596  59.6262884
  47.9690072  19.1158062  28.1671423  47.8939125  18.5362822  28.9252562
  47.5153199  18.6506897  27.4642462  37.9040003  43.2421827  61.8151188
  38.7129331  42.7623558  61.6372824  38.0889225  44.1372013  61.5305567
  66.7518929  39.8256207  41.3700724  67.1027389  40.6716156  41.6483402
  66.5333668  39.3766403  42.1867085  21.2723804  63.3700800  50.9042120
  20.3571749  63.4206963  51.1800241  21.7101645  62.8977108  51.6123390
  59.8533073  58.2207394  28.2287312  60.5974880  57.6202631  28.1856585
  59.2986217  57.9680443  27.4906921  38.1297417  11.1093719  13.0307448
  37.6678295  11.0758693  13.8684475  38.1580742  10.1990230  12.7362883
  10.1550861   2.1827609  44.7075605   9.6433266   1.4148099  44.9617004
   9.8188813   2.4192722  43.8431168   1.8158557  44.1046333  38.1729102
   1.4621201  44.8195076  38.7021136   2.0954040  44.5244837  37.3593950
  74.5706609  71.9072962  53.4143972  73.9170900  72.4817085  53.8133097
  75.4077176  72.2263193  53.7517309   4.6227220  52.7328920  55.5892849
   4.6802229  53.4579849  56.2115192   5.3709322  52.1749973  55.8018112
  14.2409086  32.4828058  18.7175936  15.0899410  32.1904713  19.0491194
  14.1910362  32.1194893  17.8334230   2.0063654  46.0642343  21.2903208
   1.2205902  45.6547361  21.6523928   2.7260938  45.5102735  21.5925497
  29.6709061  41.0204124  26.7057800  28.8578773  40.5862570  26.9640875
  29.5843816  41.9116974  27.0439410  43.5355815  55.9875399   9.8210377
  43.7132034  56.4812475   9.0204567  43.9999327  55.1593595   9.6996969
   8.4009343  64.7023869  48.6893225   8.7195140  63.9761114  49.2252874
   8.0791241  65.3441191  49.3224525  18.8128646  34.8506833  63.8597150
  19.4868930  34.1788675  63.9625609  18.2084830  34.6967269  64.5858356
  23.2707238  58.9829588  59.9073362  23.9622307  59.3777227  59.3761015
  22.4666882  59.4069529  59.6073580  20.1016736  63.7162685  48.3766890
  19.1937947  64.0192699  48.3899879  20.4590821  63.9935064  49.2202711
  50.2760084   1.2687118  32.2034836  50.2397068   1.2400253  31.2474012
  49.3601163   1.3222129  32.4764466   6.0990584  40.7069016  47.6191998
   6.3491917  40.0812435  48.2990694   5.1438445  40.7445049  47.6680326
  61.7911020  56.4604902  33.3259368  61.6165999  55.7910109  32.6644397
  60.9505692  56.9020748  33.4473300  24.1686797  67.0469904  49.1778660
  23.6974335  67.8265047  48.8837337  25.0458503  67.1432257  48.8069963
   0.9122331  24.7426748  40.8143759   0.0666260  24.4890594  41.1843252
   1.2362194  25.4246497  41.4027452  75.9126285  41.9032145  32.7061844
  75.8758793  42.0056581  33.6571765  75.0831226  41.4834452  32.4782729
  22.2087264  51.9742966   6.5261567  22.0899510  52.5432301   5.7656050
  21.8024111  52.4526405   7.2488785  47.2689660  15.6633861  59.6849298
  47.1143611  15.2486427  58.8362169  46.3947780  15.7819087  60.0563860
   2.7485693  60.8397245  37.2666717   2.5944194  61.1214495  36.3649511
   3.6644906  61.0619783  37.4337792   8.9102107  43.5743380  59.8881483
   9.4902694  44.2110014  59.4705057   8.1582677  44.0902233  60.1791430
  17.4177481   1.5570075  39.4363809  18.0563910   1.6767938  38.7335181
  17.5600792   2.3029954  40.0190258   1.4007872  50.5083323  60.2763653
   2.0328708  51.0273027  59.7790003   1.0122757  49.9196243  59.6292830
  39.0886739  38.4659534  12.2055620  39.1370741  38.8258749  13.0911917
  38.9049378  39.2228323  11.6491407  74.8329637  16.7932367  36.7640328
  75.7102406  16.6723859  36.4006972  74.2465744  16.6845798  36.0153198
  31.9111887  17.8513819  15.9722513  31.5768233  18.6589247  15.5819792
  31.1997691  17.5445801  16.5343756  27.2649026  71.1241484   5.1605487
  27.0588851  71.3948202   6.0552686  28.1469393  71.4619541   5.0052130
   4.0354672  74.5402002  39.5763421   4.3538654  75.4127598  39.8076177
   4.1223294  74.0319967  40.3828239  34.7917452  10.1540285   2.9673523
  34.9699762  10.5923086   2.1352619  34.1179648  10.6926447   3.3822578
  47.4004415  18.6327654  25.1026720  47.3413894  18.8339144  24.1687101
  48.3290803  18.4542519  25.2509779  59.1536185  22.5932747  36.8204969
  58.9257351  23.5227209  36.7998976  58.6929438  22.2506386  37.5864023
  17.5876486  50.7489443  26.6521478  17.5943089  50.2780676  27.4854946
  17.0005536  50.2392864  26.0937548   9.7359264  66.4821148  36.4817071
   9.3103135  67.2003984  36.9498444   9.0153098  65.9155369  36.2061453
  75.7416916  64.7557259  33.1365418  75.1769308  64.2133045  33.6870456
  75.3972864  64.6384287  32.2511840  66.9195429  41.3266563  45.3930473
  67.5105551  40.6731844  45.0190020  66.2998358  41.5197039  44.6895361
  59.9797240  39.0800959   5.9175819  59.1240421  38.6882359   5.7429832
  59.8696920  39.5328766   6.7537111  22.1829009  50.5461550   9.9145174
  21.8819499  51.4543724   9.8862511  21.5890312  50.1160908  10.5298173
  12.6535046  61.1372709  60.1206064  12.8837156  61.7750025  59.4449329
  12.7010775  60.2904701  59.6768761   5.0782228  63.3610344  34.4980025
   5.5871773  62.6003456  34.2177367   4.6645635  63.6810303  33.6963034
  12.4456942  20.0917387   2.2637971  12.6213205  19.1521466   2.2132646
  11.8745565  20.2691770   1.5164354  15.1352882  65.4047203  48.4233475
  15.4213023  64.5566082  48.7626648  15.5819774  66.0465479  48.9753962
   5.8129799  43.4356594  54.6274948   5.5967849  42.5130653  54.4921589
   4.9646649  43.8695669  54.7186899  15.8849342  51.5151559  11.4329094
  16.4968307  51.6448818  10.7083506  15.2283700  52.2021161  11.3178438
  35.8057284  55.0594282  15.8280993  35.8391023  54.2050934  16.2584794
  36.1897898  55.6630993  16.4639521  35.8746386  56.8630075  55.2147865
  35.8123159  57.4711800  55.9513140  35.0513697  56.9767809  54.7399044
  53.3591643  36.8535757  53.5598993  53.1247750  36.4347315  52.7317286
  52.5736156  37.3378277  53.8141489  41.6404589  20.2631481  50.5492401
  41.0555752  19.5082862  50.4834127  41.3009317  20.7653339  51.2900209
  10.5319035  72.4061871  57.1968889  11.4076006  72.7732849  57.0759439
  10.1315618  72.4505901  56.3285637   1.6330123  22.5325018   7.8204769
   1.4278722  22.2763639   8.7196678   1.9183492  23.4435278   7.8901190
  42.0029505   8.4075744  60.7536125  41.1813934   7.9222782  60.8295250
  42.5379129   8.0880077  61.4801931  60.6382401  12.1059043  46.5583754
  60.7199867  12.8395564  45.9490299  61.4823230  12.0732887  47.0085907
  66.6931787  72.2109985  23.0537438  66.8913654  72.6541758  22.2287917
  66.2229792  72.8654671  23.5702825  55.1611336  18.7811191  56.0804749
  55.8609350  18.7749297  55.4274225  54.3921979  18.4583289  55.6106091
   6.3079703  56.0735703  20.4833817   6.4755833  56.2757349  21.4038515
   6.5101635  55.1415014  20.4022050  10.1254714  64.4350624  33.9089131
   9.2531061  64.8112535  34.0259266  10.3149867  64.0056324  34.7431231
  41.2740500  16.6271503  43.6463070  41.5327485  17.4812705  43.3002138
  41.9931014  16.3758380  44.2259932  36.0612646  23.5478645  14.0000147
  36.3760391  22.6497847  14.1029591  36.6774741  24.0771633  14.5063395
  50.5762847  11.0191448  26.2924123  49.7924097  10.9508998  26.8374944
  51.2728770  11.2588508  26.9035888  22.9444909  66.3815975  30.0045943
  23.7777472  66.2542009  30.4581237  22.5027275  67.0685959  30.5037045
  55.0659910  54.7693634  57.5723696  54.7095290  55.6556034  57.6335764
  55.8242527  54.7753143  58.1565189  20.6142306  74.1918373  49.0161705
  21.1053205  74.5862150  48.2953882  19.7241056  74.0985680  48.6767435
   7.2952957   1.8963392  23.0354977   6.7401297   1.5761859  22.3244929
   7.9962023   2.3764140  22.5944901  22.3531342  60.5003881  55.3728580
  23.2460546  60.4637718  55.0299549  22.3310232  61.3000584  55.8984709
  49.5890291  10.0443561  49.6008301  49.3591125   9.2834575  50.1341295
  50.5429681  10.0082214  49.5306540  29.5211625  52.1597290  33.9768314
  30.2538228  52.4068165  34.5410895  29.7181630  52.5703478  33.1349206
   8.0224413  21.8167472  39.0394688   8.3041859  20.9431696  38.7679648
   7.0749420  21.8158460  38.9035416  73.6740914  31.1257243  19.1576242
  73.5105971  32.0467877  18.9547861  74.0863511  31.1402106  20.0213742
  25.4299704  59.4901609  12.5572813  25.1916471  58.6224079  12.2310340
  26.3857141  59.4731092  12.6072001  73.3872822  60.4849625  37.3901129
  73.0139456  59.8219109  37.9708147  73.9778677  59.9961948  36.8169236
  17.7815850   4.1624791  40.6676960  18.3233930   4.4506986  41.4022779
  18.3630820   4.2082269  39.9087501   4.7489014  32.7806449  54.7976398
   4.0064687  32.4036455  54.3255186   5.0953120  33.4481525  54.2054653
  24.1287112  36.8203115  58.6885691  24.2446518  37.2287679  59.5464468
  24.4221616  35.9175324  58.8115072   4.4444063  29.1706181  32.8057551
   3.9408258  29.7295094  32.2139096   5.2398062  29.6707487  32.9886246
  38.4391117  62.6570415  26.5182495  39.2074776  62.3619986  26.0295844
  38.6365461  63.5645580  26.7499161   1.5531993  68.4841013  39.3225908
   2.0889731  67.9929304  39.9454308   2.1335872  68.6389112  38.5773277
  56.9626951  16.1317211  21.4689154  57.3016202  15.4637581  20.8729357
  56.6063559  16.8080765  20.8928865  68.4857276  38.3918214  50.0116587
  68.9093307  38.1151342  49.1991091  67.8565410  37.6962090  50.2026653
  77.2937221  45.5799675  34.5504999  77.2636487  46.3339663  35.1394057
  77.1477452  44.8249292  35.1204515  38.9667816   8.2017906  59.7274113
  38.6153252   7.6799877  60.4488277  39.4238777   7.5683696  59.1741610
   0.5430811  16.7374313  61.6066027  -0.2640470  17.2511458  61.6361618
   1.0766082  17.0883811  62.3196363  13.3052802  45.7841301  45.7573986
  13.7959635  45.1358032  46.2625027  13.3877587  46.5933180  46.2620211
  15.7700288  34.0620399  41.2820435  15.1100028  34.1073179  40.5902719
  15.7970977  33.1371331  41.5270901  65.6230286  42.3367697  47.7837652
  66.0565344  42.8975969  47.1405119  65.8886662  41.4487225  47.5449366
  49.3209860  37.4830776  10.4821676  48.6817843  38.1392055  10.7599205
  48.9926079  36.6602903  10.8446926  48.9534147  11.8888385  45.3513908
  48.4670933  11.1647899  45.7457018  48.5584505  11.9997890  44.4865656
  13.6386204  29.2885733  54.2641115  13.1447995  28.6977625  53.6955023
  12.9825616  29.6533751  54.8580265  18.4297955  36.6229773  38.8727403
  18.4458268  35.6965995  39.1131520  18.1372511  37.0713234  39.6662354
  13.3033581   1.4395864  57.4952030  14.1547175   1.1524827  57.1650600
  13.4681888   2.3099954  57.8577614   7.9053259  35.6041789  25.5034137
   7.8027374  34.7008157  25.2040148   8.0235612  36.1108279  24.6999454
  47.5876100  11.9205482  42.9200077  47.8090437  11.5303810  42.0744514
  46.7040165  12.2682865  42.7992916  40.9772444  49.0523434   6.3244647
  41.8056250  49.2563057   6.7585379  40.5665970  49.9047375   6.1794591
   9.0441757  64.9837303  57.2062492   9.9788505  64.9829054  56.9998169
   8.9612174  65.5942583  57.9387808  67.3270169  43.1446653   6.5629047
  66.7904797  42.3757368   6.3702721  67.0531848  43.4142691   7.4395842
  10.4312515  41.8479013  20.1103115  11.2115729  41.2988138  20.1867032
  10.7712185  42.7410650  20.0563884  53.2628262  15.3542238   3.1341738
  53.5105177  16.2291962   3.4330076  53.6558278  14.7619825   3.7752956
  25.8128071  47.0669031  56.0878563  25.5295897  46.9107342  56.9887638
  25.0177860  47.3417568  55.6310940  27.8742790  53.7237167  18.0911410
  26.9188213  53.6933565  18.0420125  28.0669880  53.6939335  19.0282691
  15.7466805  31.4846754  38.8351059  15.5226612  30.7914066  39.4559312
  15.0453246  32.1288276  38.9320636   9.4000965  45.9256363  52.8644276
   9.1147786  46.8128586  53.0827332   9.8143762  45.6034851  53.6649418
  65.3084818  68.4152794  50.9667492  64.5095757  68.8135672  51.3122177
  65.9899620  69.0682507  51.1262655  44.3929741  30.0816351   7.3685450
  44.5172200  30.9048325   7.8409237  44.4221917  30.3290707   6.4443392
  12.4466550  30.8365393  13.2189381  11.7666733  31.4680076  12.9841936
  12.0287132  30.2618265  13.8602340  18.3585632  29.0215397  21.0384345
  18.1897366  29.5226741  20.2405667  19.1235912  28.4862399  20.8276820
  12.6030231  48.6370802  30.5547142  12.2460318  49.2465925  29.9087381
  12.6522338  47.8001738  30.0927615  72.7058104  41.6489363  36.6939950
  72.2433672  42.2878075  37.2364163  73.4326384  41.3515425  37.2412705
   7.6251596  43.8157845  52.5864029   8.2348418  44.5440674  52.7052498
   7.0801985  43.8288021  53.3732224  32.3658133  66.1906338  47.7885151
  32.7689815  65.3231668  47.8229618  32.2628498  66.3699532  46.8539143
  74.6837715  37.0161557  28.2878208  75.6194315  37.0423985  28.0876136
  74.5537451  37.7246904  28.9181399  20.3331208  35.0030589  20.0384879
  20.9840012  34.3108654  19.9224877  20.8242130  35.8160043  19.9194145
  73.4754784   3.8449342  59.7109509  73.0710299   3.2393939  60.3322172
  73.0439694   3.6566837  58.8775253  12.9994142  59.5764160  17.5214148
  12.5010204  59.6831417  18.3316290  12.4967706  60.0596333  16.8656075
  12.0420420  71.6860533  31.3339806  11.8058002  72.5710583  31.6118121
  11.2215793  71.3069391  31.0187888  29.8659717   9.1454608  61.5203524
  29.5992155   9.7946746  62.1711874  30.1694883   8.3990486  62.0370531
  76.7421210  44.7014618  47.0470285  76.0852781  44.9285841  47.7052116
  77.5123781  44.4470644  47.5551748   5.7250291  49.0573502  46.8894529
   5.2886814  49.3428516  47.6921463   6.3175583  49.7764206  46.6701794
  13.1210637  47.7159452  40.3337860  12.7889740  47.1168089  39.6652198
  13.3682334  47.1475983  41.0632515  39.8238277  62.8074366  13.8563818
  39.6886682  63.5821062  13.3106274  39.0944624  62.8208452  14.4761271
  17.6505828  46.2993670  27.6744986  17.1866095  45.7155323  27.0744157
  18.4260726  45.8043003  27.9386115  76.9024629  71.9972754  37.1060705
  77.3038465  72.3576450  37.8968024  77.6422686  71.7891455  36.5354562
  61.1979392  70.5883408  50.9744406  60.4152528  70.7892561  51.4875364
  61.1542169  69.6429443  50.8311129  22.6772499  62.0010614  52.9115820
  23.6229682  62.1365452  52.8524780  22.5837159  61.1319876  53.3017063
  40.8073910  23.0789192  18.5206676  41.1996992  23.4619529  19.3052781
  40.3306229  23.8023193  18.1137073  10.5060275  18.6381347  31.8402123
  10.0825281  17.7931983  31.6886854  10.3809483  18.8046176  32.7744889
  69.8239562  72.8497982   1.9950859  70.6565234  73.0583286   2.4188544
  69.4098249  72.2152519   2.5799638  35.3052783  69.5075178  20.2424359
  34.4680738  69.3720388  20.6862426  35.7958722  68.7019157  20.4053974
  23.5714269  50.7402325  27.1881104  23.0695486  50.9556293  27.9742122
  24.3603039  51.2785053  27.2526264  67.4137099  14.4169338  15.8521891
  67.7290328  13.7443740  15.2484798  66.4605530  14.3840892  15.7706904
  59.5265277  12.7610595  62.0150042  60.2791126  13.1608779  62.4508858
  58.7804826  13.2956416  62.2867918   9.4396967  70.8169508  49.4937134
   8.5226905  71.0602093  49.6208286   9.8048317  71.5268993  48.9656210
   8.7128741  56.7873096  18.6455309   8.7138498  57.5038195  19.2802310
   7.9386932  56.2705803  18.8688433  57.9020746   1.0051305  50.9690189
  57.9696305   0.2108867  50.4390717  57.6195247   1.6809089  50.3528023
  69.3139883  24.7834970  51.4174705  68.7374004  24.2523147  51.9666725
  68.9732595  24.6678687  50.5304724  37.7626395  66.4046288  63.9568663
  37.1714163  66.4057493  64.7096539  37.1872306  66.2899351  63.2005739
  32.1307063  75.3019524  64.3139839  32.9802155  74.8657799  64.3797207
  31.5195513  74.6024275  64.0829182  46.3116280  62.2205257   6.1265963
  47.2280661  62.4899292   6.0649765  46.3179627  61.2934828   5.8882999
  55.0909081  44.1369724  12.9354596  55.2085367  44.7843361  12.2402477
  54.1723457  43.8765287  12.8672957  45.6624682  34.0052802  44.4086313
  45.9442349  34.2928607  45.2770376  45.7976539  34.7691162  43.8478136
  11.6716719  48.6753511  44.1106224  11.1312640  47.9440928  43.8115406
  11.7999411  49.2135429  43.3295155  73.1983325  72.7573490  47.6262331
  72.8257707  73.0278111  46.7870188  72.9190037  73.4350300  48.2418251
  11.6260886  50.6470823  50.0826216  12.3720717  50.9445286  49.5617867
  10.9072173  51.2228727  49.8220015  77.3583396  35.7502563  31.1203241
  77.8438838  36.3383396  30.5418444  77.5149567  34.8771865  30.7605338
  62.9640225  23.0703789  12.7841038  62.1806797  23.4999042  13.1277842
  62.8680047  23.1224018  11.8331570  11.5274680  47.1487284  34.5464802
  11.5549266  46.7558956  35.4189229  11.3734746  46.4109755  33.9563608
  64.4077952   3.0628497  28.7708831  64.8934419   2.3008735  28.4550190
  64.9745639   3.4478862  29.4392776  38.6707671   8.2947261  52.4806309
  39.2516454   7.6808841  52.9300833  39.2133744   9.0677841  52.3250771
  76.1161366  39.2893606  19.9677938  76.2743464  39.6743065  20.8297724
  76.9900695  39.1581398  19.6000189  47.2165203  67.4141264  57.3591232
  47.8319693  67.8082895  57.9772568  47.6834202  66.6566181  57.0063925
  74.8898681  12.3550708  22.8505063  75.7808383  12.2064216  22.5337839
  74.6129830  11.5056617  23.1941128  78.1898728  41.6664272  31.4391607
  77.2420922  41.6163927  31.5634150  78.5443488  41.7352348  32.3256392
  28.5859060  60.7123947  32.4463367  27.7909040  60.3711891  32.8559542
  29.0236521  59.9385691  32.0916510  20.4416370  55.0492287  34.7113800
  19.9695408  55.7773638  34.3074226  20.9772325  55.4586220  35.3909135
  32.5520587  62.1731901  57.3606586  33.0966258  61.4564180  57.6861000
  32.7024126  62.8880930  57.9791546  60.1392797  16.0317808  16.6047663
  59.9910006  16.1857277  17.5377935  59.6768466  15.2142149  16.4204592
  50.9656952  50.6840425  10.0876421  50.6822510  49.8202044   9.7881836
  51.3848385  51.0772711   9.3221849  24.1653033   1.5478427  20.3343105
  24.9847277   1.6720302  20.8132195  23.4825765   1.6488082  20.9975767
  60.0772984   5.1225955  29.7784090  60.3880532   4.2173154  29.7900128
  59.6139224   5.2060993  28.9450169   9.2669280  20.8779914   8.3091980
   9.0453775  20.0049789   7.9851592   8.8933845  21.4757640   7.6616138
  48.5490227  57.7398872  41.1440563  48.8165092  56.8659592  40.8595657
  49.3617868  58.1588364  41.4271307  44.8688181  18.7827785  58.0468035
  45.7291301  18.9727790  58.4209585  44.2688067  19.3578822  58.5216379
  24.1587782  17.7682072   1.2856764  24.0231895  17.9022795   0.3476614
  23.3803129  18.1444317   1.6963858  65.9110792  12.0409782  27.9201555
  65.0901873  11.5538032  27.8492308  66.1743768  12.1998794  27.0137024
  25.6622815  71.6424608  64.3719006  24.8358583  71.9209194  64.7665119
  26.0949945  71.1327076  65.0568390  53.0114038  15.0562675  62.6624155
  52.1890004  15.5283553  62.7928829  52.7694018  14.1321857  62.7234697
  54.3164936  60.0136137  30.2734256  54.5737544  60.5367565  31.0326171
  55.1409951  59.6718216  29.9275756  39.5004368  60.8848286  43.3061123
  39.9372911  61.0644150  44.1386604  39.4559455  59.9297714  43.2601023
  53.7690631  60.1513720  20.5927920  54.6817938  60.4214287  20.6938839
  53.2847753  60.7124949  21.1984658   8.5424459  49.4368124  55.3202105
   9.4053280  49.2767715  55.7023811   7.9424280  49.4143534  56.0656691
  24.6326204  10.2804382  28.7228584  23.7233613  10.0188644  28.5777426
  25.0730614  10.0846870  27.8958607   3.8223135  68.3664227  21.6980314
   4.6168900  68.5831261  21.2102604   3.8764945  67.4207973  21.8361950
  66.9207366  36.5291597  60.6451395  66.4481230  36.3101388  59.8420840
  66.4126464  36.1149217  61.3426232  26.1399531  69.3398380  22.2930312
  26.2191343  69.3836927  21.3401198  27.0431685  69.2935276  22.6065397
  34.6370228  11.1444003  19.1950333  34.2948796  10.5055625  18.5696852
  34.0534909  11.8984516  19.1105986  25.2156018   9.1461093  42.2654009
  24.5514365   9.7467811  42.6035118  25.9967815   9.3356807  42.7850676
  11.5199693   0.1799877  28.1402946  12.0371254   0.9821517  28.0674291
  11.4980395  -0.0064175  29.0789127  53.4804932  72.1278620  46.6930914
  52.8073874  72.7365541  46.3886976  52.9900280  71.3896275  47.0545912
  76.9202587  63.4815073  44.2442799  76.6451785  62.9053831  44.9574709
  77.0844224  62.8909492  43.5090780  55.6477244   9.1739948  48.4988737
  55.6219919  10.0334747  48.0783176  55.9759958   8.5847576  47.8197098
  31.5986671  17.5564010  44.6901035  32.2489758  17.2168357  44.0752649
  31.2097161  16.7750556  45.0831079  37.3764825  68.9696217  40.7802534
  37.5954366  69.0572357  41.7079449  37.3513627  68.0248976  40.6282711
  23.1568623  64.6068668  48.9503288  23.0216861  64.4292736  49.8811436
  23.6162639  65.4463959  48.9309216  10.3670740  56.6450453   9.1441375
  10.5565417  56.0303640   8.4352660   9.4746333  56.4301062   9.4154000
  41.5963984  66.5324354  33.5577440  40.8890915  66.8768215  33.0124497
  42.0988131  67.3055744  33.8147783  42.3589714  67.0477627   5.2763838
  41.4933105  67.3180698   5.5826468  42.4886377  67.5360345   4.4633621
  76.0830012  42.4755579  23.9078135  76.5471497  42.2093683  24.7014994
  75.1584473  42.4627214  24.1553301  11.7566228  58.9094305  52.0776653
  10.9897149  59.3157434  52.4813890  11.7912304  58.0319834  52.4586153
  64.3440731   8.5915286  31.9879293  63.6952646   8.0598075  31.5268874
  64.9601229   7.9555900  32.3516679  15.2223480  67.3075438  65.3836393
  15.4905725  66.9632578  64.5317268  14.5477092  67.9549217  65.1787186
  24.9582063   4.7513254  36.6566420  25.2739291   4.4519241  37.5092340
  24.5112066   5.5769260  36.8431950  27.5323391  67.1193027  19.7044551
  27.0752931  67.9571915  19.6317697  28.2335591  67.1718454  19.0550220
  67.0667222  39.3030214  32.1263862  66.6616038  38.7446237  31.4628315
  67.6274994  39.8980975  31.6287470   0.6114824   5.0017841  60.7628155
   1.2286480   4.4644744  61.2594414  -0.2143018   4.9210937  61.2401009
   8.3009356  59.2994165  47.3006535   9.0912211  59.3595028  46.7639303
   7.6553023  58.8820076  46.7304230  76.3821402  53.5405355   8.4962458
  76.6357365  54.4438940   8.3068985  75.4487553  53.5049253   8.2870668
  42.8894615  60.2572584  57.4455023  42.1017265  60.6137753  57.8561163
  43.5626745  60.3214788  58.1229162  69.3939891  33.4144026  13.4416050
  69.8000661  32.5768858  13.6649746  68.6561719  33.4917265  14.0464872
  -0.0086499  74.0245152  36.6238809   0.4523617  73.6301565  37.3642755
   0.1830616  74.9597692  36.6930079  17.1145427  67.3646832  38.4925985
  17.0957565  67.6313305  37.5734806  17.9083729  67.7687407  38.8430309
  63.0747969   0.5689819  31.4858747  62.7545889   0.2226074  30.6529737
  62.9946955  -0.1636880  32.0966172  53.7362464   0.3246171  50.7488298
  54.3889721   1.0075433  50.5945730  52.9818399   0.7912118  51.1085415
  59.7472771   4.9191100  63.7845993  59.0685375   4.3485696  64.1451931
  59.5257361   5.7910735  64.1114473  41.0563608   8.5344131  14.6442628
  41.0755785   7.8319461  13.9943385  41.9195779   8.5028179  15.0566840
  25.6962085  74.9395180  40.8844519  26.2625837  75.6006575  40.4865217
  25.5837917  74.2781210  40.2016973  59.5243874  49.0700918   3.9437622
  60.3061113  49.5693499   4.1801638  59.2602345  49.4261843   3.0954355
  39.4249542  19.2016322  44.9161148  39.1644450  18.3280666  44.6241522
  40.1452906  19.0451820  45.5267429  63.2681862  15.2868658   0.0990099
  63.8162962  15.8795649   0.6133169  63.3190635  14.4508749   0.5624336
  37.0989919  73.7863398  33.3959913  36.9013143  73.4672689  34.2765307
  36.9369340  73.0341196  32.8266692  54.0324298  74.3443346  59.6065712
  54.3260399  75.1934624  59.2764044  53.3325568  74.5564747  60.2241516
  74.7937882  36.4265513  12.9516387  75.7040471  36.1989689  13.1410241
  74.2798111  35.7740855  13.4273994   6.1327964  61.2403774  62.0997572
   5.4525089  60.8558130  62.6525259   6.8309110  61.4784813  62.7098179
  47.1872623   6.3657958  60.0412083  47.6105531   7.1970470  59.8265457
  47.9096086   5.7818897  60.2725029   7.8668189  47.7490473  37.5272655
   8.1978226  48.3721590  36.8804264   7.3086339  48.2735586  38.1013298
   1.9761772  54.8151493  57.7156067   1.9208235  55.7647228  57.8227472
   1.6693361  54.6565485  56.8229008  56.9425733   6.8860443  61.7592764
  57.3831613   7.6414878  62.1484137  56.9094856   6.2389381  62.4638271
   2.6983860  66.2790823  10.5478227   2.9205832  65.3647804  10.7236362
   1.7996836  66.3721991  10.8638847  16.3649273  56.0585785  19.8189008
  15.8070326  56.8302393  19.7212899  17.2199464  56.3382769  19.4918776
  33.4151776  11.2013252  45.3124046  33.6960001  10.9566982  44.4306278
  34.2306502  11.3555248  45.7893324  60.2466424  14.7080047  54.7678757
  60.8415182  14.0269191  55.0816870  59.8744018  14.3484695  53.9626408
  15.3143930  68.7190199  24.4660830  15.7085550  69.5847368  24.3592739
  14.6344221  68.6808062  23.7934685  44.2362738  73.6444473  38.2529092
  44.5477629  74.2526340  38.9232159  43.3072519  73.8525820  38.1537509
  52.0920761   2.0879133  61.5222645  52.4409969   2.7573068  62.1108198
  51.3021190   2.4822576  61.1525488   0.3830102  64.2624712  42.0645094
  -0.3047794  63.6002350  41.9964981   0.6361392  64.2509747  42.9875612
  25.2366400  50.1216316  58.3767939  24.9358487  50.8722734  58.8889408
  25.8344603  50.4968882  57.7302504   0.6437127  14.5017726  60.0492096
   1.4839761  14.1318519  60.3200388   0.6837289  15.4165847  60.3280592
  40.2537055  17.7944763  65.0325441  40.3102691  17.9714973  64.0935612
  40.8752079  18.4048946  65.4292202  30.2338110  10.9696586  33.7174964
  30.2137549  10.1808650  33.1756115  30.2325226  10.6423862  34.6170092
  25.6397647   7.1670825  48.1899786  25.6472034   7.2781665  49.1406822
  26.4658257   6.7249782  47.9940224  71.9997976  36.1030507  52.9046011
  71.2844876  36.1233044  52.2688723  72.1136508  37.0167351  53.1662321
  41.8362387   3.7355049  52.3810101  41.3276513   4.5113332  52.1450853
  42.5567110   3.7207181  51.7509842  69.7481355  68.9903688  30.7540822
  70.3888926  69.4780159  30.2365279  68.9330307  69.4814110  30.6505799
  28.0974197  66.8779469  54.3237352  27.8168583  66.4255857  53.5281944
  28.9713979  67.2083473  54.1158199   3.2090115  17.6368052   2.0295900
   2.3458218  17.5251013   1.6312689   3.1975674  17.0583778   2.7921671
  58.8709012  62.6878643  42.0392990  59.5333854  62.0630693  41.7443752
  58.7318054  63.2626152  41.2866020  47.8108189  13.9470011  34.1952032
  48.4207416  13.3826071  33.7201399  46.9507745  13.7230307  33.8396830
  24.1030502  70.4829788  23.8732958  24.1913605  70.2872372  24.8060942
  24.9926186  70.4088449  23.5277438  45.7464504  73.7045145  63.1264448
  46.4811802  73.1352043  62.8977680  45.6915903  73.6531210  64.0806913
  61.3511808  12.6872165  10.4561555  60.7384117  13.3701427  10.1834905
  62.2052558  12.9978855  10.1556993  24.5500755  66.3506508  39.6634030
  24.3883181  67.1549034  39.1702056  23.6798930  66.0539675  39.9298477
  43.4529448  65.3214979  35.2639413  43.6991835  66.1655998  35.6422091
  42.6383972  65.4983950  34.7933578  46.5179332   4.4329078  18.4433186
  45.8930071   4.6194227  19.1439700  45.9740956   4.2946775  17.6678431
  13.1913256  25.4900413   2.1976084  14.1450357  25.5669027   2.1700472
  12.9461312  25.8546310   3.0480093  53.7851937  13.6271484  40.7184649
  54.5306404  14.0865333  41.1051273  53.5535915  14.1500003  39.9508572
  38.7941332  21.1969097  48.4671164  38.0385895  20.6310470  48.6258078
  38.9582486  21.6193778  49.3102217  69.4699748  10.6319244  23.7480426
  69.3694527  10.7035739  24.6972489  68.6895068  10.1587589  23.4595776
  70.2820920  21.9657714  11.5779448  70.2837251  21.0512931  11.8607199
  71.2079333  22.1871192  11.4776659  42.1822158  25.7893902   4.0539736
  41.5343955  25.5687576   4.7232098  42.2234252  26.7456203   4.0665382
  19.8951638  71.2326097   9.4233549  19.0740144  71.2229395   8.9315706
  20.2774644  72.0895529   9.2343420   4.9837947  73.8547903   6.1393780
   5.7530307  73.6341005   5.6142134   5.3424144  74.1644388   6.9710917
  52.0256974  29.0194469  24.2614264  51.8882839  29.6033483  25.0073523
  52.6051242  29.5089870  23.6776060  20.6422281  65.4545927  27.4729514
  19.9944735  65.9826374  27.9396582  21.4094400  66.0227680  27.4037123
  15.0046635  69.2778540  62.3340273  15.9614813  69.3008709  62.3482323
  14.7698712  69.6118736  61.4682722  75.4025561  70.8502054  41.9318438
  75.0129161  70.3313208  42.6355267  75.5745057  70.2173519  41.2345934
   6.0761237  16.1017710   1.2541050   6.7157292  16.8108040   1.1877007
   5.3999924  16.3285595   0.6156343   2.7242724   4.3685968  28.1394219
   2.8139941   4.2301328  27.1965504   2.6348750   5.3168304  28.2348156
  28.4189820  65.2212286  21.4284277  27.6976848  65.0319386  22.0285368
  28.0496907  65.8390045  20.7973933  13.9487838  35.8695990   9.4445271
  13.9731359  35.5413395   8.5457033  14.6501445  36.5199762   9.4810719
  16.0894346  47.3746973   3.4699196  16.5771770  47.8975111   4.1063208
  15.1772499  47.4443918   3.7515205  17.7587330  58.9492083  53.7603760
  18.3515215  59.6923018  53.8728333  17.3714399  59.0806198  52.8949451
  20.8556557  56.7974186  58.8681841  20.8533931  55.8438492  58.9514256
  21.3807249  56.9683456  58.0863190  25.2688022   0.8096654  46.6533709
  24.5464125   0.2964551  46.2914276  25.3500954   0.5046565  47.5570250
  19.5425320  68.2567835  39.1913629  19.9915910  68.7271404  38.4889817
  19.3166375  68.9352369  39.8276830  37.7879615  71.8267749   7.5348372
  38.5002644  72.4555324   7.4185461  37.7283509  71.7049287   8.4823746
  31.5649271  73.6346531  28.8278246  31.5813947  72.7693796  29.2368007
  31.1096215  74.1900492  29.4606423  69.5899228  39.6764588  11.1108351
  69.9366758  39.8810625  10.2424276  69.0174762  38.9225888  10.9686422
  77.1004099  43.2568789  52.2540331  76.4351327  42.5962019  52.0613050
  76.6892669  44.0875959  52.0150757  47.7107096  55.6545734   1.2339731
  47.9932165  55.7559872   2.1428931  48.1716919  56.3475084   0.7611423
  69.9834187   2.9079206  40.3171492  70.7869895   3.0566461  40.8155346
  69.8693354   3.7069805  39.8026347  57.8974707  21.0511501  38.9826369
  58.8109525  20.8142192  39.1427803  57.6356681  20.5072887  38.2397342
  35.8659662  19.7322566  42.5063324  35.6894143  20.2360828  43.3008289
  35.2451290  19.0045459  42.5412846  76.7652050   6.5893513  25.9696287
  76.5804902   7.1982962  25.2545828  76.1026755   5.9045654  25.8782286
  32.1451218   9.8260982  21.0491562  32.2437592   9.0044696  20.5680776
  32.9432364   9.8941047  21.5732002  18.3750261   8.5545261   8.2400411
  19.0866645   7.9147918   8.2633269  17.9630740   8.4235580   7.3860073
  61.8431790   1.8940170  45.3287315  61.4803679   1.3184078  46.0019875
  61.0809405   2.1924026  44.8325539  50.6715472  10.5746658  11.7799675
  50.7647784  10.2810962  12.6862526  50.4123791  11.4933593  11.8512535
  75.7292906  58.0351162  33.3615875  75.6728441  57.5648355  32.5297928
  76.6087976  57.8423977  33.6864853  33.9189792  74.5876074  35.3882670
  33.6913681  75.4235935  35.7951522  33.2717562  74.4760752  34.6919227
  14.8148453  42.0706224  52.9080629  15.4600883  41.3645554  52.8711510
  14.7809982  42.4111271  52.0141125  40.5523796  15.9112842  47.8905582
  39.8391373  15.6212528  47.3218727  40.1196153  16.1717231  48.7036467
  49.7366484  20.4354865  23.8557363  50.2608497  20.1490409  24.6036601
  48.8798864  20.6425388  24.2289901  58.6166699  18.1428058  40.3322840
  58.8184007  18.6927612  39.5752525  58.8778098  17.2616775  40.0646114
  60.9539612  20.4766662  24.6894193  60.9712179  20.1784713  25.5988216
  60.6352694  21.3778980  24.7388816  25.6065440  63.1331253  55.1416111
  25.5126619  62.4247169  55.7784605  26.2246513  62.7931881  54.4946051
  79.9222196   8.2264864  45.8444786  79.0455065   8.5346842  45.6150866
  80.0409384   7.4324268  45.3233194  63.4371475  33.0156779  28.5158658
  63.8931015  32.3723435  27.9732251  62.6039616  32.5978255  28.7336588
  37.5045505  50.9132242  10.9717345  37.3698393  51.7061043  10.4526675
  38.3194939  51.0739422  11.4474118  66.8761567  14.8329139  54.6263695
  67.5562039  14.4610083  54.0647173  67.2715989  14.8564887  55.4977465
  58.6631218   5.3247744  45.9430599  59.0576521   6.0646266  45.4813290
  58.9296595   5.4418421  46.8549156  58.2578154  63.2671552  21.3030767
  57.9264324  63.5781734  22.1455050  58.3382120  64.0583985  20.7704401
   1.2089535   4.0150273  40.2868700   0.6643952   4.7983372  40.3650618
   0.7303187   3.4501594  39.6801853   1.3207404  21.9885612  41.0602999
   1.7606074  22.8205585  40.8855724   2.0026144  21.3274598  40.9410334
   7.8769439   5.1884902  35.9393859   8.0847979   6.0056448  36.3924742
   7.1974832   5.4298216  35.3098440  71.6897896  25.5358958  36.7076921
  71.0839132  24.8508596  36.4250803  72.0953361  25.1848197  37.5004768
  70.9203807  34.2842507  42.4657345  70.4090479  35.0725007  42.2828865
  70.3788355  33.5661340  42.1382141  66.1053029  18.9659917  17.1404612
  65.6383458  18.1394482  17.0179498  65.4174117  19.6315968  17.1431196
  38.8349135  42.3078938   2.1645206  39.1992743  42.1798377   1.2886948
  39.5030661  42.8102808   2.6307959  19.3488669   5.3666776  23.5374069
  18.7145829   5.7737058  24.1275287  18.8136899   4.8986062  22.8965259
  78.8381503   5.4270363  30.7396984  79.7948356   5.4576659  30.7465625
  78.6049833   5.4328841  29.8113489  51.7662040  61.3002157  22.2323251
  50.8718101  61.6016912  22.0729423  52.0535580  61.7971897  22.9982710
   6.1300045   5.9845895  27.1334982   6.3106614   5.1020759  26.8098235
   6.4373481   5.9748274  28.0399609  65.4942611  49.4873810  46.5764713
  65.7604364  50.0370169  47.3135471  66.2614158  49.4658852  46.0044193
  73.7310419  64.1637897  40.4642916  73.3495185  64.0281010  39.5969629
  73.7784961  65.1151180  40.5589151   5.9265715  46.6356611  20.4552054
   6.6316456  46.1824894  19.9928856   5.3764433  46.9954729  19.7594142
  65.6255380  25.1458573  27.9154539  66.3732580  24.6239328  27.6243520
  65.5020169  24.8972297  28.8315105  37.3005629  47.4310160  28.2736969
  36.8879795  48.2218122  28.6210489  36.5950537  46.7846537  28.2471991
  43.4669578  54.9853355  63.9541698  43.3394122  55.3975386  64.8086012
  44.3643010  54.6531648  63.9800490  32.5326981   7.3915202  23.6563849
  31.7478837   7.6223190  23.1593657  32.2922440   6.5932186  24.1266298
  15.5778849  11.9938958   5.3001851  15.2024388  11.3962901   5.9468222
  16.1582351  12.5616074   5.8072650  12.6484489  18.5852826  50.3349352
  13.1804991  17.8140628  50.5308294  11.8079746  18.4102488  50.7582521
  10.4028893   7.7160519  40.9167099   9.9015939   8.4979224  41.1482525
  10.2735889   7.6193327  39.9732280  19.7724032  15.3023982  53.8383102
  19.4218290  16.0767293  53.3981514  20.5995011  15.1259363  53.3899784
  25.8366919  54.8986006  28.6595297  26.0528183  55.0735188  29.5754576
  26.1571002  55.6668425  28.1869054  29.3606019  44.1934347  33.9831400
  29.4048333  44.1481066  34.9382424  29.3014646  43.2802153  33.7024975
  48.4436663  17.7830984  54.4995624  48.1978534  17.3694898  53.6720747
  48.6722337  17.0523311  55.0739866   3.6122188   8.1580102  26.0346746
   3.4896460   7.6399189  26.8301558   3.5492641   7.5217152  25.3223562
  20.0928354  24.3071771  32.8148007  20.2422071  23.8267422  32.0004892
  19.2264473  24.6993232  32.7060556   6.8156695   4.0601036  19.4417930
   6.5820527   4.9875435  19.4806552   6.2298596   3.6389849  20.0708532
  57.8308645  27.7655649  16.9876230  58.1546894  27.2145796  16.2750340
  57.3310128  28.4544063  16.5495801   0.8232512  62.2352409  16.9768083
  -0.1040254  62.4613857  17.0492446   0.8256418  61.3108110  16.7285061
  74.5096097  45.8037043  54.5573235  75.1412186  46.3761282  54.9927998
  74.4968269  45.0101805  55.0924778  12.8402662  58.3727741  45.3882074
  13.7465799  58.5698795  45.6248045  12.6041889  57.6292801  45.9429216
  74.8550582  47.9877138  33.9010739  74.9647141  47.1343517  33.4815669
  74.5342312  48.5584164  33.2027888  76.9635940  50.1568508  57.0118523
  76.0642803  50.4657173  57.1217108  77.3179187  50.1301241  57.9006577
   4.7113177   6.3782984  16.6288316   3.8877696   6.3351041  16.1428952
   4.9820152   5.4650182  16.7230356  73.2717927   6.2931777  61.2610700
  74.0500005   6.3822557  61.8112400  73.4721692   5.5596353  60.6796944
  20.2520680  39.4644022  56.2207603  20.6296182  39.1215205  57.0307732
  19.3156517  39.5375586  56.4051628  73.4734831  28.7982988  17.6068926
  73.3282408  29.6734834  17.9663229  72.8168831  28.2506442  18.0372190
  67.1587248  70.5677571  32.2479367  66.4642950  70.0202649  32.6143432
  67.8498133  70.5530639  32.9100657  18.1797314  68.6568022  33.9901519
  17.5670242  69.2676497  33.5806513  19.0340674  69.0794039  33.9021087
  14.7012258  32.0025039  28.9984083  14.8182750  32.2463417  29.9165988
  15.5873454  31.8251681  28.6828542  54.3285108  66.4053101  56.1370355
  53.5625601  65.9299439  55.8152008  55.0012994  66.2527937  55.4734629
  65.2658037  12.2447836  58.8747931  65.2587405  13.0109465  58.3010530
  64.9895695  11.5215123  58.3119392  50.7495967   3.4479839  38.1430745
  50.4048363   2.7668989  38.7205648  50.9476391   2.9911751  37.3255563
  78.3760220  38.3231282  18.6043870  78.0121620  37.6975632  17.9778850
  79.1238839  37.8675461  18.9908826  76.1210442  33.8526845   0.3182818
  75.2404031  33.8479376  -0.0567929  76.3422773  32.9271722   0.4217990
   3.5501224  36.9973850  37.0103168   3.9766812  36.8561745  36.1651325
   3.5555410  37.9476094  37.1255469  70.7932023  28.3715940  15.4008961
  70.5155418  27.6700425  15.9899306  70.8111850  29.1540051  15.9520245
  13.7117016  34.7034240  29.0572619  13.4998751  33.7807989  29.1991329
  13.4070587  34.8851466  28.1682158  14.6220851  24.3623543  40.5665255
  13.7375391  24.5813823  40.2735472  14.5321989  23.5026622  40.9777212
  12.3631454  25.8781195  64.7229242  11.4863038  25.8746052  65.1068115
  12.8619254  26.4843965  65.2705383   8.1871915  26.9127655  44.8296738
   7.3899293  27.2402573  45.2460337   8.0506694  25.9678555  44.7608519
   4.6413438  74.1381187  26.7623138   4.6274488  73.9129407  27.6925468
   4.7291200  75.0911763  26.7478728  18.2836020  69.5561552   4.5803979
  17.5495338  70.1110029   4.8440656  18.1075966  69.3459082   3.6633101
  79.2257794  75.1418699  23.7641263  79.3428810  74.3119742  23.3017516
  79.5372398  75.8051798  23.1482983  62.2760393   2.0046045  65.1076806
  61.9832082   2.2337510  64.2256521  62.6981296   1.1515499  65.0058546
   0.9720458  39.7501326   5.6901723   1.4687057  38.9350629   5.6178945
   0.0876070  39.4714332   5.9275055  68.3227459  54.5632410  13.4420657
  67.9996351  53.6975813  13.6919916  68.5718492  54.4696379  12.5225985
  58.0174294  74.2671490  34.6587563  58.4376875  75.0667667  34.3421721
  57.5019661  74.5503473  35.4139566  27.7660060  45.2876997  31.5066814
  28.3064771  45.1494122  32.2844982  27.2288656  46.0505056  31.7207909
   5.5492330  65.9629530  50.9195989   5.4799676  66.8748826  50.6370789
   6.0868144  65.5441374  50.2474135  68.3533576  35.4596949  29.0508652
  67.7060023  35.9088039  29.5944309  68.9984957  36.1345887  28.8398004
  35.0517917  45.6817579  28.8547325  34.7402787  46.4441776  28.3669710
  35.0859904  44.9794912  28.2052064  13.2875793  45.4777877  37.5583649
  12.6409094  46.1821549  37.6021123  14.1326492  45.9259884  37.5931096
   0.1377988  68.9765495  64.6668662   0.9557677  69.3272990  65.0191887
   0.3418041  68.0674070  64.4476086  70.4649976  39.5876694  42.8752661
  70.5046192  39.9430585  41.9873714  71.1531893  38.9227581  42.8980446
  30.1286033  11.9171661  49.6796387  30.9210870  12.1812314  49.2122286
  29.6359781  12.7298564  49.7940284  52.1925877   7.0842840  59.8709398
  52.2043371   7.4153901  58.9729082  52.7325271   7.7038242  60.3617233
  14.2735398  31.7668724  15.7133019  15.0932574  31.3400626  15.4640484
  13.6592925  31.5301347  15.0184011  75.6010780  18.1147265  46.1485529
  75.5959407  18.9785373  46.5609074  75.3739873  18.2844055  45.2342939
   9.9619800  28.9422655  11.5364850   9.5549375  28.0882001  11.6818178
  10.8915949  28.7474489  11.4177680  69.5380214  15.3237772   4.4457394
  68.8605598  14.6541429   4.3515772  69.1480854  15.9793162   5.0240564
   1.2169209  34.3644786  43.8790035   1.3440500  34.4367886  42.9330444
   0.4797040  34.9454403  44.0666962  78.4725018  26.8491459  40.3011036
  79.3687283  26.6450763  40.0339603  78.5319631  27.7202630  40.6933403
  77.7757299  11.9368756  53.5159159  78.5506488  11.4484894  53.7937880
  77.9976255  12.2619426  52.6433754  11.7246473  13.3296061   8.4861439
  11.1915815  14.0930247   8.7080985  12.2065413  13.1322753   9.2893070
  13.4759724  32.9335189  57.1001482  14.3030560  33.3638787  56.8834496
  12.8025234  33.5440135  56.8001604  35.1400304  44.0030432  12.1301949
  34.5929360  43.7153339  11.3993442  35.6851220  43.2433081  12.3349226
  17.3938751  43.6024046  38.9994121  17.9320514  42.8144932  39.0755248
  17.3687506  43.7854862  38.0602193   1.0035671  26.5987444  10.5043113
   0.4536979  26.3894629  11.2593460   1.7162447  25.9609103  10.5428946
  22.2452148  28.5546924  59.0706277  22.8369792  28.3002950  58.3625793
  21.6667088  27.8002645  59.1819823  10.4160225  21.8042421  16.6779828
  10.8963323  22.6101279  16.8679440   9.7460240  22.0677662  16.0471988
  32.9600906  67.2471666  34.6031761  33.5923100  66.5999556  34.9156666
  32.1064997  66.8725920  34.8206735  20.9716964  19.7290587  11.3908517
  20.6850433  18.9573133  10.9025168  21.3488650  20.3061891  10.7268536
  11.4963365  39.1086411  15.8395755  11.8056202  39.2256784  16.7378390
  10.5444729  39.0476918  15.9200299  12.0397758  35.8828545  31.3529396
  11.3666129  36.3821316  30.8905482  12.8328121  36.0108304  30.8324146
  72.0119556  65.4651319  33.6631370  71.8742068  66.2118619  33.0803394
  72.6824768  64.9404268  33.2257366  49.5659209  68.0368990  58.7282443
  50.3506136  68.3914084  58.3101386  49.2301512  68.7593025  59.2589271
  13.8477385  52.1500045  64.3718214  13.6365843  51.3256818  63.9334863
  13.2827831  52.1620089  65.1444227  27.4348998  29.6661186  28.5146976
  26.5347958  29.5502567  28.8190365  27.3851395  30.3892303  27.8895068
  16.4753520   3.6758831  14.4314635  15.5195224   3.7255213  14.4440413
  16.7422318   4.3536362  13.8104498  64.1507438  41.3566303  36.0031605
  64.9526409  41.3408995  35.4807186  64.2847005  42.0709419  36.6260910
  18.5737371  25.5743170  28.3830047  19.1008401  26.1169863  28.9694405
  18.9012110  25.7799935  27.5073981  75.7925818  25.2880001   1.8049218
  75.1147858  25.0974345   2.4533892  75.3832239  25.0849438   0.9638354
   9.6765900  44.2803621  50.4486656   9.8248672  43.5688114  51.0715151
   9.6380526  45.0686407  50.9902906  52.7412041  17.5668723  58.5150099
  52.2170337  17.7490432  59.2949390  52.8924735  18.4264476  58.1219530
  27.8344321  65.0360394   7.8397125  28.3022690  65.8641005   7.9477406
  27.9036474  64.6086979   8.6934221  75.2646196  28.5596251  48.3183384
  75.2558813  29.5084858  48.1925535  76.0143939  28.4009385  48.8918257
  67.4143640  37.3022056  22.6280975  68.3574882  37.3047066  22.4645662
  67.2667018  38.0628848  23.1900549  42.8000839  11.0235507  30.2187252
  42.5094338  11.9265754  30.3463960  42.9375811  10.6886489  31.1048222
  79.4344316   0.7849970  11.4047229  79.5967007   1.6538590  11.7721188
  79.4402951   0.9206920  10.4572082  62.6249840  20.8588983  56.4680826
  62.0802106  21.6399766  56.3712686  62.0392974  20.1310493  56.2596595
  15.4445791  46.8635559  37.7025557  15.6043851  47.2935772  36.8624496
  16.2552261  46.9915962  38.1951928  24.9371552  65.3894758  34.9353361
  25.6377292  64.7439003  34.8422790  25.2317500  65.9622240  35.6434321
  56.8634881  73.7321072  60.4348803  55.9559052  73.8343314  60.1483917
  56.8697684  72.9075711  60.9210205  46.5936771  29.1823053  17.5456381
  47.4581614  29.0645266  17.1519017  46.7554894  29.1632962  18.4888697
  10.8700474  61.2328695  16.0284513  10.0423808  61.6878079  16.1841005
  11.5028794  61.9337748  15.8719629  77.5397486   2.1464315  52.4133492
  77.1588454   1.2741885  52.3116779  78.3849660   2.0921537  51.9673729
  11.6982806  17.4383318  40.6461573  11.2972033  18.0775881  41.2349844
  12.5566542  17.8082824  40.4398489  59.4033708  72.2055455  29.7436142
  59.7174682  71.3069894  29.6427631  60.1414116  72.7495374  29.4686604
  69.2431982  11.7938520  64.0143770  69.8761030  12.3413564  64.4790298
  69.1933282  10.9916307  64.5341680  52.3044315  12.5141871  31.7146420
  53.1273714  12.9502201  31.4935660  52.3658744  11.6578436  31.2914014
  49.9013940  10.3822851  38.6543679  49.9913350   9.7589767  37.9335165
  50.7888404  10.7103264  38.7994862  19.8525941  43.3032179  17.6101899
  20.1812816  42.6266479  17.0181990  19.6908426  44.0583467  17.0446396
  73.5669096  15.1520730  64.0184812  73.8596066  16.0525419  63.8780838
  73.3606370  14.8278333  63.1418097  79.2027375  43.2679605  54.0813017
  78.7742309  43.1641340  53.2316923  79.8068860  43.9999294  53.9569902
  16.1010599  48.0942202  42.7815914  16.6325414  47.8275490  42.0314932
  15.8316910  48.9898777  42.5779438   0.8327413  46.9565630  53.1771374
   1.2409566  47.7732849  52.8898144   0.6389857  46.4872313  52.3657084
  65.4573313   8.5311514  27.9348493  66.0856453   8.1440854  27.3252320
  64.9908534   7.7821016  28.3057356  23.6516523  35.0261426  20.0734353
  24.5310187  34.9270630  19.7085667  23.3020306  35.8083987  19.6467340
   6.2383199  32.8279376  29.9920368   5.9186631  32.0006633  29.6319461
   6.7474860  33.2176733  29.2813420  79.6479455  46.6912699  47.2702789
  78.8784925  47.1916151  47.5419903  79.3671907  46.2307358  46.4795065
  29.3785726  36.1533523  11.6315454  28.8923998  36.1385881  12.4559540
  28.8254020  35.6691118  11.0185617  65.1532582  35.2227211  30.8309484
  64.2714230  35.3318262  31.1868882  65.0705138  34.5064282  30.2014160
  16.0147703  13.6024535  36.0266161  16.6628671  13.3600020  36.6879940
  16.5338063  13.9211035  35.2881742  13.3159621  65.3168081  11.9010300
  13.6198385  64.7690891  11.1772245  13.6788388  66.1827658  11.7148298
  17.4154890  15.3402817  38.3501458  18.3444023  15.1703894  38.1936526
  17.2334456  16.1435735  37.8624845  76.7663092   5.8713299  50.6783962
  76.9995907   6.5985376  50.1013517  76.1199734   5.3694010  50.1818609
   2.3389138  31.2044263  54.0610647   1.4127611  31.3436890  53.8633823
   2.3370643  30.7051277  54.8777246  79.3503225  42.6343393  23.4695005
  79.7509170  43.0933857  24.2077637  78.8753605  43.3153677  22.9932237
  77.4522408  27.2257376  43.5693836  77.4030900  27.7516723  44.3676376
  77.8547411  27.8069139  42.9240465   5.1487345  24.8680472   8.2960486
   5.6572092  24.6796441   9.0848386   4.9876970  24.0097070   7.9041934
  70.1878651  16.4709808  32.9340702  69.2376180  16.3994314  33.0243188
  70.3624149  16.2147428  32.0284730  76.5550527  36.5566993  38.0810571
  77.0475301  37.3758316  38.1331992  76.7997599  36.1836004  37.2342110
  24.4250083   0.2663704   2.4568571  24.4246101   0.9372149   1.7740691
  25.0843453  -0.3659246   2.1710101  52.4102981   3.3280952  53.1060982
  52.0498450   3.0919511  52.2513819  51.6508324   3.6072500  53.6174870
  21.9318566  68.2042474  60.7702240  22.3350319  68.9482063  61.2176689
  21.2634167  67.8916496  61.3798994  38.3530394  12.9392827  45.9274387
  37.9694286  12.5527811  46.7146444  39.1458622  12.4263513  45.7707071
   5.4539323  40.8906317  19.7296333   5.8276248  41.6896629  20.1013064
   4.6534333  40.7437277  20.2334690  31.7072614  68.0326008  22.8715205
  32.1305545  67.3741077  22.3206663  32.1378286  68.8544499  22.6361322
  70.3886363  29.0535402  34.4406176  69.5615366  28.7335777  34.0803909
  70.5656311  28.4763002  35.1833820  17.7569453  74.6428354  33.1691051
  17.3217122  75.4582848  33.4177947  17.0781009  73.9733946  33.2542706
  16.8301284  25.6171298  13.7639308  16.4166820  24.8034930  14.0525270
  17.6475477  25.3373766  13.3518660   3.3794197  64.8646164  56.4319038
   3.2595244  65.8142710  56.4346361   3.5465601  64.6416664  57.3476458
  23.6840367  39.6785140  28.4573817  22.7554440  39.9098802  28.4778142
  24.0911436  40.2652645  29.0947342  76.2359855  10.6556785  38.5477352
  76.7908508  11.4236081  38.4112024  75.7450968  10.8536208  39.3452811
  79.8120316   8.6857104  32.9392767  79.3428036   8.7757927  32.1098518
  79.2661376   9.1486853  33.5747957  61.3838557  23.0573010  43.4804010
  60.9993473  23.1600833  44.3509293  60.7982913  23.5446262  42.9008675
  71.0021749   6.9571722  62.6795769  71.0187117   7.8250003  63.0831003
  71.6848955   6.9915384  62.0095444  79.3631434  60.0073814   4.3222257
  79.8621762  59.8616743   3.5185054  79.7167183  60.8220673   4.6793130
  29.1960740  41.5138769  33.7199759  30.0672436  41.3692760  34.0892768
  29.1999722  41.0234642  32.8979588  39.5884943   4.4516656  27.7436996
  38.7031054   4.8149937  27.7613163  40.1431608   5.1560652  28.0789614
   4.2355829  13.8115466  50.4154062   4.2095277  14.4762588  49.7271395
   4.7249967  13.0854630  50.0287437  24.4263005  53.7602043  19.0465975
  24.7924614  54.2343998  19.7931206  24.5470595  52.8365755  19.2669570
  17.9812634  43.6483192  31.6356707  18.0158186  42.7636003  31.2719202
  17.6917207  43.5244989  32.5395894   1.3638148  24.9683452  50.1252270
   1.2059097  24.1506743  50.5971479   0.8610408  24.8785758  49.3156624
   2.9338686  69.0050899  25.3242970   3.0223648  69.7153126  24.6886992
   3.2555668  68.2300680  24.8637724   8.1682594  33.5427250  -0.0617558
   7.5112934  32.8478132  -0.0202185   8.8420708  33.2729237   0.5622763
   6.0938543  43.5053301  16.1103940   5.4354346  42.8686666  16.3885593
   6.6669673  43.0151653  15.5208898   8.7633467  57.1839809  54.1832542
   8.1385368  57.4846935  53.5233927   8.2907563  56.5092087  54.6706724
  27.4602318  43.9037418  21.7214751  27.7254915  44.7022390  21.2651134
  27.2006941  44.2012119  22.5934744  19.0621042  50.0698614   8.8163292
  19.4693470  49.9178982   7.9635149  19.4109082  49.3756199   9.3754297
  34.2212756  74.1212836  29.9466586  34.2756935  73.4487565  30.6256127
  33.3685299  73.9785432  29.5359492  34.7543669  63.7502289  39.9296236
  34.6487594  63.6748552  40.8779907  35.6782007  63.5530519  39.7750831
  14.0086710  54.9613523  63.9319134  13.5807252  55.5395937  64.5633650
  13.5037577  54.1490698  63.9704895  80.0361516  40.6792879  12.6229107
  79.5363824  41.1038160  11.9256043  79.3723199  40.3709412  13.2397437
  41.1644240  12.7367980   9.7975910  41.0757108  12.5906570   8.8557816
  40.2638681  12.7899845  10.1175916  61.5810016  50.1558304  37.2946095
  61.4858333  49.3341875  36.8128657  61.5974000  50.8307886  36.6160870
  41.0372543  67.5753975   1.9701754  41.9244671  67.4668789   2.3126753
  41.0921240  68.3438826   1.4021493   6.6286278  49.4974661  39.3261218
   6.1837727  49.7344685  40.1398611   6.4674455  50.2374601  38.7407470
  19.5932687  57.9251355  64.0913462  19.7073174  57.7492231  65.0253054
  19.4040954  58.8623351  64.0454960  27.3465252  64.9562263  45.4488945
  26.6367126  65.5678463  45.2531433  28.0038214  65.1284313  44.7746992
  54.1654141  17.7696521  12.7653992  54.6094616  18.1949050  13.4990323
  53.2418807  17.7610500  13.0168760  54.8207951  72.1152538  63.4145373
  54.7101212  73.0558104  63.2754832  53.9658952  71.8167872  63.7248513
  78.5885222   5.9565265  -0.1087314  78.0565245   5.3384883   0.3925052
  79.0037520   6.5078933   0.5544473  19.1837294  16.9514568  12.4098420
  18.8697733  16.1790759  12.8800368  19.1111530  16.7148883  11.4851809
  76.9667514   8.4600927  64.4944340  76.4842160   7.6334430  64.4875445
  77.7511747   8.2838727  63.9749536  15.1867545  74.0576220  29.3686771
  15.2307308  73.1714773  29.7279119  15.4577315  73.9597416  28.4558678
  58.3544588  54.2460203  14.0647805  57.7964067  54.9216938  13.6797166
  57.8385496  53.4425259  13.9979506   7.8796238  55.2947474  38.3965993
   7.2401577  55.9355116  38.0855727   8.4476006  55.7901955  38.9866567
  25.7914972  20.1995015  15.6943631  26.0370302  20.5185437  14.8259401
  25.5658507  19.2795384  15.5565846  10.6020439  53.2019186  17.9320645
  10.2927125  52.3845911  18.3226132  11.2829840  53.5103750  18.5299015
  14.4620240  54.0082407  11.2856698  13.6398053  54.1216278  11.7624617
  14.1939831  53.8456583  10.3812623  19.1971433  62.5229073  27.5326967
  20.0081396  62.3321915  27.0613742  19.2550862  61.9981670  28.3311462
  28.0791044  52.6016951  12.8331017  27.7051473  53.1916571  13.4875727
  28.7144566  52.0763063  13.3194399  15.4728062  -0.1632254  40.5204630
  15.8415909   0.6750877  40.2421474  15.7321031  -0.2461093  41.4381409
  19.9419904  55.6825924   3.6325592  19.2024279  55.1229286   3.3957967
  20.4817629  55.7131147   2.8426564  20.3692794  63.3577156  58.1248665
  20.4851294  64.2968845  58.2689953  21.1290264  63.1000137  57.6027489
  31.6786137  34.8746592   2.1360439  31.7102638  33.9646631   1.8408627
  31.9481936  34.8382812   3.0537790  20.8996534  45.3658581  22.3914361
  21.7074037  45.8774900  22.3466849  21.0122871  44.6821737  21.7310405
  76.6032476  47.0667601  24.1529298  76.6119486  47.7940512  23.5306716
  76.4168647  47.4765158  24.9976754  23.7368894  39.9969363  38.5863304
  23.2132936  39.8087502  39.3652177  23.2262492  39.6361470  37.8615475
  26.3153243  39.0372396   8.3464164  26.4455032  39.4591188   9.1957122
  25.9349561  38.1847787   8.5582268   9.2444092  58.2368469  49.7895432
   8.4928000  57.8304291  49.3581057   9.7871679  57.4998426  50.0696564
  66.1054182  67.0381117   5.7622015  65.7856607  67.7494764   6.3171303
  67.0587063  67.0909834   5.8305860  38.0888887   3.5035760  29.9577379
  37.7269681   2.8187044  29.3954277  38.7526222   3.9316089  29.4169211
  15.2999401  54.8277825  61.2437534  15.9295702  55.5441767  61.3248536
  14.7449374  54.9077255  62.0195189  72.6001580   3.4653671  53.1005049
  72.3257096   3.9527995  53.8772440  73.5452016   3.3570487  53.2072401
  73.4043315  31.6382289  54.3867683  72.7207098  32.1773672  53.9890003
  73.9792958  32.2654891  54.8251677  40.1806164  69.0179014  19.5562494
  40.0120926  68.1270981  19.2491722  39.6749187  69.0919399  20.3655839
  71.7353270  28.2528949  26.3559580  72.3375860  28.8618684  25.9285641
  70.9934721  28.1880260  25.7545638  36.9112062  34.0287495  18.8846326
  36.5730739  33.1333351  18.8731909  36.6144729  34.3861485  19.7215581
   3.3224702  58.8239717  33.2968187   4.0466505  59.1923618  33.8028646
   3.2099789  57.9405880  33.6478400  73.7958907   6.3049991  45.6152773
  73.1253241   6.9330222  45.8838940  73.7580775   6.3086612  44.6588326
  79.6128635  66.8851566  32.3146439  79.6646626  67.6012945  31.6816401
  79.0415638  66.2391710  31.8992496  76.0376758  37.9062963  42.0859337
  75.9041986  37.2606993  42.7799225  75.2716357  37.8113246  41.5198994
  12.4616313  37.8368759  48.8609266  11.5638709  38.0862236  49.0802097
  12.3664057  37.1865225  48.1650782  75.4892817  21.5133405  56.5585041
  75.7821629  21.3566780  55.6607819  76.2440175  21.9135690  56.9902706
   0.1043648  71.6655874  17.9866397   0.6491031  72.4433899  17.8661346
   0.4954489  71.0078430  17.4116111  33.3507569  14.3678958  43.7425900
  32.5927927  13.8560397  43.4602213  34.1046657  13.8204486  43.5231400
  34.4334483  39.3885183  20.6856799  34.9921322  38.6456466  20.9142494
  34.8715901  39.7969151  19.9390388  36.6234970  63.0919647  36.7377257
  36.8760967  63.2563210  35.8292055  36.4017463  62.1610737  36.7600131
  15.1097393  34.4816256  35.2257419  15.7092822  34.8610830  35.8682323
  15.6820738  34.1039205  34.5579052  17.9700589  52.1054697  14.5569026
  17.0670915  52.4225664  14.5751035  18.5033083  52.8963995  14.6363354
  72.6297489  30.6272340  30.5295992  72.3051581  29.7310781  30.6177950
  71.8499616  31.1460733  30.3321958  35.1302958  44.1660595  36.2097216
  34.2750931  44.4591618  35.8951569  35.7566905  44.5596790  35.6023312
  28.4461856  26.8496752  35.3405261  28.2823944  27.1534848  34.4477201
  29.3037987  27.2118139  35.5632091   9.5991576  60.4129314  25.8000255
   8.7213397  60.2615356  25.4496717   9.9553305  61.1167908  25.2578545
  44.9578801  47.0439863  16.4620757  45.1843444  47.6705790  17.1493363
  44.0867988  46.7286873  16.7029917  58.4352644   1.9249589  46.3905811
  58.9343603   2.1440656  45.6037331  57.6119097   1.5659864  46.0597324
  55.0612060  72.4861431   8.1734300  54.1498509  72.7630043   8.2683569
  55.4056183  72.4855709   9.0665209  34.4541551   6.7616660  64.6588945
  35.4062291   6.6628272  64.6548080  34.3058820   7.6382263  65.0136995
  18.5820663  50.7783318  17.2032714  18.0791950  50.5956268  17.9969788
  18.5349190  51.7291403  17.1034205  77.5761397  22.7083017  52.3347181
  77.0552118  23.0514385  51.6086858  77.5116666  23.3795883  53.0140167
  31.1849284  70.8897972  10.9357285  31.3075638  70.2678537  11.6529286
  32.0463276  70.9523821  10.5230486  44.9762058  36.2064028   0.0789112
  45.5581284  35.8330297   0.7408742  44.9625015  35.5553198  -0.6226108
   6.4660919  46.6513109  27.8152657   5.7887185  46.6401434  28.4914851
   6.1394209  46.0576296  27.1392012  32.6596689  47.6281691  29.4667125
  31.8876386  47.0712042  29.5666814  32.6271367  48.2198143  30.2184629
  78.7442202  63.1596279  25.5879784  79.4720073  62.5587082  25.4284453
  78.0703828  62.6165009  25.9968591  72.8746779   6.7209442  24.3084145
  73.5200198   6.3103015  23.7329674  73.0687983   6.3676936  25.1766062
  40.9821272  70.0933266   4.0392011  40.2268982  69.5547152   3.8030761
  41.2369585  70.5202389   3.2212541  63.9740253  45.7402051  54.5721382
  64.8052049  45.9775847  54.9832648  64.2241264  45.2137918  53.8128155
  18.3576691  48.3932829  59.7655725  18.4078479  48.7842751  60.6378365
  19.1410518  48.7098598  59.3157673  27.0238741   3.1427242  54.9312693
  26.0977681   2.9218389  55.0301081  27.0418866   3.7894584  54.2258304
  38.8296004  11.0060890  50.3277874  39.6035691  10.4546935  50.4425192
  38.0947907  10.4392440  50.5622387  28.9314818  52.6099062  25.3796077
  29.3494773  52.1888733  24.6284485  29.5627904  53.2698631  25.6662059
  39.2616630  42.6303291  17.8116739  39.1552520  43.5250950  18.1346416
  40.2088070  42.4930525  17.7942073  10.8015768  19.5803691  42.2877174
   9.9503629  19.7120620  42.7052361  11.4380757  19.7585870  42.9800611
  70.3492043  49.2409801  36.4504218  70.7207427  49.0803337  35.5830216
  69.4224373  49.4146681  36.2855959   7.8572899  63.6350107  60.6804991
   8.7613541  63.5805511  60.3707647   7.6287776  62.7347755  60.9119844
   7.0145941  10.1028609  42.7423429   7.4243140  10.3389263  41.9100952
   6.2324619   9.6105319  42.4931192  40.7873841   1.7858369  23.3532834
  39.9619611   2.2544629  23.4769750  40.9302743   1.7981012  22.4068880
  74.8288232  41.1703777  46.0614109  74.7753358  40.6390381  45.2670240
  75.5400750  40.7757998  46.5660477  34.3208385  65.5012035  26.8313766
  33.9352727  66.2012243  27.3581982  33.6272168  64.8454523  26.7599010
  78.3718036  52.0752096  45.5901814  77.6834132  51.4872169  45.2793503
  79.1781902  51.7173529  45.2188158  20.4664803  60.6553602   9.1805845
  20.7710576  60.3212500   8.3368814  20.1205540  59.8855877   9.6322703
  17.4238145  47.8120375  15.0121593  17.1891069  48.4986782  14.3879271
  18.2107079  48.1416845  15.4461682  30.6072307  33.2823610  13.4336996
  29.8950744  33.5025620  12.8332198  30.7593870  32.3479557  13.2923865
  29.4584250  67.9116344   8.0142593  30.2397513  68.1536627   8.5114342
  29.4339728  68.5348654   7.2881639   1.9075881  56.9203615  29.0932369
   1.2649313  57.1450758  28.4203863   2.0498449  57.7375126  29.5709968
  35.1784134  47.9480600  32.5706100  35.6782746  48.7568331  32.4598908
  34.2645860  48.2162285  32.4744964  33.9611304  75.3203339  47.0256012
  33.8685847  74.3732113  46.9225019  33.0627072  75.6505698  47.0220321
  66.0430058   7.1992399  64.6204478  65.8303185   6.2901403  64.4094190
  66.2410923   7.6013996  63.7747168  63.3130375  37.2150936  62.5118568
  63.5398594  37.7581623  63.2667488  63.4273306  37.7934462  61.7577499
   4.9295011  57.1798563  50.3387833   5.0099707  58.1336403  50.3313208
   4.1291237  57.0031452  49.8444128  26.3609886  49.7727060  26.9790673
  26.1500263  50.0133085  26.0769391  26.3680863  50.6041479  27.4532890
  38.2504773  47.5868058  59.9327421  38.0774033  47.8481347  59.0283167
  38.7847090  46.7963147  59.8555892  33.5084271  22.8939128  10.1195192
  32.7975893  22.4141002   9.6944046  33.9551997  22.2368884  10.6533217
   6.2717068  49.1246986  35.3127098   7.1545285  48.7551594  35.2953911
   6.2681884  49.7008753  36.0770655  63.1421355  74.7508240  25.8257723
  63.5374204  75.0049114  26.6596889  62.3866621  75.3311014  25.7321429
  23.6665225  34.8984742  10.7665563  23.2759690  34.4738078  10.0027776
  22.9886293  34.8495293  11.4405727   9.1995865  35.1869249  38.5020876
   8.3531392  35.3230000  38.9278150   9.1341645  35.6708527  37.6788211
  62.5514844  49.6607304  20.4123068  62.5159195  49.9160051  19.4904602
  61.6386524  49.5009613  20.6519771  53.0261548   5.7376296  31.9231987
  53.9017947   5.4119594  32.1315908  52.8267939   6.3555915  32.6264858
  61.2424150  27.1573782  33.4431434  61.2377182  28.1139231  33.4782410
  62.1269778  26.9120884  33.7144613  70.0194940  45.9719944  36.7666912
  69.8198673  45.8775854  35.8353114  69.1976777  46.2667036  37.1591139
  75.5931790  32.9693509  55.4573333  75.2045568  33.4946300  54.7578436
  75.9009846  33.6118842  56.0965830   4.2476957  51.0183336  62.9251848
   3.5638110  51.6266347  63.2053627   3.7951009  50.1816369  62.8187421
   3.1853548  51.5363121  38.6761642   3.0498850  52.4828768  38.6326861
   3.2635811  51.3482618  39.6114445   0.7398209  51.8782997  30.5052781
   1.2079760  51.5732384  31.2824535   1.1313652  52.7292919  30.3084636
   3.7958629   6.3350112  23.9606619   4.6376880   6.1111553  23.5638618
   3.2127817   6.4853580  23.2165885   4.8806739  37.6122785  26.3693738
   4.1068745  38.1557322  26.2206292   4.9005887  37.0142794  25.6222248
   4.1198754  33.1890106  61.3538885   3.8892779  32.9246783  60.4632807
   3.2882324  33.1851172  61.8277979  69.8412755  27.1639734   0.5782360
  69.5281234  26.9292074   1.4517635  69.4971648  28.0446440   0.4291100
  10.1418734  69.0661907  16.3458097   9.2265308  69.3247414  16.4532065
  10.5800021  69.8590565  16.0365438  29.9473906  53.9470148  31.6407180
  30.1078248  54.0880585  30.7076573  29.0144229  54.1289043  31.7535019
   4.0660158  52.3301268  50.3962278   4.2117429  52.1884727  51.3316011
   3.1476399  52.5926924  50.3339672  26.4895457   7.4517639   5.0440001
  27.0645875   8.1673343   5.3151482  26.0713613   7.1604164   5.8542281
  43.5136160   2.8107267   3.6228127  44.4348273   2.8783852   3.8738579
  43.2506970   1.9363075   3.9100355  79.7495087  66.3729860  54.6560687
  79.0863379  66.5017320  53.9779371  80.3943928  67.0615770  54.4942206
  70.8086333  18.9444029  30.8815217  71.5672252  18.7461758  30.3324533
  71.1584512  18.9729977  31.7720509  22.6067328  35.3481197  34.6719313
  21.8743157  35.8803511  34.3612385  22.8618526  35.7525086  35.5011559
  21.1722183  38.5698938   9.9593228  21.6148663  39.3987799   9.7769928
  20.2399850  38.7856483   9.9343538  71.4174459  50.2337790  38.8266444
  71.2781880  49.4088650  39.2917848  71.3307861  50.0045824  37.9013371
  16.5725970  37.5279927  19.2525184  16.2863874  36.6146183  19.2445219
  17.2427785  37.5630164  19.9350595  68.8629261  31.5863090   5.0863546
  69.7029498  31.1507994   5.2309984  69.0917936  32.5027662   4.9315590
  65.2996508  14.3657613  56.9150591  65.6113389  14.8627472  56.1586952
  64.4785562  13.9715230  56.6207600  15.4853535  65.4099131  34.6463227
  15.4010987  64.6963453  34.0139031  14.8087299  65.2320957  35.2996159
  48.5119699  11.6600753  51.8974584  48.7659993  11.1339809  51.1392206
  48.1307181  12.4535324  51.5215569  27.2323275  73.2653666  29.6011710
  27.4644709  73.9952803  30.1752520  26.3303709  73.4462166  29.3366003
   4.3118565  10.3357173  58.5833227   5.0072305  10.9192611  58.2797372
   4.0877120  10.6631233  59.4544124  75.5149142  67.3229283  63.4738940
  74.7591130  67.9026813  63.5681468  76.1372510  67.6317519  64.1323453
  10.4973829  63.2669210  36.2956548  10.6643176  64.0530491  36.8156219
  10.3941977  62.5691843  36.9427609  33.7067270  34.7835350  28.8815069
  34.3159699  34.1795921  29.3061352  33.0338287  34.2179489  28.5026240
  10.5848300   8.0819976  26.3047504  11.4984989   7.8089982  26.3878942
  10.6302857   8.9555025  25.9159636   6.9036132  68.3704710  14.3785143
   7.2999018  68.0818415  13.5563946   5.9726381  68.1717443  14.2783880
  75.7327683   6.4828880   7.2988927  75.2590115   7.1486194   6.8003142
  75.3650601   6.5374381   8.1809628  27.0610213  38.6542344   0.9907500
  27.0683312  39.2120862   1.7685550  26.1609173  38.3334851   0.9344999
  31.7711926  72.4365807  22.7717853  31.4538479  73.3395672  22.7598572
  31.1603665  71.9756174  23.3467937  71.8225262  15.4376447  48.8789415
  72.1515921  15.8615136  48.0862999  72.5570098  14.9085975  49.1901875
  38.6772799  37.8503275  15.6824219  38.6500192  38.8001871  15.7975614
  38.1557846  37.5061011  16.4075291  30.1679564  44.5864105  22.8343320
  31.0226393  44.8545504  22.4969125  29.5368433  45.0265408  22.2649312
  25.5847716  55.6450701  31.2689376  25.6887293  54.9763966  31.9459152
  24.6385074  55.7727194  31.2016749   5.6041050  74.3624306   8.8041335
   6.2314355  74.9963188   9.1518033   5.4730237  73.7387609   9.5183372
   1.0683443  16.6689110  14.4462013   0.8054552  16.6979504  15.3661346
   1.0586099  17.5839210  14.1653204  26.3945850  16.0425861  12.4174142
  26.0803217  15.1619346  12.6221526  27.1562688  15.9004505  11.8553948
  11.4569855  65.1290655  38.2131457  11.3236475  65.1700878  39.1601253
  10.8496809  65.7778168  37.8574347  61.1213149  26.1225273  51.0435110
  60.3766276  26.4166500  50.5189520  61.3503976  25.2686502  50.6765717
  53.4462333  67.2030109  63.4205286  54.1539741  66.8082303  62.9111360
  52.7393198  67.3322863  62.7882354  15.9759057  24.5295835  28.1114912
  16.8902469  24.6817183  28.3503795  15.9956741  24.3906021  27.1646404
  32.2042806   2.2968252  31.6434956  31.8810274   3.1901557  31.5264583
  33.0685408   2.4049337  32.0404840  18.4358346  67.3319578  60.6268263
  18.9166522  67.7144480  61.3608217  18.9534557  66.5676069  60.3737068
  34.9121262  26.0801895  47.6066732  33.9917333  25.9968002  47.3573637
  35.3948499  25.7080181  46.8686438  46.1790188  12.2604377  32.3987627
  45.9725733  12.8258903  31.6545343  45.3345342  11.8965633  32.6645994
  13.2148743  58.1836081  27.3887587  13.2261908  57.5038242  26.7149639
  12.2872794  58.3039474  27.5920224  36.5084338  37.1785593  20.7586575
  36.6210341  36.3138318  21.1533761  37.3266363  37.6372671  20.9493446
  28.3971834  66.5303278  26.2840223  28.3890581  66.8874407  27.1720743
  27.4780941  66.3437033  26.0925007  70.6868050  27.9908133  37.1142459
  71.1663613  27.1648240  37.1774864  70.0486669  27.9524255  37.8266621
  73.2872439  67.2357196  49.7650689  72.7143717  67.7156610  50.3631562
  74.0117359  67.8371781  49.5930463  74.1179648  57.6204300  23.5999155
  74.5760408  57.6044130  22.7595925  74.3585709  58.4617615  23.9878631
  26.0026932  54.6317291   0.1372730  25.4853058  55.0478649   0.8267447
  25.6859922  53.7287903   0.1120764  47.3641825  23.1662035   7.4119067
  47.0233202  23.9932704   7.0713139  47.5060987  22.6270700   6.6338146
  78.0045103  66.8751526  37.1065760  78.0622028  65.9667540  36.8104100
  78.7248799  67.3191452  36.6591740  30.8567977  55.1028872  33.8962913
  31.2686801  54.4449806  34.4564199  30.7238913  54.6562862  33.0601597
  39.9517083  69.8673201   7.3108453  39.0229464  70.0688696   7.4249119
  40.0606537  69.7670507   6.3651663  10.1321840  38.7906766  32.9432058
   9.8883522  37.9448652  32.5672030  11.0695326  38.8701487  32.7663112
  32.9536867  69.8614407  16.5957642  32.8098655  69.2454290  17.3141491
  33.9058065  69.9146032  16.5128338  19.4981217  29.1507435  40.9460688
  18.8137460  29.1569328  40.2768707  20.2867913  28.8740063  40.4795408
  31.6105914  56.6421890  27.8167009  30.7410312  56.9070387  28.1166220
  32.1035242  56.4833689  28.6216998  37.0495820  44.7662687  34.3231988
  37.4058533  45.3598881  33.6622024  37.5205517  44.9909401  35.1256585
  15.9147727  26.1242819   1.0790253  15.7522523  26.0005498   0.1438732
  16.0878420  25.2432132   1.4106828  73.6187193  50.5659294  48.0326366
  72.8853068  49.9596167  47.9291010  73.9459190  50.3973818  48.9162445
  27.4350338   4.8186405  15.8377540  27.6332268   5.7539470  15.8842170
  28.2532178   4.3878515  16.0852003  14.3359423  36.6910291  33.3845115
  14.5793390  36.2850666  34.2164874  13.4068584  36.4855647  33.2804990
   9.8059994  35.2861357  41.5927410  10.4593623  35.4803658  40.9207106
   9.8657411  36.0202074  42.2041321  26.8297601  51.1250305  19.3444729
  26.7890787  50.7772923  18.4536004  27.7653146  51.1683083  19.5422041
  68.1506148  66.3753319  12.6030445  67.7483335  67.2315931  12.7486849
  68.7180034  66.5034485  11.8428540  15.0796957  65.8638691   2.1360582
  15.0411959  66.6571735   2.6703018  14.9697693  66.1747120   1.2374348
  27.5424504  45.3465319   4.7099856  28.2426500  45.8757257   4.3280119
  27.9331970  44.9630117   5.4951370  29.4062638  48.6384010  26.0520148
  28.5358095  48.4384298  26.3963246  29.9508476  47.9044914  26.3366795
  14.5723116  45.2567911  28.6252952  15.3320992  44.8494816  28.2093000
  13.8263965  44.7409391  28.3191252   3.0810180  71.1028481  12.6373219
   3.9668092  70.9768629  12.9775190   3.2094765  71.3615084  11.7247295
   4.1953963  69.1070843  45.0392580   4.9043921  69.5941877  45.4591179
   4.4667080  68.1910086  45.0978661  14.2224109  55.5838108  44.1607904
  13.9784896  55.7997417  45.0608492  15.0148821  55.0540638  44.2479277
  28.0473757  57.0383978  31.2528324  27.8127837  57.7974606  31.7867064
  27.2256207  56.5601444  31.1422920  20.0339198  50.0480366  14.4030678
  19.3495584  50.5961609  14.7870505  20.4331064  49.6040535  15.1512396
  16.9551349  17.8790128  37.1941829  16.3355553  18.1989110  36.5384245
  16.8519294  18.4780991  37.9335570  54.6026008   8.2044412  60.4978761
  55.3101325   7.7110101  60.9127933  54.9443694   8.4320642  59.6332293
  21.9742934   2.8150894  46.7352599  21.9311683   2.9321529  45.7862252
  22.4236219   3.5982658  47.0530194   7.2331220  36.7605519  53.1824112
   7.9536688  36.5099788  52.6042604   7.4518108  37.6479483  53.4669018
  66.4732793  67.7643871  31.4465976  66.6030661  68.4065580  30.7487369
  66.6268650  66.9186544  31.0254359  38.8329458  53.0527449  28.3790112
  38.9609408  52.1242046  28.5730743  39.1486573  53.1555367  27.4812388
  69.9784676  23.9561105  35.0223732  70.0141487  24.4859242  34.2259717
  69.1068057  24.1218877  35.3814745  73.5968361  29.1864967  24.2757010
  74.3862471  29.7270226  24.2458224  73.9193836  28.2876658  24.2101383
  72.1676407  43.2922363  44.0567350  71.4666495  42.7199745  44.3687630
  72.7087817  43.4516287  44.8300362  15.5052137  45.4449987  49.9770117
  14.7076309  45.9388733  50.1672268  16.1455703  45.7714701  50.6091452
   9.1481464  24.1721107  62.9481998   9.4714396  23.9402868  63.8188153
   8.5043924  24.8623086  63.1077006  41.6078313  15.0751312  16.4433181
  41.4136131  15.7735069  17.0684481  41.5435369  15.4962547  15.5861402
  79.5483287   4.5106841  51.0120517  79.6035202   3.6366893  50.6256336
  78.6678560   4.8147823  50.7917756  21.9768906  57.8810024   4.2782903
  21.4864683  57.4897051   3.5553786  22.4041581  58.6454058   3.8918093
  57.9380718  36.3223553  15.8610356  58.7985221  35.9301496  15.7126045
  57.4625746  35.6693625  16.3745880  39.5016146  66.3399124   5.0213832
  38.7324262  65.8816242   4.6829250  39.4963026  66.1554289   5.9606218
   5.4547501  56.7230129  38.6936355   4.9791706  56.4145422  39.4649339
   4.8032671  57.2107887  38.1897759  34.7527303  11.6481216   6.3770610
  35.2415951  11.8848903   7.1652132  34.4096001  10.7738120   6.5616590
  33.0839396  62.7888680  29.3335891  32.3657036  62.1738625  29.4823766
  32.8214121  63.5814762  29.8016477  13.2899523  57.7098894  33.2161736
  13.7706292  58.0511427  33.9703155  12.3805571  57.9608011  33.3782649
  26.7280698  69.4009304  16.3272762  27.0194769  68.4891748  16.3233757
  26.1834168  69.4816494  15.5442882  10.1849282  62.1434402  23.6553860
  10.5213559  62.9721689  23.9963531   9.4638944  62.3966503  23.0789971
  18.4606950  12.2361995  63.8275113  19.4113891  12.2858955  63.9272045
  18.2594697  12.8642036  63.1337178  19.4045396   2.4463661  47.4305534
  19.1803880   2.3374612  46.5063620  20.3605415   2.4930436  47.4412537
  16.0939789  29.3151879  28.2453990  16.3425899  28.8319373  29.0333676
  16.4845145  30.1812315  28.3623624  35.5190563  47.1387053  35.4325342
  34.9235845  47.6054049  34.8461580  36.3086557  46.9983721  34.9099731
  33.1898594  42.5202417  25.0220132  33.3695078  41.7371845  24.5016432
  34.0058398  43.0197811  24.9925756  27.8684263  11.0008342  24.6355963
  28.7356140  11.3386352  24.8594379  27.4344407  11.7298896  24.1924644
  16.7045562  63.5854436  49.6364039  17.0678680  64.3327810  50.1115161
  16.0050695  63.2589151  50.2023762  50.2372913  33.7530710  57.9135012
  49.4696687  34.1590310  58.3162218  49.9161549  32.9175664  57.5743305
  37.4305511  73.6272955  37.7158237  36.8158007  73.1110620  37.1944618
  37.6102924  74.3992901  37.1792197  27.0130658  44.4179916  39.6713781
  26.4063549  43.7699699  40.0294352  27.8433013  43.9488268  39.5887756
   5.6845665  53.9695835   2.1814871   4.9838477  53.3678913   1.9301049
   5.2657014  54.5885563   2.7795324   5.6581658  57.5506592  22.8736877
   4.7491550  57.4854994  22.5809669   5.7210159  58.4205675  23.2680750
  63.9819177  18.8104923   9.2537951  64.9291666  18.9241321   9.3314946
  63.6215384  19.6808441   9.4236368  21.9712162  52.2797775  15.5467844
  21.7164969  51.5501261  14.9820209  21.2141323  52.8654146  15.5375636
  26.4403892  58.6624861  32.6605964  26.4322305  57.8878164  33.2227778
  25.5158591  58.8531590  32.5021195  31.3825488  53.7428665  26.5208507
  31.8826795  54.2340946  25.8690882  31.9231343  53.7730885  27.3102093
   3.6225490   3.2819475   2.2216743   2.7646880   3.7061799   2.2399897
   3.9434765   3.4288991   1.3319344  11.8589556  59.8889446  22.5999975
  11.7023408  59.5077991  23.4639621  11.2831354  60.6528759  22.5672698
  25.2936125  50.3455257  16.5360081  24.9739051  49.4597101  16.3646817
  25.3226995  50.7605696  15.6739628  44.8955488  72.2284698   3.8574973
  44.5002270  73.0993795   3.8958567  44.5206594  71.7621517   4.6046513
  12.0729303  68.7787533  19.7257674  11.4900243  68.7672663  20.4849243
  11.6261876  68.2402086  19.0726030   4.0407598  63.8309002  58.9633226
   4.5401040  63.1295252  58.5450363   3.2304329  63.4097958  59.2501593
  15.2365112  55.4554605  27.2411609  15.3189182  54.5337152  26.9965696
  15.0126004  55.9009838  26.4240885  47.6437521  64.9254274  30.4959202
  46.9085169  64.3237877  30.3788829  48.3828545  64.4848442  30.0765800
  27.2135051  25.6335075  17.2983575  28.1313746  25.8330161  17.4825978
  27.0225878  26.1092288  16.4899838  78.2329883  64.7790098  30.8811116
  78.6527776  64.1633701  30.2802801  77.3507771  64.4288969  31.0050392
  75.2562698  17.5064660  52.4383718  74.4263585  17.5494148  52.9133838
  75.1873167  18.1914474  51.7733317  30.9864010  14.1041000  20.5542254
  30.5822341  13.9015682  19.7105086  30.2599759  14.0897090  21.1773896
  36.8799114  66.2310934  40.8486414  37.2529721  65.4673576  40.4084587
  35.9653091  65.9951353  41.0037374  79.8079931  56.6111040  20.6663203
  79.4315413  57.4890518  20.6052923  79.1570640  56.1046314  21.1521292
  20.1753156  40.9871103  63.6131003  19.3376748  40.5779458  63.8302985
  20.0988643  41.2116720  62.6857604  63.9063557  40.3427030  64.0003168
  64.7725423  40.0454904  63.7217208  64.0110870  41.2829782  64.1457486
  14.5548320  71.3721943  30.1240015  14.9556637  70.7906675  30.7700610
  13.7089121  71.6070938  30.5054116  24.5967674  37.7727771  33.8580799
  24.5312381  37.4398232  34.7531104  23.7320828  37.6138902  33.4795189
   1.1664098  43.8110018  25.4022741   1.0667308  44.7316027  25.6447458
   2.0335695  43.7618208  24.9999738  37.1962380  59.8689032  40.1907969
  37.3877144  58.9494896  40.3758478  36.5338135  60.1105881  40.8381128
  33.2573867  68.5945845  31.8471837  33.1346440  68.6528397  30.8996749
  33.7764788  67.8002739  31.9730639   2.2578041  38.1040050  58.2895756
   2.8618161  38.8398029  58.3896166   1.4166681  38.4409620  58.5980975
  10.3650737  26.5437656   2.2102350  11.1002445  27.0681911   2.5276178
  10.7343840  26.0185057   1.5003437  28.9873242  56.8958759  28.7626934
  28.5954499  57.6203537  28.2750463  28.6484814  56.9950151  29.6524072
  69.1439822  32.7810818  20.7960505  69.9654904  32.9493099  21.2576288
  69.4078293  32.6108557  19.8918146  31.4659882  59.7702742  27.2508001
  32.3797512  59.6467447  26.9938731  31.0001683  59.8989630  26.4245534
  21.1767173  57.8618240  29.8482966  20.8509207  58.7539673  29.9673295
  21.5075111  57.8454733  28.9502215  54.2889340   5.8323200  36.5934658
  53.5970886   6.2909706  36.1167908  54.3397887   6.2844188  37.4356318
  66.8732675  49.3723871  62.3298922  66.2982948  49.4252778  63.0933329
  67.5075694  48.6916067  62.5544747  32.7686191  66.4781570  20.5377245
  33.2122231  65.8321381  21.0873652  31.9928122  66.0224342  20.2111173
  10.4864371  59.3712282   8.1618154  10.8936882  59.1816139   7.3165786
  10.6823170  58.6039591   8.6995536   1.8988006  16.6666938  64.5863029
   2.4741881  17.2302438  65.1035799   1.0144608  16.9193889  64.8514859
  30.4562569  56.9894028  25.1332951  30.7825398  57.8104544  24.7649908
  30.9493542  56.8788862  25.9462357  10.0061889  10.5118854  38.0929518
   9.6989353  10.8895023  37.2687936  10.9488638  10.6779868  38.0957937
  27.8565478  56.3373566   6.0920858  27.5022888  55.9220457   6.8783730
  27.6749706  57.2696066   6.2111121   1.0451079  72.8532267   5.0769299
   1.1296374  73.7702084   5.3381294   1.3726804  72.3589706   5.8283567
  14.5795059  63.4569597  53.6722755  14.5422065  62.6086521  53.2304478
  13.9226842  63.9896393  53.2238674   9.9459559  46.1899757  64.5854521
   9.6960062  45.3166151  64.2838049   9.8904830  46.1387825  65.5396748
  48.8962896  12.6910407   1.9808398  48.4806855  13.4262760   2.4313124
  49.8336275  12.8785045   2.0307150  13.6476409  13.9128888   4.1583580
  14.1217005  13.2120073   4.6058661  12.7239323  13.7051129   4.2991492
  48.8696487  21.7284210  20.3602242  49.7305258  22.1142394  20.1981521
  48.5757120  22.1329410  21.1764336  12.2181749  56.1048889  25.5887365
  13.0846345  56.0150337  25.1919913  11.7739308  55.2824450  25.3826618
  12.7481095  62.7407457  58.0496192  13.3139221  62.6430131  57.2837621
  12.8423755  63.6594201  58.3013755  19.7981562   3.5860975  31.8716884
  19.4977798   3.3838565  30.9856272  20.2731885   4.4121272  31.7808557
  72.9285813  35.9444140  59.0956294  72.9319191  35.0733531  58.6988002
  73.1291819  36.5380333  58.3720213  75.9134582  47.5325727  36.3746190
  75.2908421  47.6048040  35.6511784  75.4545135  47.0129728  37.0346284
  51.5478070   2.1761806   2.8381521  52.4035890   2.5981195   2.9145780
  51.0194524   2.7956207   2.3347975  77.8774758  56.5439463   3.4888759
  78.0964378  57.0200634   4.2898762  78.7022517  56.1419678   3.2161349
  35.9813881  62.5377417  48.3005571  35.2595878  62.9946423  47.8687239
  36.3168764  63.1682730  48.9378262  37.8658533  69.9080038  17.9203045
  38.5712719  69.5018482  18.4239459  37.5067329  70.5747175  18.5057604
  10.5437613  27.7127242  19.2954183  11.1884058  27.0076561  19.3549597
  10.3099918  27.7458119  18.3677924  24.6795130  73.4254599  27.6548862
  24.1810513  73.4415817  28.4718966  24.1198921  72.9482269  27.0422649
  33.9953017  54.8502970  26.1888075  34.4955754  54.0717936  25.9440780
  33.7779737  54.7151756  27.1111631  16.0043152  20.7892043   3.0050874
  15.1925083  21.2896545   3.0872244  16.2526150  20.5858619   3.9068824
  75.8417076  71.5125704  11.3035250  75.7807175  72.4218321  11.0106874
  75.0046650  71.3435650  11.7359936  28.4521127  69.5346355  39.1787529
  29.2724895  69.9855614  39.3784380  27.8595209  69.7914696  39.8852253
  75.5402263  19.2345722  28.4868765  75.2497132  18.9467628  27.6214314
  76.2419589  18.6261852  28.7185454  24.2787361  65.7557011  55.1269102
  24.7571516  64.9268341  55.1087713  23.9720774  65.8749628  54.2280388
  26.8709016  71.4507866  41.2804890  27.3501968  70.9154797  41.9129086
  27.4666882  72.1717072  41.0766649  48.6358483  11.6508014  22.4029303
  48.1147416  10.8563335  22.5191426  48.5681422  12.1065147  23.2419610
  55.4772909  21.4140231  35.3914428  55.5074890  21.5730007  34.4480205
  54.5999511  21.0645110  35.5474734  77.6675891  16.1622150  36.0666394
  77.9531502  15.9438236  35.1795125  78.4788369  16.3409908  36.5421939
  20.1025343  73.6263037  37.7484488  19.8439085  72.7441216  37.4818039
  20.6312013  73.9514542  37.0197368  14.6139216  69.9384642  27.6990104
  14.4656610  70.5923462  28.3821583  14.5525157  70.4297781  26.8798208
   2.6277749  61.8959047  60.7796424   3.4506337  61.8317510  61.2644335
   2.2179143  62.6960470  61.1083001  56.6478951  12.5363738  57.4152470
  56.5764387  12.2845657  58.3359623  57.4654134  12.1354396  57.1200371
  20.3625552  19.4734580  15.2702498  20.5728118  20.4006297  15.1590145
  19.7006194  19.4592292  15.9615338   7.4423438  65.1033783  20.9892249
   7.6578760  64.9007320  20.0788879   8.2720351  65.3846264  21.3748956
   0.1211412  37.7360256  46.3178921   0.9631188  37.7190215  45.8629036
  -0.3822510  37.0275886  45.9167051  62.7713330   8.8071449   2.2616225
  62.6821740   8.1863029   2.9847029  62.5486834   9.6553237   2.6453531
  47.9568768  61.4393330  35.7698345  48.1346464  61.0877609  36.6422033
  48.7757778  61.3150358  35.2900648  11.0126436  39.4249105   5.9476495
  11.3913524  40.1294899   6.4733696  11.1715388  38.6319971   6.4597738
  26.4644599  62.6229334  27.9312229  27.3973656  62.5070763  28.1114984
  26.0344887  62.4391270  28.7664294  34.0792669   0.7314021  64.9788857
  34.8480190   1.2818105  64.8295307  33.7260933   0.5707128  64.1038513
  17.4981022  34.6025944  33.6838126  17.6240766  33.9153647  33.0295348
  18.3723569  34.9684167  33.8182974  53.1827076  28.6322505  51.5192366
  52.4243481  29.2040355  51.4001465  53.0382092  27.9118640  50.9057188
  49.7231484  70.3349728  64.5188082  50.4637718  70.0277323  65.0416016
  49.1993499  69.5495552  64.3607405  23.4767246  59.4439220  51.5549660
  23.0784512  59.2322874  52.3992538  23.8178968  60.3312397  51.6667891
  54.1553004   1.5266139   5.8660519  54.0449889   0.5877454   6.0163355
  55.0878532   1.6847427   6.0129160  75.2132958  70.3544140  30.0991845
  75.6502498  70.6488180  29.3000436  75.2760813  71.1006784  30.6953239
  24.7851659  20.3998763  18.7195814  24.5165484  19.5424850  18.3894932
  24.6657760  20.9908874  17.9761541  23.0984616  41.1424446  23.3013201
  23.9070320  41.3021040  23.7881017  22.4269843  41.6190338  23.7893915
  43.9885139  73.8059425  59.3339920  43.7998819  73.2506275  60.0904799
  43.2317162  74.3885040  59.2698669  41.5863009   0.1859958  31.7233014
  41.5820654  -0.1248257  30.8179808  41.8740352   1.0968978  31.6624546
  28.7729216  72.1469212  44.3711805  28.9334393  71.2208366  44.1899872
  27.8895998  72.1693611  44.7392464  28.4828639  61.0772371  25.5797148
  27.6550555  61.5257120  25.4069710  28.2888699  60.4890680  26.3095450
   5.9771792   7.0117385   7.0380998   5.3126208   7.6065070   6.6904736
   6.5307586   6.8047340   6.2851524  35.7873487  66.0348421   1.6097635
  34.8758888  66.2282854   1.3905567  36.2893772  66.7263037   1.1784023
   7.8031391  38.6793303  46.5228987   7.3220575  39.5042777  46.5881252
   8.7061357  38.9421129  46.3446426  79.7067721  17.7433402  37.0688558
  79.5393641  18.2724960  37.8487301  79.7052176  18.3726222  36.3475776
  24.0495060   1.7319066  57.7962112  24.3211286   2.6497562  57.7933598
  23.3695953   1.6812475  57.1243620  38.7883806  69.5035601  26.4520001
  37.9607487  69.0317059  26.5447831  39.4487143  68.8153267  26.3712072
   4.0721249  18.6434465  35.7186693   4.6998763  18.1042343  35.2376169
   3.2314563  18.2039267  35.5908770  34.0179467  60.2572298  26.6891694
  34.3325973  59.5344305  26.1462235  34.4455719  60.1250076  27.5352693
  13.5554099  28.2043004   0.2968233  12.6455569  27.9161692   0.2234869
  13.9525294  27.5890684   0.9132803  39.8302138  65.9900230  38.8523584
  39.6102441  66.8098516  38.4099489  39.0043211  65.5073804  38.8868218
  69.1275366  22.7014305  39.0495091  68.9557965  21.7664291  38.9376455
  68.3846267  23.1335069  38.6280542  78.9249318  62.4804783  33.7254763
  78.9856496  62.1158552  34.6084237  78.6273507  63.3805466  33.8579798
  62.4414110  68.9041567   7.9784495  61.9454193  68.2962656   7.4300957
  62.0242071  68.8463354   8.8380015  46.1157890   9.9690921  25.6876135
  45.5462535   9.4239528  26.2304664  45.6629165  10.8107574  25.6353664
   5.7380873  67.9005194  29.5477748   4.8407099  67.6632214  29.3140316
   6.2441397  67.1023035  29.3961358   4.9599591  72.2300005  23.3962345
   4.1971880  72.6363611  22.9847932   5.2847302  71.6122055  22.7411890
  66.5815027   7.7431686  25.4995775  67.2949059   7.1087463  25.5689096
  65.8304890   7.2278507  25.2051950  31.8088245  63.1464624  52.6341915
  31.5425563  62.2270441  52.6340771  32.0205593  63.3346128  51.7198610
   1.1320226   8.9353378  37.1389604   1.4200799   9.4138629  37.9163051
   0.1958863   8.7926872  37.2787428  73.8412163  53.0940008   5.2695781
  73.8888309  53.5269690   6.1219323  72.9334554  52.7980518   5.2016467
  17.8766620  67.7783537  19.5113826  17.5182629  67.8881121  18.6306238
  18.7253749  67.3576212  19.3738902  27.3467104  10.1937206  55.8760071
  27.8302313   9.6493537  56.4973831  27.9349640  10.9257038  55.6905699
  33.2990384  50.1703548   1.8586315  34.0573740  50.1339340   1.2756790
  32.6618719  50.7089329   1.3893977   4.4003384  35.9644367  42.0865661
   3.8024728  36.7006637  41.9571143   4.0525548  35.5050041  42.8508955
  12.6407731  29.4288516  25.8031750  12.6939905  29.5970130  26.7439842
  13.4652877  28.9913440  25.5910516   9.6527569  14.9897338  54.2769545
   9.2538373  14.9055148  53.4109276  10.3323333  15.6543018  54.1640192
  35.5815411  39.1168404  30.9700370  35.5532646  38.4330058  30.3008556
  34.7112131  39.5143843  30.9431577  59.2421389  58.5663700  39.5582175
  59.8401499  58.9541531  40.1971531  59.2967701  59.1445732  38.7973452
  50.5575943  43.9150381   1.8927668  50.0959826  43.7285233   1.0752328
  51.4832163  43.8033009   1.6760492  27.0212126  66.0830593  31.4952016
  26.2610364  65.7748461  31.9885278  26.7315459  66.0810804  30.5828857
  45.5660720   6.0332591  29.0559149  45.6947930   6.6775043  29.7520471
  46.0301979   5.2540309  29.3619084  22.0794582  65.7228041  39.6040130
  21.8169904  66.6414881  39.5459747  21.2573552  65.2351618  39.5531821
  35.9143615  54.2495918   7.1245003  35.3069329  53.5887671   6.7919749
  36.3965821  54.5423841   6.3512152  38.9946575  11.0032756  23.6897826
  39.3098004  11.5047080  22.9378033  38.0495472  10.9361274  23.5538077
  20.8618736  48.2418585  29.6432090  20.8347607  47.3491478  29.2988706
  21.0284400  48.1324863  30.5794382  17.8584087  46.5363264  32.4380040
  17.1412301  45.9452009  32.2089696  18.5103798  45.9720945  32.8537107
  49.9956942  53.9093637   6.1905962  49.5604277  53.6490583   7.0023948
  50.5199814  54.6723413   6.4339465  47.9880221  32.9671771   8.0334222
  48.0255611  33.5558994   8.7872303  48.5160597  33.4016807   7.3636389
  50.1514752  29.1473014   1.7585053  50.4397352  28.2366664   1.6961187
  50.4496439  29.4343097   2.6216108  35.4140210  52.9403830  34.6570301
  35.0505280  53.0617046  35.5341744  35.3997636  51.9930363  34.5207858
  72.2513266  32.3737146  63.1387181  72.8186460  32.1716501  62.3947078
  72.7890714  32.9249956  63.7071787  57.7727969  16.7531116  31.3220167
  57.5586541  16.2054450  32.0772862  57.4964722  16.2361820  30.5652761
  39.6174622  73.8296509  24.4198370  40.1430702  73.7102985  25.2108598
  39.4668865  72.9415464  24.0960598  24.3040627   3.6358316  22.7099895
  24.9758652   4.0318830  23.2650185  23.4810959   3.8162191  23.1643200
  47.7313097  13.9508636   4.2890847  47.1052869  14.5289333   4.7251609
  48.0286916  13.3566005   4.9780300  38.8959098  65.2638578  45.8408451
  39.5111561  64.8220301  45.2556181  38.0368972  65.1046371  45.4497242
  68.9110549   8.1494911  27.8218150  69.1810019   8.9880664  28.1961870
  69.6744759   7.8510196  27.3275137  33.5556602  60.8254004  19.3185115
  32.9645681  61.3411045  19.8670483  33.0015779  60.5007648  18.6087000
  25.9912729  67.5414610  41.9378328  25.3530645  67.1711302  41.3280964
  25.5765104  68.3406925  42.2625351   3.8765137  15.9462358  43.5253840
   2.9876916  15.6779100  43.7582546   4.2306440  15.2033521  43.0365568
   5.4054868  46.7354393  25.1071048   5.8496606  46.9789171  24.2949104
   5.1558262  47.5703430  25.5031276   7.9715411  28.8105298  42.8398663
   7.8858964  28.3438302  42.0085507   8.2517306  28.1402208  43.4630924
  18.0887246  75.4459190  13.3756173  17.7958000  75.2117109  14.2562830
  18.2821572  74.6073246  12.9566061  73.1030352  10.2372367  42.5541639
  72.4271090  10.6756694  43.0710173  72.6373084   9.5392043  42.0936394
  31.9140339  39.2696929   9.4301552  31.5011597  40.0673151   9.0991420
  32.5576258  39.0375876   8.7607169  36.3538218  71.7862511  25.5442810
  37.1156573  72.3019886  25.8085823  35.9402728  71.5301323  26.3686657
  75.7464011   4.9466903  60.9056282  76.3252480   5.3506000  60.2590799
  74.9520905   4.7334773  60.4158831  12.2697568  71.3124371  19.2791593
  12.2538865  70.4453087  19.6842206  12.0357335  71.1539125  18.3646464
   4.8444900  47.8784132  18.0625319   5.4607737  48.6107588  18.0723119
   4.6535471  47.7384281  17.1350741   4.4900504  63.0112457  27.1721435
   4.0124512  63.7054110  27.6263070   5.1574546  62.7305317  27.7982450
  26.1754107  62.4158764  21.4239645  25.9303737  63.3237219  21.6028476
  25.3774357  61.9147730  21.5923905  30.4682112  64.8209333  29.4738007
  30.2025604  64.5503473  28.5949111  29.9038219  64.3172503  30.0603151
  34.2263055  51.1581373   6.7331105  33.5362339  50.6704569   7.1827757
  33.8139033  51.9867420   6.4890271  33.5599041  75.0676584  24.4103980
  32.8946543  75.2480316  23.7462139  33.7115169  74.1246271  24.3476176
  75.9674294   6.7896755  55.4980659  75.7645591   5.8880908  55.2486229
  76.1283286   7.2375400  54.6675444  10.0280356  43.6459637  12.3267531
   9.6265024  44.4537163  12.6469696   9.3718070  43.2680178  11.7413032
  75.7034429  12.7506114  55.0514203  76.4900191  13.0179025  54.5759350
  76.0344322  12.2832681  55.8184069  78.9748243  51.1651134  18.8540351
  79.0680180  50.5417776  19.5744550  79.2934130  50.6920671  18.0852950
   0.8616750  31.8446638  57.6926696   0.4208104  32.6485731  57.4177110
   0.1493923  31.2385847  57.8965240   5.3934829   9.2028905  49.8615223
   6.1633460   8.7617303  49.5024627   4.9736445   8.5418750  50.4120010
  70.3929809  34.9875164   8.9864981  70.1379291  34.1874862   9.4459879
  70.4201863  34.7353077   8.0635238  75.6042579  56.5869570  15.9566224
  75.7056287  55.6633663  15.7265282  76.0880164  56.6839314  16.7768693
  32.6928139  42.4522114  18.7410200  32.8951550  42.8233242  19.5998371
  32.3178744  43.1815004  18.2472682  24.7126794  52.1019030  33.2674837
  23.9725852  52.5817156  33.6393309  24.3162036  51.5026188  32.6351070
  25.7000518  35.2198362   0.9534457  25.6933641  34.6383095   0.1931733
  25.8691335  34.6406412   1.6965315  13.8366556  64.0234327  43.9977074
  13.8653767  63.2223749  44.5208883  14.6883333  64.0556002  43.5620022
  38.7642856   8.6727626  27.2140622  39.1660805   9.4261749  26.7814255
  39.4353087   8.3586128  27.8200841  29.4887400  58.7157249  35.8790255
  29.3625927  57.8722858  35.4443645  28.8221812  58.7333202  36.5657759
  44.4977856  44.2991400   5.7688254  45.3790808  44.3600416   5.4002583
  43.9228773  44.6028709   5.0663602   8.7881935  57.9489708  22.2537971
   9.4850683  58.1495523  22.8785872   7.9790729  58.1424189  22.7272248
  71.5676482  14.1282756  52.6667976  72.4655707  14.2963130  52.9526758
  71.4588483  13.1821258  52.7626991  52.5936826   0.2158077   0.4924347
  53.4680088   0.5086810   0.2355070  52.4010141   0.7081849   1.2903553
  31.3748908  33.7374592  28.0938196  31.0214639  34.6234322  28.1736469
  30.8961821  33.2287621  28.7482667  45.1656723  58.4261751  20.5691290
  45.6305122  59.1551828  20.1583934  44.8088312  58.7945795  21.3773203
  49.5612049  67.3223543  20.5467868  48.9689589  67.6568508  19.8732984
  50.2968931  66.9542265  20.0574183  33.9393783  55.4196501  31.4588165
  33.8523793  55.9699297  32.2371840  33.8125181  54.5272684  31.7809844
  65.3953202  14.8225124  52.0474339  65.8073218  14.5712287  52.8740788
  66.0916384  14.7351177  51.3964844  64.8992606   2.2441198  33.3274632
  65.7770486   1.9504382  33.5713273  64.5817454   1.5735532  32.7226859
  11.9566528   5.3506900  52.2533458  12.0545451   5.9704257  51.5304512
  12.2085588   4.5059062  51.8803709  40.5044603  37.3668981   5.9520149
  40.9105301  37.0434451   6.7562014  39.9735522  36.6339898   5.6402242
  76.0342899  74.3757248  35.4330754  76.6818643  74.9864721  35.0811291
  76.4881060  73.5332966  35.4575992  61.2825330  23.6480619  48.9991313
  60.4143687  23.2506563  49.0668887  61.5024163  23.5861160  48.0695909
   3.9154196  58.3117968   0.0526804   4.8290300  58.2686048   0.3349585
   3.6427211  59.2056375   0.2598709  78.6072429  15.1962001   6.0039055
  78.0753262  15.3994567   5.2345020  78.3882459  15.8822162   6.6345036
  28.1597042  45.2886105  10.0823092  27.5658894  45.8762741   9.6151185
  27.6935244  45.0686359  10.8888578   0.2707974   1.7843492  51.0518456
   0.5565802   0.9202630  51.3483524   1.0000769   2.1097858  50.5241346
  68.9334472  27.7898605  39.3246174  69.2356713  27.2495468  40.0546503
  69.3067057  28.6544711  39.4959760  51.2990308  71.7829460  37.1742397
  51.3271618  72.1593017  38.0538970  50.9200144  72.4734062  36.6303259
  44.9300690  22.6701457  19.6458256  44.6946307  23.5976226  19.6216249
  44.1279133  22.2127540  19.3936968  58.7484550  63.6663961  10.9466708
  58.9522409  63.0123377  10.2781582  58.2496023  63.1860733  11.6074800
  37.9633112   4.3717964  20.8209968  37.3203595   5.0749214  20.7289958
  38.0944271   4.0489776  19.9294651  62.2900517  18.7467964  65.4372454
  61.6789801  18.1836803  64.9621344  62.7325781  19.2502506  64.7539186
  21.9502132  38.9552595  64.7319609  22.5001542  38.9747621  63.9487523
  21.0709350  39.1575624  64.4123181  19.6843505  73.8002968  52.8144550
  19.8737669  73.5114384  53.7071562  20.4190946  73.4727097  52.2957373
   0.6645553  32.1692516  64.6478144   0.0278871  32.5952674  65.2217426
   0.9273688  32.8533794  64.0320822  33.1545003  13.5414131  19.0532207
  32.8687175  14.0399845  18.2877243  32.4746467  13.6980922  19.7085702
  27.5109744  58.9225149   6.1718494  28.0614781  59.5705795   6.6113877
  26.9319248  59.4401073   5.6123525  76.4365872  34.8302890  57.1223354
  76.4342435  34.6610404  58.0644506  75.9484203  35.6478359  57.0246434
  60.5725431  66.5660095   1.6329929  59.6649408  66.5120411   1.9322944
  60.5565166  67.2227621   0.9368236  39.1790390  64.1879034  53.2097673
  39.2565584  63.3201981  52.8131342  38.9231634  64.7599792  52.4862432
  57.8109503  61.7162228  30.4088354  57.4213886  62.2361994  31.1117554
  58.6490393  62.1432066  30.2312946  41.9082303   9.5972354  36.6512132
  41.5630169   8.9420421  36.0447621  41.1725815  10.1890857  36.8085933
  67.3016973  49.6283246  59.7143763  67.2128006  49.7334005  60.6616300
  67.1390780  50.5025579  59.3601167  58.6764891  37.9982574  10.5424809
  57.8982790  37.4571044  10.6757808  58.9507778  38.2450302  11.4257157
  64.4355519  27.5707347  27.6701880  64.8668320  26.7197997  27.5917673
  65.0165613  28.1769760  27.2107077   5.2657287  19.6037776  48.8694096
   5.3438298  20.5561263  48.9255476   6.1142413  19.3131740  48.5350275
  29.3907332  70.6744337  20.6059742  28.6166143  70.3919649  20.1189590
  29.3852448  70.1362991  21.3975644  32.6051569  46.4734697   4.1451356
  32.2099233  46.6632032   3.2942408  32.0046115  46.8632889   4.7804430
  48.7302358  15.7993705  23.3551574  49.4670136  15.2125842  23.1846666
  49.0926225  16.4804752  23.9217281  54.9700880  73.6506081  13.0391586
  54.4188690  73.0458641  13.5358143  54.5450687  74.5020199  13.1425500
  62.8993566  23.5553939  32.7318716  62.8476079  24.4987590  32.5781941
  63.8330205  23.3535869  32.6704407   2.0767920  67.1678831  60.4544487
   1.1299126  67.0566083  60.5397248   2.2001927  67.4953653  59.5635181
  53.6526640  30.5835922  22.6692581  54.2759784  29.8681743  22.5432014
  53.3664401  30.8105667  21.7845058  32.7023125  56.8755722  14.6615124
  31.9359398  56.6855431  14.1204071  33.4457707  56.5799379  14.1360581
  73.3137336  35.6474548   1.5311331  73.3963481  36.4147812   0.9648985
  73.2750645  34.9065405   0.9263319  61.2741764  16.9251163  30.5542731
  61.0638078  16.3028724  31.2505436  60.8043273  16.5953166  29.7883081
  45.7231474  54.5779181  26.4953709  45.9326553  55.0808001  27.2824192
  46.4858437  54.6917820  25.9283042  54.0554865  15.3059108  50.4248762
  54.3722828  15.0883205  51.3015318  53.5685761  16.1216743  50.5417871
  63.6963327  29.0755279  19.5688951  64.0435393  29.4839103  20.3619289
  63.1466992  29.7514732  19.1723609  48.4713919   5.7590396  37.7535152
  47.8404291   5.5106933  37.0779085  48.8764961   4.9331386  38.0181146
  29.9482028   7.8588016  22.9324627  29.7207610   8.7686832  22.7411318
  29.3062178   7.5840289  23.5871363  78.4036627  24.6619707   4.7703451
  77.5800291  24.1870028   4.6596140  78.1390563  25.5382305   5.0503248
  61.3531192  40.7670791  47.0511293  61.4084585  40.8775718  48.0003166
  61.8522461  41.5020854  46.6949368  35.3696775  39.6507364  11.3138050
  35.7314110  39.8208385  10.4440683  35.0912094  38.7354713  11.2825817
  63.9093907  25.6965835  42.1554899  63.7095507  26.6301448  42.2244263
  63.0696376  25.2865417  41.9483232  38.6206055  65.3475428  25.5449963
  37.8492689  65.8496141  25.8080506  39.3622136  65.8940458  25.8049655
  27.2967601  60.3023148  14.8744500  26.6685033  59.8271656  15.4182863
  27.9401207  60.6445217  15.4951060  70.1810201  21.2816341  28.5784721
  70.2723105  20.5617626  29.2027235  70.0288184  22.0535571  29.1236305
  28.8169861  27.2313028   5.1152605  28.2526922  27.8516394   4.6537584
  29.0540600  27.6808363   5.9263987  57.4263127   1.6879756  21.0786080
  56.6237934   1.9217403  20.6121850  57.5432356   2.3886878  21.7201424
  56.2099059  12.6371772   4.2863810  56.4372928  11.7573936   3.9855331
  56.9514282  13.1805904   4.0197664  75.2612837  56.0521604  62.3682427
  75.4009040  56.9118120  62.7654074  76.0802205  55.8643247  61.9096666
  59.5925315   9.4865615   3.0573812  60.3742893   9.9662788   3.3311677
  58.9985974   9.5496471   3.8053745  63.0361398  20.4683788  16.6658509
  62.7480896  21.3426406  16.4033377  62.2629674  19.9163062  16.5489805
  38.1171389  13.9970500  24.9122143  38.0422337  14.8970611  25.2294064
  37.5472899  13.4908302  25.4912162  73.1888445  55.6077386  39.2096644
  73.1167348  56.1592962  38.4306818  74.1295989  55.5517389  39.3772346
  61.4718008  73.1600046  28.3187222  62.4263716  73.2308626  28.3211303
  61.2708855  72.6580191  27.5288677  11.3870740  53.4423738  11.7701048
  11.3124966  53.9889818  12.5523418  10.5743217  53.5997301  11.2895769
  77.1677478   4.6037872  41.6559649  77.3823340   4.7080285  42.5829601
  77.5227197   3.7459237  41.4229488  78.3706764  59.1172409  11.7497945
  78.5519891  59.9419880  12.2005129  78.7115817  58.4430838  12.3376095
  10.4644362  12.0907314  15.1118135  10.3491465  11.5817363  15.9142208
  10.9775512  12.8520114  15.3827333  10.3902308  27.5222309  40.4367161
  10.9268300  27.2915561  39.6783805   9.5338647  27.1374519  40.2501154
  48.3872414  72.7116966  64.1815519  48.4492874  73.1690741  65.0201130
  48.7565804  71.8454790  64.3532896  30.5344295  54.8792368  13.5349554
  31.1837339  54.1877943  13.4063190  30.0438833  54.6059328  14.3101353
  67.4322701  46.0168123  37.4590015  67.1078825  46.7015457  38.0439329
  66.9185257  46.1225986  36.6583109  18.5146570  65.4526472   4.6892276
  18.6872995  65.0038815   5.5168986  19.0236282  66.2614202   4.7445834
  63.9223941  39.5418460  38.7250495  64.7695287  39.1381557  38.9137864
  64.0775545  40.0689037  37.9412293  75.0778261  32.0602089   9.8316568
  74.3459836  32.6654440   9.7119612  74.7448340  31.3986975  10.4380840
  36.0353591   4.6677310  31.7095184  35.8877851   5.5369384  31.3367724
  36.7518683   4.3028982  31.1901522  51.2436152  66.9781160  38.1974077
  50.6335831  67.4211264  37.6076293  51.3983965  67.6093197  38.9001584
  27.6581685  43.8163282  56.5398448  28.5334747  44.1457082  56.3359427
  27.3422353  44.3913270  57.2368306  25.0884962  56.5233278  53.9431715
  25.1192927  56.2209606  53.0355024  25.7274699  57.2350597  53.9803362
  24.7017908  71.6485500  17.8504825  24.3963265  70.7424068  17.8076839
  23.8999557  72.1710157  17.8683603  18.0092112   6.5460880  25.6939960
  18.5122220   5.9995468  26.2977362  17.2245471   6.7872436  26.1863184
  56.1545236   3.6703689  40.3126001  55.6110485   4.1706998  40.9213161
  57.0530041   3.8560779  40.5855083  77.9318078  11.1685665  27.1061230
  78.5683377  11.0454280  26.4019227  77.3500378  11.8576629  26.7853165
  29.9783444  69.2738438  48.5217571  29.2555213  69.7960091  48.8697481
  29.6149755  68.8499355  47.7442598   8.8963564  51.3988883  41.4691877
   9.0333231  50.6199653  40.9299755   8.1696101  51.8573768  41.0474491
  47.8864636   8.1884529  57.2396844  47.1429475   7.9068805  56.7066425
  48.6523904   7.8317548  56.7898458  22.9151273  70.0729370  62.5282955
  22.1259618  70.6098127  62.6005268  23.5766983  70.6662321  62.1725464
  56.4130116  72.9411411  25.2395177  56.8233681  73.5627937  25.8406734
  57.0950699  72.7425003  24.5979810  50.9760094  57.3454237  20.0924945
  50.3032446  57.0968342  20.7263899  51.2718439  56.5151453  19.7191918
  36.6544080  71.6687918  44.1082191  37.4387264  71.1215925  44.1488218
  36.8422842  72.4006462  44.6958590  31.4777167   5.7190902  43.5291147
  31.0364823   6.1226470  44.2765617  32.4104829   5.8305557  43.7128305
  12.1505849   3.8680036   7.3596346  11.3345925   4.3412502   7.1970904
  11.8706004   3.0134208   7.6875460  68.3653927  52.0341015  28.4403563
  69.1331005  52.3584223  28.9111805  67.7180099  52.7338266  28.5270166
  68.0938955  37.9307081  63.4142638  68.8537462  38.2504941  63.9006734
  68.4582909  37.3146678  62.7786982  29.0299821  68.7491941  22.5390720
  28.7632465  67.8345442  22.6312351  29.9269104  68.7718868  22.8725934
  49.0485287  67.1328115  31.3565564  49.4482756  67.4456930  30.5450535
  48.5920954  66.3300228  31.1047101  78.9353037  51.0546970  38.6623955
  78.2832861  50.5833912  38.1437707  79.7756767  50.7068682  38.3640218
  39.7155046  61.9781113   7.4498719  38.8711953  61.8387842   7.8787822
  40.3548050  61.9393396   8.1612229  10.5112362  61.3169479   4.0656471
  11.3847029  61.3016272   4.4568682  10.1020634  60.5036974   4.3613309
  58.8386424   7.6334388  40.5207443  58.6149772   8.3645160  39.9447918
  57.9998215   7.3493202  40.8839083  62.5826938   9.7392661  28.9355445
  63.0031522   9.1613681  28.2987666  62.4686344  10.5671890  28.4688950
  70.4568091  64.2934370  20.1761961  70.9376613  64.0948534  20.9796762
  70.1583198  65.1954460  20.2924299  32.3173656  28.4852893  40.2545261
  32.1459897  28.6951167  41.1725855  32.6884551  29.2889793  39.8903871
  73.5881456  50.0083066  65.1288901  74.3684586  49.8610116  65.6633495
  73.8805040  50.6009485  64.4364121  36.2305331  74.2835808  55.3416872
  35.7325721  73.4769058  55.2092409  36.0566783  74.8038912  54.5572901
  57.8301056   0.2771814  30.8858871  58.7734015   0.4369504  30.8558869
  57.6455672   0.1051385  31.8092370  31.6108465  67.5737333  37.8220272
  31.7566514  66.7838383  38.3426428  30.9127927  67.3335314  37.2127199
  30.6841659  26.9578844   7.0555443  30.5966091  26.0155159   6.9123453
  31.6019058  27.0788771   7.2991508  71.0445292   9.7285659  21.8193388
  70.5162175  10.3577239  22.3105502  70.7719739   8.8741405  22.1538448
  26.3069741   9.0278531  64.6372951  26.7757432   8.2325841  64.3842540
  26.4082400   9.6143533  63.8876322   6.2107545  36.3858867  17.1454585
   5.7182753  37.2018647  17.2342014   7.0738864  36.6596127  16.8351197
   8.7494485   0.4954774  52.4389601   9.3428389   1.2160308  52.2270107
   8.3031098   0.7795150  53.2366657  46.9111013  73.1591988   2.4073792
  46.6693783  74.0793657   2.5126952  46.2030458  72.6753759   2.8325912
  70.4364708  61.2631464  26.6505289  69.6279744  61.1477709  27.1497822
  70.4525689  62.1951056  26.4327645  48.0702209  65.7685995  52.4191093
  47.6622772  65.2131605  53.0834103  48.8413668  66.1338139  52.8529119
  55.9550603  17.8479869  10.2857792  55.2646001  17.7369029  10.9393513
  56.1761101  16.9563014  10.0169671  29.2139101  43.0477285  39.4996691
  29.5749474  43.8429356  39.8914886  29.9270105  42.6993275  38.9645624
   2.4560181  42.9405792  34.6949840   2.4455850  43.6778552  35.3053546
   3.2003705  42.4080570  34.9753332  57.8186806   7.6086910  22.5465035
  58.6139448   7.5905330  22.0140958  57.2273906   6.9919593  22.1149325
  27.0829797  68.7666655  30.4951286  27.6996708  69.3206930  30.9736419
  26.9122076  68.0329275  31.0856342  73.4029825  55.3899671  50.1088804
  74.1033204  54.9068548  50.5474692  72.6713987  54.7736074  50.0754183
  53.3293247  72.0379543  50.1679564  52.4765348  72.4607706  50.2689934
  53.5341883  72.1312380  49.2375994  41.2193489  69.1941500  40.4285908
  41.0195446  69.1723490  39.4927311  41.5676260  70.0730085  40.5787325
  73.0758365  11.8608100  57.1562719  72.8986676  11.0618217  57.6527166
  72.2772916  12.0103176  56.6500998  40.2242708  64.1520834  41.3817739
  39.4621301  63.6043930  41.1935997  40.9495020  63.7147570  40.9356594
  37.3497462  55.5391359  24.8880911  36.8687415  55.8917427  24.1394019
  37.1992373  56.1728811  25.5894780  59.6128464  56.3337278  23.2191491
  58.7337542  56.2231112  22.8569508  59.5942497  55.8500767  24.0449619
  50.6589031  70.1275492  21.5641332  49.8647881  70.3842163  22.0328927
  50.6450558  69.1705179  21.5756083  58.6814292  30.6230838  18.9910257
  58.2849629  29.7586448  19.0996432  58.8636215  30.6869323  18.0534971
  47.9312713  10.9725101  40.4146910  47.0985301  10.7665164  39.9900222
  48.5939010  10.5835254  39.8438668  78.7351497  21.3098438   7.0819455
  78.7647660  21.5635497   6.1594558  79.6189959  21.4825160   7.4063343
  50.6502771  65.1032066  25.1034737  50.9232330  64.1879225  25.1666260
  50.3458261  65.2006388  24.2012262  29.9005413  73.0494976  15.2396607
  30.0817537  73.4407568  16.0942423  30.2898216  73.6570263  14.6106923
  49.0680933  73.0126238  15.7755184  49.2777634  72.0949078  15.9489155
  48.7504435  73.0192614  14.8725855  35.5780172  69.7369957  16.5777814
  36.2667942  69.7997570  17.2395062  35.8429956  69.0016460  16.0252595
  21.7554442  25.7250507  34.5688558  22.6640670  25.5959232  34.2969036
  21.2388913  25.4874618  33.7988186  42.8286743  50.2362919  62.8687096
  42.4931812  50.9675741  63.3872652  43.7803555  50.3304815  62.9094839
  52.2218037  72.8867149  32.7060437  53.1240559  73.0303383  32.9916120
  52.1475792  71.9367027  32.6155257  69.6806844   6.9628818  11.1114597
  69.1149981   6.1964424  11.2052333  69.6677621   7.3771102  11.9742918
  41.7190313  65.0713491  27.5791478  42.5846434  65.1189852  27.9849505
  41.8547630  64.5538807  26.7853999  56.2040265  34.6363742  27.7778578
  56.0880931  33.6927993  27.6662707  56.9025619  34.8659904  27.1650314
  25.9475660  74.8409462  43.7139511  25.0587153  74.7074413  44.0431166
  25.8449030  74.8997402  42.7640915  57.7592619   9.8983104  12.1202970
  57.0070918   9.3829448  12.4116218  58.0182369   9.4964321  11.2910450
  34.0691312  11.8205459  31.7418671  33.7454392  12.4526603  32.3836517
  34.9886902  11.6923530  31.9746971  28.3842325  51.9832659  28.1808853
  28.6873770  52.8537798  28.4388471  28.2262921  52.0538807  27.2394490
  47.0804699   4.6103341  30.7965159  47.2277816   5.0290496  31.6445756
  47.9568966   4.3821628  30.4865980  49.7086795  12.4669177  32.9974413
  49.1143210  12.2595889  32.2763395  50.5833538  12.3926647  32.6157808
  42.9969215  51.1928606  13.1684303  42.1885014  50.6940222  13.2861125
  43.5679197  50.6092310  12.6688564  49.2587836   0.3089435  37.1641898
  48.5429080   0.8973844  36.9244051  49.6516283   0.0567348  36.3285494
  30.6084108  32.9946810   4.3277163  30.7719564  33.4142452   5.1723761
  31.2634897  32.2987324   4.2751497  49.5943935   0.1918323  29.7273040
  48.6699064  -0.0213473  29.8542333  49.6114905   0.7165964  28.9269519
  52.6332378  74.4154358  37.6602244  52.1261740  74.3761921  36.8493152
  52.0380163  74.8127317  38.2959127  52.4615669  64.3657160  47.4586105
  52.5960684  63.6450815  48.0741024  51.5103579  64.4475937  47.3898554
  19.9849613   0.8229841  12.7525801  19.2574997   0.4236043  13.2295794
  20.5750186   0.0939382  12.5614161  41.0421868  11.2120731  13.8668978
  40.8829768  10.2986724  14.1047597  40.3561755  11.4172180  13.2316542
  53.2176740  20.4874713  32.3445606  52.8590591  20.5152709  31.4575124
  52.6742943  19.8462493  32.8025961  48.4992535  20.6342323  33.5389447
  48.3233817  20.9744651  34.4161820  47.6323660  20.4989154  33.1562877
  45.5870867  55.5043840  18.2868528  45.9329700  55.7648945  17.4331963
  44.7954416  55.0065327  18.0827272  65.1804908  33.5391624  46.0383177
  64.2954929  33.7226016  45.7231045  65.7509764  34.0404136  45.4556322
  16.1664033  44.5387745  26.1537290  15.4028416  44.6986294  25.5990624
  16.8079770  44.1368341  25.5680180  47.2318125  70.8994818  18.3303332
  47.1210003  71.7899370  17.9971027  48.1433678  70.8639336  18.6202085
  68.9477761  12.9097183  53.6599207  68.5137685  13.1144626  52.8317022
  68.5312636  12.0999057  53.9547968   9.4576661  13.2596595  49.1965055
   9.3313043  12.4308593  48.7345934   8.9660851  13.1570632  50.0114012
   9.9265305  19.6846683  22.4443173  10.5645720  19.2623622  23.0194640
   9.6590392  20.4711158  22.9199004  77.6442130  19.5223243  13.6620569
  76.8541701  19.7186859  13.1585717  77.5486548  18.6023528  13.9085555
  11.2162542  64.3452358  24.9338341  12.0177555  64.1370201  25.4139113
  11.1061418  65.2890253  25.0494576  16.7642609  35.8176429  36.8005443
  17.5137441  35.2222354  36.8025661  16.7010896  36.1262424  37.7044272
  45.5651236  62.8563309  18.9023137  46.0047817  63.6447096  18.5838854
  44.6358538  63.0858135  18.9073920  18.0054125  57.0641375  17.4032938
  17.4437079  57.8102207  17.1933496  18.3944830  56.8139601  16.5652800
  69.5559581  17.0042808   2.3594800  70.1809962  17.6660735   2.6554522
  69.3748172  16.4800460   3.1396037  21.2187505  71.2159777  35.4565811
  22.1530390  71.2715006  35.2559519  20.8993745  72.1131754  35.3603315
  14.9921100  67.5691606  29.8435169  15.4109161  67.3739244  29.0052372
  14.2740123  68.1614019  29.6203094  22.1654240  31.4176185  10.3999519
  22.3514954  32.0092780   9.6708804  21.2764947  31.1042030  10.2331960
  32.2264601  16.6456420  27.1642661  32.5222357  17.0380885  26.3428450
  31.9550522  17.3900611  27.7013016   2.8299920  17.0413787  59.6067619
   3.5453145  16.6295822  59.1220188   2.6265017  16.4208419  60.3065872
  51.5091228  74.1847038  35.4043460  51.4147902  74.9683523  34.8628402
  51.1648560  73.4755325  34.8614073  63.5996921  12.6900012  44.3034554
  63.3644493  12.1836288  45.0809383  64.3183310  12.1983917  43.9058304
  57.4878462   6.5389354  25.0248361  56.5594061   6.5675647  25.2559423
  57.4961121   6.5248496  24.0677738  45.7394739  70.9057676  48.1244183
  44.8751523  70.5320250  48.2961655  46.2266256  70.1984118  47.7018547
  71.1180231  42.1320295  15.0060380  71.3893703  41.2902069  15.3720152
  70.2000246  42.2199631  15.2625096  31.4446208  37.0134603  62.5036397
  31.0975817  36.4322007  63.1803471  32.3850966  36.8355547  62.4943474
  10.6016938  51.8134539   5.0261581  10.1235931  51.1182277   4.5741469
  10.0055616  52.5622289   5.0122267  54.1381690  62.2114854   7.0287561
  54.4674228  61.5976732   6.3722056  53.2504360  62.4200385   6.7377794
  10.9267366  54.7108269   2.6145536  10.7884979  55.1648521   3.4458065
  10.0939190  54.8004627   2.1512920  68.4057358   1.9298913  26.1491084
  68.0747155   1.3967104  26.8718648  67.7791933   1.7871729  25.4396677
   2.1056278  60.1983951   3.1201214   2.7093776  60.6712721   3.6929268
   2.5076301  60.2506636   2.2530073  67.3896757  24.5889616  35.6221700
  66.9692281  24.9319458  36.4107251  66.8506125  23.8392234  35.3701138
  58.4849873  22.7102995   7.2569066  58.7197724  21.8119454   7.4894381
  57.8639880  22.6162362   6.5345883  75.8385237  58.4426861  21.4482617
  76.6913589  58.7959783  21.1951017  75.3030594  58.5205536  20.6586766
  65.0201455  43.2809305  18.8138604  64.3818036  43.5936594  18.1728065
  65.0586108  42.3351145  18.6717832  25.8898624  64.9334948  23.0331683
  25.7937296  64.3425338  23.7799978  25.2259906  65.6083702  23.1747603
  67.2334798  50.6142609  49.5183897  66.4163299  50.1207369  49.4481564
  66.9661112  51.4760177  49.8379517  69.3085571  60.2196174  50.5687809
  70.2135761  60.5077069  50.6878519  69.0541120  60.5751042  49.7172403
  42.1874686  63.2429998  63.3209276  42.3038550  62.3628037  62.9632378
  41.2777014  63.4641044  63.1217623  12.1663031  12.6738519  48.0865568
  12.5692496  13.1755132  48.7952178  11.3522992  13.1399888  47.8959077
  25.1944232  35.1703525  29.7280574  24.8661947  34.3045950  29.4852304
  25.2211714  35.1566792  30.6847858   5.4492301  43.9765215  13.0781734
   5.8866572  43.7161112  13.8887739   5.6363106  44.9115515  12.9947770
   7.5736856  13.0719340  38.4733081   6.7728555  12.8174102  38.0149198
   7.2772139  13.6700845  39.1592765   4.7710779  48.2810163   1.2266883
   3.9008468  48.5552502   0.9373371   5.3588790  48.9592981   0.8940406
  22.0584941  42.0119095  31.2114286  21.4062858  41.3458967  30.9939814
  22.5790715  42.1067762  30.4137874  78.7321822  44.9636984  21.4615989
  77.8669417  45.2495623  21.7546415  78.5858635  44.6237564  20.5788398
  24.6188235  49.5882463   3.4311536  23.7458515  49.9646473   3.3194587
  25.0371289  50.1443577   4.0884167  18.5063529  11.3175476  14.0287626
  19.1822517  11.0060751  14.6307397  18.5535240  10.7175064  13.2844806
  77.9840803  39.5962656  40.9003240  77.2600365  39.0983185  41.2798577
  77.6546955  40.4932910  40.8447915  74.7041229  23.3490825  20.2629781
  74.9267617  22.7158928  20.9454250  75.5486441  23.6875534  19.9655664
   3.1449072  74.9666722  11.8754637   2.1943228  74.8550731  11.8626237
   3.3499710  75.1692801  12.7882242   5.4186708  12.3077738  36.7051172
   4.9446803  13.1168175  36.5127254   5.0957412  11.6812110  36.0575342
  19.8145139  15.6544590  21.0058761  20.0237632  15.9543967  20.1212931
  19.5282197  16.4440334  21.4650488  66.1400600  68.4475206  20.8116484
  65.4294284  68.1150751  20.2632737  65.7915969  69.2535167  21.1926675
  42.9414368  21.2491894  18.8241851  42.1122074  21.7267251  18.8004684
  42.7432919  20.4048991  18.4190369  74.7566183  29.9890567  64.0174082
  74.2007716  30.3025533  63.3039763  74.9545534  29.0816356  63.7858030
  14.3815362  51.2449932  26.8599701  14.7830272  51.9770765  26.3918924
  14.8985898  50.4823828  26.6005278  78.0150874   3.8286926  44.2862683
  78.5794123   4.5837928  44.4523936  78.3238013   3.1598808  44.8975116
  26.8928504  19.3496752   8.0088699  26.1706924  19.5448601   7.4116910
  27.2699285  20.2046847   8.2162386   9.6871048  27.6077414  16.7369545
   9.9507284  26.7188048  16.4991975   8.7356657  27.5586987  16.8296337
  42.1126413  24.1881204   8.3761781  42.2741842  23.6258435   9.1337937
  42.6715899  23.8283896   7.6874089  47.2778245   1.3956691  55.6394523
  48.0408062   1.3933994  55.0614518  46.7765005   2.1657349  55.3713077
  76.7252621  17.2075272  49.8970079  76.3141936  16.4389026  50.2925730
  76.0181624  17.8491354  49.8293304  19.1397810  20.2372432   0.5200778
  19.3657649  19.5913959   1.1894383  18.1851125  20.2962995   0.5568589
  13.6333632  23.7421298  25.4678512  13.2292271  23.1189895  26.0716724
  13.7311161  23.2542753  24.6501279  18.1069386  15.1398885  23.4428167
  18.0308115  15.1427579  22.4886537  18.9838552  14.7955108  23.6120915
  37.2091317  25.8335757  15.2241421  37.9476905  26.1429977  14.6997190
  36.7079210  26.6246486  15.4221952  70.1224175  56.3359880  20.7401228
  69.9256531  56.5037775  21.6617322  69.7976414  55.4493046  20.5834556
  75.4235680  20.4942034  17.0678038  75.0285752  20.2394270  16.2339586
  74.8072274  20.1817618  17.7301687  71.6243068  30.9710121   5.4236954
  72.4252710  31.2453389   4.9771154  71.7807415  30.0555158   5.6552655
  31.4038491  25.0442696  15.4161501  32.2889996  25.0560713  15.0520074
  31.0985661  25.9476590  15.3329396  13.8123572  25.6517482  32.2308660
  13.5023403  25.6272197  31.3255906  13.0141699  25.7110715  32.7558517
  20.6254268  48.4519196  24.9839544  21.1667132  48.4217358  25.7728338
  21.2403798  48.6552572  24.2791724   0.7007652  14.1014397  26.3264537
  -0.0111872  13.5251617  26.0485005   0.7163387  14.7970760  25.6691265
   6.0402858  20.1769662  16.6596437   5.2411491  19.8338842  16.2597585
   6.7229927  19.5587122  16.3990569  17.0459139  37.5402617  33.4249759
  16.0960710  37.4383664  33.3645868  17.3518980  36.7149782  33.8011599
  25.1802945  14.7068453  48.7866259  25.4722524  13.7959182  48.7518978
  24.2251348  14.6536374  48.7539101  18.6012459  33.6491752  36.7254162
  17.9155767  32.9990077  36.5725327  18.7792444  33.5933113  37.6642609
  44.3165124  62.7445239  60.9444433  44.1288078  63.5352439  60.4387164
  43.4696293  62.4861497  61.3081261   8.8033360  26.4730239  27.7640057
   9.0789545  26.5318823  28.6787748   8.7808186  25.5338287  27.5805998
  54.5407200  53.3882999  15.9670830  53.8638639  52.7284479  16.1177516
  55.1576757  52.9663515  15.3691232   3.5779908  73.5661697  37.0399117
   3.7571266  74.3753576  36.5610027   3.4147611  73.8511086  37.9390216
  12.6140130  27.4086428  22.4434471  12.6799703  28.3600116  22.3611283
  12.4868000  27.2575212  23.3800411  23.0943704  12.0349324   1.6149823
  22.1897626  12.0477545   1.9276351  23.5873079  12.5032341   2.2887313
  79.6133724  22.4624324  23.1162572  78.9333213  23.0581975  23.4306216
  80.0817176  22.9642439  22.4491215  48.4655609  71.2288325  22.7500367
  47.7156563  71.2656148  22.1563005  48.1889166  71.7307942  23.5166740
  34.9609780  36.8429732  14.3820572  34.2654777  36.3199282  13.9833927
  34.5284820  37.6549768  14.6463072  73.6329720  32.0256996   3.9332420
  73.9264861  32.9361558   3.8992852  74.1755161  31.5748525   3.2862368
  50.1447724   2.7429439  59.1486078  49.2280515   2.8036882  58.8799733
  50.6405913   2.9600431  58.3591377  31.6954327  12.5922203  41.7900705
  31.9203353  11.7427731  42.1696615  30.8148003  12.7752745  42.1175003
  11.7589164  21.9925761  13.4021771  11.4427733  21.1963415  12.9752159
  10.9842873  22.3596787  13.8281095  28.4313297  36.4690638  25.0398612
  28.0001974  35.6152415  25.0031686  29.0818119  36.3791895  25.7363009
  50.6177831  33.6016327  65.2994808  51.1514664  34.3035603  64.9270389
  50.6887794  32.8859073  64.6678730   8.5580534  41.6823196  38.6347198
   8.0755037  42.1230078  37.9353118   9.4715643  41.7109251  38.3502698
  23.6098933  30.4522300   6.9806480  22.8113127  30.2783203   6.4823955
  23.4041762  31.2302279   7.4989444   9.3319261  43.1688976  22.3645735
   9.4347680  42.8663015  21.4623022   9.9024814  42.5952625  22.8760815
  60.9284510   8.7775470  61.7081782  60.7213684   9.3926622  62.4117288
  61.7359688   8.3501722  61.9936543   8.7036914  38.9540672   8.1649226
   9.6250606  38.6965060   8.1337303   8.4338051  38.9898634   7.2472560
  20.5870032  28.0938363  28.8110399  20.5462050  27.9709268  29.7594380
  21.5213394  28.1764770  28.6202073   7.6705974  11.4222395  15.3327608
   8.4110171  10.8592343  15.5586696   6.9963026  11.2003219  15.9748757
   8.7215430  45.1439571   6.5300941   8.9616662  45.7218838   7.2543705
   8.6336750  44.2797899   6.9322383  18.5820997  20.4665947  11.8745387
  18.4271896  19.8446357  12.5854540  19.5301032  20.5989623  11.8744278
   0.4720497  68.6798924  46.5901261   1.0110712  68.0568499  47.0774716
   0.6568837  69.5262403  46.9972688  28.2973385  22.7932668  23.6973405
  27.5106955  23.2807803  23.4528971  28.5052466  23.1008482  24.5796084
  26.8394756  53.7290525  32.7487636  27.0817041  54.1064596  33.5944128
  26.2404323  53.0153227  32.9677820   5.6336093  27.7502823  45.8149052
   5.7056725  28.6503339  46.1326218   5.0590152  27.8109598  45.0517559
  76.1728719  41.7514324   8.0440420  77.0852802  41.9564104   8.2483143
  75.7266826  42.5980139   8.0651718  19.7181726  24.6858501  36.0235071
  20.3839540  25.1969886  35.5633926  20.1424074  23.8469267  36.2036848
   4.9110548   3.5821010  52.9143768   4.7256510   2.6547099  53.0620140
   4.0905325   4.0270997  53.1263917  21.1659408  23.1949496  11.7968273
  22.0577860  22.8833437  11.6427398  20.7324481  23.1099010  10.9476614
  66.1658994  22.7766275  23.2622671  65.8032027  23.6587691  23.3429408
  67.0353332  22.9087734  22.8843069  75.0638146  12.5502264   3.1754974
  74.2806831  13.0916631   3.2744065  75.7296807  13.1510127   2.8409690
  19.2729592  42.9111862  28.0560327  19.2607701  42.2696924  28.7663627
  19.2921698  43.7592459  28.4994912  29.3057195  74.6558231  61.7374205
  29.0394721  74.2356175  60.9196365  28.7731011  75.4498357  61.7831784
  54.5853916  12.7782798  13.8376439  55.4319707  12.3942900  14.0658700
  54.2281047  12.1914768  13.1711316  12.7699077  28.2479048  11.3339984
  12.9117370  28.7700915  12.1235788  13.2383060  27.4299097  11.5004826
  56.0002947  69.7050399  64.6602013  55.6134320  69.2594046  65.4138436
  55.5238414  70.5331272  64.6010759  35.0128555  38.3931971  17.9699993
  34.4845939  37.5952268  17.9904401  35.9087658  38.0839705  17.8360093
  21.6299677  43.4272671   2.3259687  21.2724209  43.8892937   3.0842054
  20.8626556  43.0672932   1.8811290  30.2568769   6.1752123  25.8412910
  29.7101998   5.4455382  26.1327505  29.7441101   6.9564217  26.0486865
  71.8550358  52.3782492  22.7215695  70.9654090  52.3315048  23.0717278
  72.0569131  53.3137655  22.7046132  77.3950740  17.2525322  20.1072025
  77.4869672  17.7808166  20.9001112  77.5227785  16.3513994  20.4036522
  26.5362453   5.5255955   9.5358980  27.1378207   6.1310142   9.9692672
  27.0626044   4.7438747   9.3682915  16.9017947  25.4556918  41.0837173
  17.3077226  24.8274302  41.6809940  16.0588598  25.0619698  40.8586073
  74.5757738  32.5374103  29.9448609  74.7095260  32.9618168  30.7923412
  73.7887672  32.0059156  30.0647140  56.2528825  28.6438024  51.0250789
  55.3512693  28.3768767  51.2041658  56.6902185  28.5958278  51.8751782
  48.1510782   6.4152026  20.5935526  48.1573009   5.7223278  19.9331605
  47.4532986   6.1632997  21.1984301  27.4743724  64.2684174  49.7281361
  26.7961669  63.6349154  49.4937420  28.2980490  63.8090706  49.5644617
  -0.0158792  45.1012135   8.3313549  -0.3179801  45.9107637   8.7431747
   0.4691179  45.3918934   7.5590122   4.4280586  26.7855048  64.9620295
   4.7803363  26.6944861  64.0766764   5.0326067  26.2879682  65.5126715
  74.2238269  62.9465914  31.7373085  74.6691278  62.2414684  32.2071409
  73.3040300  62.6819658  31.7239690  49.2859404  73.2447069  26.7255878
  49.5319592  72.7914927  27.5320005  50.1019360  73.3110208  26.2296176
  26.6425657  32.7672052  10.2816200  27.4723983  33.1797242  10.5212915
  26.3721180  33.2196808   9.4826496  71.8773786  48.6383152  42.2669744
  72.4277225  48.2680225  41.5768766  72.0895574  48.1227398  43.0450439
  46.3946164  59.5589179  56.5239405  45.6017947  59.7086519  56.0089230
  46.6766358  60.4342503  56.7894411  12.0546973  46.1106157   2.9504222
  11.1179233  45.9189892   2.9947618  12.1971714  46.7680836   3.6313555
  40.3819275  72.4816031  62.9817508  40.4219568  72.2113556  63.8991358
  40.9037304  71.8277926  62.5164726  65.4621554  59.3719048  61.6101867
  65.9003544  58.6246032  61.2030589  65.3077340  59.0959424  62.5136414
   1.7940189  19.0646970  29.8941278   2.4912696  19.2653728  29.2697859
   1.9423255  19.6692562  30.6212735   4.2360526  34.2015195  57.2485638
   3.8693920  33.4984493  57.7847385   4.1703588  33.8769555  56.3504648
  28.0933237  49.0174818   4.9304673  28.1967616  49.9677753   4.9801695
  27.3854828  48.8211775   5.5441928  73.0884829   6.9670928  40.1342535
  74.0394470   6.8650937  40.0955820  72.9325834   7.8683221  39.8519182
  78.3223275  22.9374766  42.0522690  77.4539742  22.8317976  42.4408913
  78.3536683  22.2830725  41.3544130  65.1347287  65.9767984  23.5980821
  65.9372481  66.0096316  23.0773926  64.9620922  66.8893294  23.8298464
   1.0337538  58.1140900  26.0841298   1.9868731  58.1383085  25.9992242
   0.7433016  57.5542307  25.3641129  14.8630393  25.1101804  37.1456528
  15.5940545  25.3813839  36.5904093  15.1238573  25.3704882  38.0290818
  65.4159661  61.5131848   7.7462047  65.7095714  61.8029266   8.6099625
  64.5084878  61.2400835   7.8808600  37.3362477  14.5231201  64.2636779
  37.1643456  15.3268625  63.7730901  37.8430374  14.8099615  65.0233604
  78.3240064  14.9047614  52.9746288  78.8085325  15.6893588  52.7179628
  78.8141997  14.5529224  53.7176972  78.9123953  60.2304602  32.0924473
  78.7779830  61.0232782  32.6116800  79.5173405  60.4971838  31.4002538
  18.8531089  34.7991490  10.6037068  18.0950415  34.2262030  10.7190299
  18.8453710  35.3649306  11.3757563  66.9568006  32.0373535  37.2526741
  66.8304864  31.8200946  36.3290548  67.4545828  32.8548479  37.2405219
  21.1821461  30.1245737  51.6028595  20.7067752  29.3134379  51.4230967
  20.6374073  30.8115816  51.2187862  24.1918421  42.8061056   6.5448976
  24.5815659  42.5341368   7.3757893  24.5757532  42.2164774   5.8959097
   1.2307156  31.5795898  19.4185317   1.4094684  31.2039304  20.2805996
   0.4275723  32.0860338  19.5398140  48.9114954  70.5165770  53.4273386
  49.1026472  71.3821124  53.7886429  48.2204126  70.6729703  52.7837706
  53.1528141  62.6208394  24.2315769  53.5459478  63.4285872  23.9010882
  53.6326785  62.4335497  25.0383496  75.4599405  51.5415668  33.9299822
  75.0084195  50.9462261  34.5282507  75.6731692  51.0007524  33.1695318
  29.2604828  40.2063656  31.4405608  28.7382412  39.4566131  31.1553144
  29.7444272  40.4724932  30.6587625   0.9035246  55.6769376  50.1467228
   1.5385668  56.2551515  49.7240829   1.1220281  54.8033111  49.8222780
  11.2785280   4.8271111  49.1008568  10.7056022   4.3047246  48.5395193
  12.1331954   4.4014558  49.0330839  65.7310835  44.5831871   8.2768744
  64.9371091  44.3546820   7.7935290  66.2323621  45.1280451   7.6701784
   2.7185242  68.4858822  18.2521152   2.5333779  67.5472163  18.2227898
   2.7671163  68.6913710  19.1857350   4.5166385  30.2692175  13.9393485
   4.8084158  31.1750889  13.8368988   5.2411431  29.7442913  13.5990858
   2.5297308  26.7121911  16.7984068   2.4972595  26.8423128  15.8506489
   3.4062338  27.0030069  17.0502019   6.0210013  53.9197683  27.2013235
   5.9223056  53.2104254  27.8364038   5.5160159  53.6322403  26.4406991
  29.8542953  20.0528884  15.8363223  29.3369699  20.5927253  16.4339685
  30.4469752  20.6704760  15.4078937  60.0941421  75.5604909  37.3774195
  60.6877716  74.8757552  37.0692444  59.3801721  75.0851202  37.8022742
  41.8432784  52.9495460  63.4832421  42.5104046  53.5946721  63.2487456
  41.3377631  53.3698219  64.1789817  54.5604271  63.6188655  62.9830503
  53.6685184  63.2758598  62.9275751  54.9392163  63.4415548  62.1220589
  23.4969497  34.0271401  26.5336704  23.3611369  33.0959606  26.3584709
  22.9075623  34.2222309  27.2622252  64.5254298  24.5896770  44.5588213
  65.3583999  24.1459466  44.3991428  64.2993994  24.9850084  43.7168866
  35.5252361  13.3848226   8.8197565  36.2715960  13.8317788   8.4204942
  35.5289817  13.6792338   9.7305477  23.9680386   5.8813322  32.9962897
  23.5304213   5.9094572  33.8471317  24.8171306   6.2956911  33.1498575
  24.6517420  23.5199785  43.6451006  24.9351907  23.5842156  44.5571136
  24.6029258  24.4275975  43.3449697  10.6692767   2.5805712  24.6719170
  10.5176699   1.7244664  24.2715001  10.8473921   3.1624168  23.9330244
   2.1863487  24.8179340   2.5607458   2.9293963  24.2499566   2.7644929
   1.7215702  24.9118185   3.3922493  46.0152427   3.2858837  46.4661026
  45.9618131   2.9532927  45.5701351  46.1581722   2.5063220  47.0028400
  76.5592424  63.0507726  63.6446033  76.0049502  63.7309069  63.2619679
  77.2156564  62.8701180  62.9717609  28.1991816   3.2704756  26.7585492
  27.4095607   2.7706075  26.9655776  28.0559802   4.1243711  27.1667004
  30.1566052  29.0168381   8.9648473  30.3087306  28.3466983   8.2985127
  29.7888422  28.5373425   9.7071844  39.0062308  45.9257746  13.5182834
  38.2319212  45.9851456  14.0778828  38.6552000  45.8453703  12.6314104
   0.1351432  47.2920656   1.7704223  -0.2731151  48.1541872   1.8497720
   0.7732242  47.2626877   2.4833187  43.9698648  23.3121252   6.7297316
  44.3094635  24.2045784   6.6631609  44.0473986  22.9596066   5.8431923
   6.3998017  44.0222538  62.5824031   6.2479719  44.2755014  61.6718837
   5.6721672  44.4148672  63.0647275  26.8509364  15.8001924  38.8728428
  27.6240087  16.0747683  38.3796906  27.1526790  15.7440674  39.7795033
  11.8602872  54.7799969  41.8550348  12.0965683  53.9702177  42.3074293
  12.4167907  54.7904396  41.0763025  31.5162553   6.0863502  33.5176945
  31.6187324   6.4814098  34.3835235  31.3353904   5.1633556  33.6954546
  68.5435911  68.5682302  14.9041021  69.0856631  69.3568497  14.9257505
  68.1077786  68.6004596  14.0524793   3.2815644  27.7191448  19.5723331
   3.7633702  27.7985930  20.3956079   3.3243066  26.7870474  19.3587947
   0.9230651  28.5977173  53.2053995   0.2977156  28.7830877  53.9059782
   0.7593115  29.2778134  52.5520325   2.5328669  74.3954677  63.5492912
   3.1397900  74.3138999  62.8136134   2.4973378  75.3352779  63.7274149
  70.3645102  42.4047279  11.4273000  70.0911752  41.5236521  11.6826987
  71.0987303  42.6054049  12.0077157  58.8519216  66.9483179  53.5643488
  59.1416765  66.0887069  53.8698655  59.6347547  67.4968237  53.6147898
  33.5927391  21.6329312  22.2333527  32.7165890  22.0169592  22.1999335
  33.9529300  21.9304132  23.0688167  55.5834508  66.0559720  50.7280451
  55.3045655  66.9636363  50.6072014  55.3000641  65.6100506  49.9298745
  21.2384343  40.4432297  28.4935689  21.1957264  41.2732792  28.0187774
  21.0712528  39.7770643  27.8268576  68.5247810  23.4396364  58.9881432
  69.0081854  23.2186653  59.7842115  67.6177951  23.2064153  59.1861742
  41.3460922  60.8249807  14.9248075  42.2381830  61.1242867  14.7492576
  40.8024073  61.6014862  14.7918618   9.0463209  60.9957409  13.3351362
   8.4413838  61.3772774  13.9713061   9.9015707  61.0375261  13.7629604
   9.9619317  30.7763982  26.8694711  10.6473947  30.1108432  26.9278526
   9.1608685  30.3181195  27.1234608  51.3891599  14.6083356  51.7752784
  50.7262558  14.7454502  51.0985309  52.1034151  14.1590549  51.3233739
   9.3856940  73.6986155  63.6832240   8.4776434  73.9604086  63.5311167
   9.6438631  73.2503933  62.8778171  32.5030684  35.3408027  13.5217452
  31.9447207  34.5858765  13.3358359  32.2396660  35.9979486  12.8775311
  77.4865452  46.6325998   0.6411839  78.3524427  46.8124771   1.0073753
  76.9162688  46.5477657   1.4052649  74.8356888  28.7669754   6.6180718
  75.0338149  29.6313691   6.9783479  75.2504114  28.7662554   5.7553804
  68.9384766  10.3351547  47.9721814  69.1682013   9.4060899  47.9551369
  68.0122479  10.3484727  48.2133347  37.2005558  65.8853292  12.5770259
  36.6123676  65.3762484  13.1347930  38.0760574  65.6902647  12.9112053
  44.8416281  19.1647530   3.8350001  45.7121372  19.5012558   3.6223692
  44.8164606  18.2956314   3.4347177  12.1329403  30.2687359   6.3344312
  12.9841781  30.0405312   6.7079926  12.3422074  30.8217192   5.5816698
  14.2571942   0.3941585  45.8532089  14.2913978  -0.4965733  45.5044168
  13.7026994   0.8718277  45.2362805  50.0110817  13.4344387  11.5593350
  49.5923328  14.1284645  12.0684612  49.4377565  13.3134246  10.8024430
  19.6398990   2.9221822  62.6775060  18.7844007   2.6312829  62.3617124
  19.4971292   3.1270410  63.6015625  42.1877647  59.0967554  54.5512503
  42.2294927  60.0325913  54.3545204  43.0954814  58.7988276  54.4919115
  15.1993978  42.0230579  39.8776603  15.9975970  42.5500679  39.8407054
  15.4392004  41.1955881  39.4604969  31.4162922  45.0199461   8.0359161
  31.3065100  44.2594719   7.4650747  30.9670162  45.7301950   7.5777400
  14.2652678  27.1928978  27.2120833  14.8627949  26.4454556  27.1892047
  14.7896254  27.9077625  27.5729847  63.7148746  22.0718624  42.2157317
  63.4654267  22.3941280  41.3496166  62.9243030  22.1731283  42.7458006
  36.3632648  72.9301005   0.9072617  36.2993400  73.5338097   0.1672071
  35.4611222  72.8254694   1.2096245  29.8399830  70.6941938   2.0547949
  28.9845133  71.0134506   1.7676015  30.1148534  70.0912428   1.3640511
   5.8885121  24.8332787   4.5888573   6.2324828  25.4451656   3.9380804
   5.2922344  25.3599191   5.1211488  57.5051403  56.6748857  26.7868853
  57.7817106  55.9686804  27.3708487  56.5881205  56.4803505  26.5933394
  55.4318396  34.5068121   4.9691409  55.3644005  33.5861993   4.7158509
  56.3619104  34.6367407   5.1543981  77.3746975  28.2411672  46.2618845
  78.0401190  28.6318542  46.8282848  76.5771874  28.7345172  46.4537567
  45.6801224  16.8954039   8.3963650  46.0502291  16.6689944   9.2495894
  46.3173628  17.4966395   8.0107880  56.0953395  41.4880229  60.5840006
  56.9418867  41.1530639  60.2883792  55.7157751  40.7682802  61.0881126
  55.7107044  66.9418305  62.0289656  55.5010677  67.6168341  61.3834768
  56.6669846  66.8999332  62.0297530  37.0638514  16.3201296  25.8649468
  36.1516523  16.2036240  26.1305618  37.3303056  17.1418262  26.2773180
  19.7829771  54.2260027  14.8509443  20.2773929  54.9837399  15.1633835
  19.7880709  54.3131590  13.8977337  30.1095884  11.9273473  53.3241504
  29.6961276  12.5194408  52.6958936  30.0350492  11.0617591  52.9223603
  24.4939041  37.4339676   1.4530845  24.8770070  36.5664554   1.3231272
  24.4697905  37.5452161   2.4034917  63.4323855   7.5143577  50.8106476
  63.0881484   6.9537641  50.1153272  63.0491974   7.1621896  51.6140026
  32.7683282  41.5008163   1.6246335  31.8268633  41.4875317   1.4523026
  33.0046320  42.4278355   1.5925539  27.3033142  74.6752501  19.2912292
  28.1033230  74.2344809  19.0049720  27.4679732  74.8994207  20.2071261
  47.7369499  74.4267416   8.3034885  47.4575567  75.2106237   7.8305238
  47.1995401  74.4206333   9.0955645  14.5540845  14.6239841  26.3697290
  14.3386972  13.6929250  26.4242220  15.4866350  14.6419001  26.1546421
  33.2674003  16.7235017  24.5597649  32.9424834  16.5772712  23.6713505
  34.1325235  17.1143270  24.4370937  32.7327681  21.2258911  38.9027333
  32.5403404  21.7262268  39.6957469  31.9148278  21.2407875  38.4057593
  16.1386001  57.2079563  32.8045702  16.3040292  56.5442133  32.1350121
  15.1868737  57.2131872  32.9066443  36.1816406  21.6509819  17.4516928
  36.3889050  21.5532470  16.5223277  36.5364003  22.5082135  17.6873457
   0.3441994   4.1184999  53.6212545   0.7158320   3.2417537  53.7183946
   0.1237886   4.1836120  52.6920551   1.7370464  37.2839856  42.3525858
   2.0557123  37.4177074  41.4599514   1.0883169  37.9759145  42.4814892
   1.9853142  23.4425378  21.6922402   2.4373537  22.6400447  21.9528055
   2.5137883  23.7931132  20.9752703  59.8893252  34.3948913  49.6388769
  60.1928738  33.9599061  50.4356670  60.5077353  34.1162896  48.9634609
  34.5428872  62.6321602  16.0920370  34.9173570  62.1747351  16.8448770
  34.2766666  61.9328928  15.4950571  17.2364473  67.7381182  16.5499461
  17.8969133  67.3170090  15.9997785  17.2690451  68.6613035  16.2991655
   7.6345438  60.9195566  36.1493087   8.5292023  60.7043648  36.4129591
   7.1341807  60.9042645  36.9651723  46.4569855  50.6217861  25.9235382
  45.6275940  50.3935623  26.3433576  46.6394329  51.5127087  26.2222099
  18.1576800  16.7089641  31.1380506  17.4316013  16.4910567  30.5536222
  18.0109990  17.6257968  31.3707209  21.4425588  22.6427984  17.6170456
  21.8648052  22.1924043  16.8855512  21.7089796  23.5571694  17.5212526
  35.5121708  59.2658186  28.9666438  35.1214767  59.5614052  29.7889686
  36.1180210  59.9660349  28.7239981  72.2708603  35.8153201  61.5157261
  72.3756226  35.9160377  60.5696219  71.4005645  36.1690236  61.6993323
  59.4451332  62.5127310  34.1589266  60.0325537  62.7693504  34.8697811
  58.5999942  62.3718089  34.5856744  22.0071809  17.6471187  62.8881551
  22.0636289  18.4523727  62.3737508  21.1517827  17.2799446  62.6651908
  49.7881174  60.0787830   6.2113589  50.1012897  60.4337692   5.3794086
  48.8341093  60.0962019   6.1352473  11.4253306  22.6549363  37.8074646
  11.4100671  21.6982365  37.7805281  11.3976824  22.8687572  38.7400675
  53.2182861  44.6781558  60.5124742  52.6795173  45.0683219  61.2007546
  54.1188336  44.8591823  60.7816890  35.2468888   5.5260373  39.2714602
  35.4132955   6.3168384  39.7844606  35.0635640   5.8473922  38.3886486
   6.3059932  49.3007278  15.8958113   6.3675934  50.2548647  15.8504117
   6.4300382  49.0094566  14.9924815  18.3710384  54.2834616  17.3887229
  18.7993562  54.3814564  16.5383279  18.1296933  55.1751375  17.6395130
  54.7040939  28.4131527  21.2932801  55.0391674  28.3859110  20.3970575
  54.5488644  27.4959731  21.5189290  10.0907195  31.9271564   5.5365878
  10.8079135  31.3055611   5.6610137  10.5134284  32.7858925   5.5475396
  70.8450556  52.1334887   2.8756475  70.3228092  52.4646330   2.1450078
  70.2322483  51.6067362   3.3887121  57.1960020  40.3149366   6.9920975
  56.5553999  40.8447504   7.4666023  57.8431177  40.0717115   7.6541519
  40.6875606  21.8024207  53.5004455  40.4235252  20.8882619  53.6045056
  40.0691434  22.1592523  52.8629011  37.1856582  74.8951763  64.3995628
  36.5452218  74.2467517  64.1069546  37.8642988  74.8830313  63.7246322
  49.4169950  64.6350813  16.4957952  48.6992741  64.3174887  17.0437360
  50.1895761  64.5816135  17.0583725  41.4945472  69.0038938  56.1239207
  40.7335449  68.6892981  56.6119140  41.4558959  69.9566096  56.2080312
  52.8073406  52.4398041  24.7505641  52.2471762  51.6654587  24.6972895
  52.3969936  53.0732298  24.1618204  32.0450044  18.5043895  21.0779667
  32.4774408  18.4029126  20.2300692  32.1679902  19.4271696  21.3006401
  53.0889622  41.3177681   6.5692693  52.7222029  42.1911192   6.7070287
  53.0422846  41.1850023   5.6224716  35.6766319  16.8542600  20.3367901
  35.2803516  17.5525534  20.8579206  36.4189768  16.5553069  20.8619404
  44.6426773  69.1423035   0.6756917  45.3493834  69.6984577   0.3478394
  43.9188671  69.7467184   0.8400534   5.1565306  14.0933944  62.8830211
   5.1825111  13.5546304  63.6737734   5.1750986  14.9941875  63.2062225
   2.0551434  48.4179258  19.9773574   2.4767384  48.1397724  19.1642630
   1.9418496  47.6094627  20.4771423  23.8766980  24.2101765  15.2974796
  24.1439247  24.0905356  16.2088013  24.5486665  23.7558913  14.7892308
  45.9829950  58.6986923  40.7332373  45.9939432  59.4637918  41.3083363
  46.8729973  58.3497477  40.7818699  15.7771754  35.3255892  30.8375406
  15.1301479  34.9188161  30.2612400  16.1204350  34.6014881  31.3610673
   4.6696123  17.4048567   5.6091547   4.8804045  17.4232960   6.5426743
   5.4880279  17.1488881   5.1838219  79.7499421  64.0651608  20.9885335
  79.2241234  63.6233902  20.3217602  79.1806232  64.1016626  21.7571521
   3.8461658  58.7116718  16.0157442   4.6234110  58.4301090  16.4982831
   3.1134564  58.4843302  16.5881824  44.1096628  45.4886824  65.0554643
  43.8433588  46.2959510  64.6154287  43.3073175  44.9695045  65.1095788
  24.9378061  21.6530776  48.5395241  24.2948174  22.2765851  48.2018375
  24.4535303  20.8317590  48.6240673  68.7093588  63.1123989   1.1151387
  69.2507716  62.9923360   1.8953234  67.8845211  63.4659736   1.4480963
   4.8486385  34.6746421  24.0507054   5.3030330  33.8460493  24.2029881
   5.2271765  35.0095177  23.2378101  23.5807562  22.2620296  38.1133246
  24.2772365  22.8267550  38.4483361  23.8699746  21.3742709  38.3241987
  78.4476920  50.6823397  14.7589862  78.6560893  50.0674534  15.4623520
  77.6987943  50.2889729  14.3110478  34.0681410  45.4465342  31.6149855
  34.3938375  46.3283539  31.7953849  33.7718081  45.4820538  30.7055044
  22.2837860  68.7207359  58.2183438  22.1576587  68.4402126  59.1247821
  23.1005848  69.2195767  58.2334536   4.1306862  52.4967486  45.1995402
   4.3065533  52.4844569  46.1403662   4.0848383  51.5731508  44.9523645
  55.1896429  61.2779951  26.8944001  55.3607845  61.0653591  25.9769416
  54.3375015  60.8821154  27.0770788  20.5651212  23.6088395   9.2135823
  20.6782293  24.5419002   9.0323794  20.3773284  23.2199955   8.3593184
  39.0996135  55.6260842  64.1397998  39.6784962  55.8541006  63.4123832
  39.2376232  54.6879810  64.2707433  20.1465034  41.4159012  34.6164370
  21.0096645  41.7660809  34.8368073  20.3067493  40.4944849  34.4126129
  34.7666908  62.3707027  59.0925604  35.6320185  61.9949788  59.2546487
  34.2436648  62.1021718  59.8479193  45.5898090  24.7070224  15.5881083
  45.1400419  23.8630016  15.6277084  44.8870690  25.3552921  15.6342506
  31.1791825  53.8776970   3.8169944  30.3007436  53.8085747   4.1908914
  31.6241336  53.0794287   4.1016310  25.7099628  47.7263641  12.7705288
  26.3773894  47.0425606  12.7141190  25.6551266  48.0813074  11.8832636
  17.3763967  32.1434593  27.8441763  18.2907426  31.8883538  27.9671526
  17.4216557  32.9913974  27.4023795  18.8902347  61.3925676  18.0462551
  19.2507903  60.5457561  18.3092022  19.5693652  62.0251696  18.2804036
  27.8499341  22.7078176   4.9372065  28.5376382  22.2538805   5.4242730
  27.3404098  22.0061159   4.5319489  22.5776076  51.9906950  24.3241024
  23.2626247  52.1531773  24.9726295  22.1285391  51.2071228  24.6412468
  16.4867353  23.3661008  34.5251656  17.1488595  23.0600381  35.1449633
  15.8848608  23.8879061  35.0559163  36.4668703  33.8892913  11.2263215
  36.4798474  33.3690906  12.0297217  35.6093979  33.7116456  10.8397818
  60.8068633  70.8653492  57.6383525  60.4722309  71.7266554  57.8881675
  60.8498454  70.8931011  56.6825205   7.2774154  43.0468941  42.4332857
   7.2836024  43.8315105  42.9815292   7.3486435  42.3210049  43.0531645
   2.5914463  64.5609278  61.4775598   2.8855595  65.3528184  61.0274076
   1.7253193  64.7861475  61.8171653  67.6556428   5.2569396  25.9415436
  68.4614213   4.8714836  25.5974936  66.9561608   4.7140415  25.5779314
  34.0334773  32.1776271  23.7447453  33.6218834  31.9461155  24.5773435
  34.9728608  32.1528983  23.9268947  29.4425917  38.7948036  19.8970938
  29.3247533  38.4098172  20.7655001  28.9431238  38.2246470  19.3125534
  21.6106319  15.2523792   2.4714242  21.5636706  16.2083948   2.4636298
  22.1315289  15.0444818   3.2471013  15.8095996  14.8585035  62.9194569
  16.3306253  15.3342201  63.5663402  14.9914472  14.6558191  63.3730788
  31.7754316  43.5624981  30.3505611  32.1272135  43.6438894  31.2370467
  30.9959292  43.0162048  30.4514289   7.5996852  48.9279509  42.9421759
   8.0433154  49.6775293  43.3391047   8.1742340  48.1847429  43.1259441
  39.2977071  47.5131559  30.0219178  38.7015605  47.2951746  29.3054485
  39.9732780  46.8360043  29.9858069  42.1689749  37.4230337  21.7284632
  43.0396986  37.0708418  21.9129443  42.1931934  38.3151484  22.0745468
  15.0106084  12.3926723  32.1891904  15.7041299  12.2048175  31.5567589
  15.4602134  12.4309599  33.0333591  37.1716738  55.7986641  31.8646073
  36.2917209  56.0555315  32.1401668  37.1198463  55.7527494  30.9099150
  14.8617017  60.1867056  22.9087186  14.7145069  60.2353716  21.9641566
  14.0119040  59.9359703  23.2709432  12.6823008  74.5553255  10.2010095
  13.4604168  74.0380049   9.9932861  12.6882279  74.6240616  11.1557198
   2.6260504  15.2439988  27.6953912   1.9782391  14.5969713  27.4162364
   2.3857731  15.4490590  28.5989666   2.3300216  44.7011566  45.5093813
   2.0548348  43.8596058  45.8730936   3.0405110  44.4808912  44.9069548
  58.1499999  14.7119857  49.5074671  57.4059792  14.9982501  50.0372952
  58.5649063  14.0247013  50.0287384  75.7438317  61.0384274  33.1852484
  76.3874132  61.3512564  33.8209939  75.7832176  60.0845194  33.2541490
  28.4150444  65.6696075  63.1986771  28.8590566  64.8714823  63.4851767
  27.7927426  65.3723783  62.5348800  13.2832468  51.5652180   4.6334636
  13.8323808  51.7101574   5.4039681  12.4016559  51.8048286   4.9191490
  28.0493760  50.4700851   8.8896137  28.2915211  51.2907171   9.3187553
  27.1025634  50.4049253   9.0142286  74.8094294  39.1829228  30.0620914
  75.7307035  39.4147754  29.9449158  74.7016338  39.1013312  31.0096955
  79.5207580   0.3620745  41.2597567  78.9930709   0.2712108  40.4663306
  79.4504269  -0.4886125  41.6929036  28.0869269  66.4022541   4.9837133
  28.7060499  66.0208750   4.3612406  28.3179259  66.0066319   5.8241636
  44.8863840  25.9146667   6.6033512  44.0303421  26.3348484   6.6862738
  45.2475977  26.2655973   5.7893479   0.6215279   2.9987527  57.4561590
   1.0092513   2.5969936  56.6786664   1.1858742   2.7191211  58.1769573
   9.3858176  53.9078712  15.7334638  10.0121784  53.4949970  16.3279724
   9.6319574  54.8328781  15.7309020  31.5770555   1.7569885  15.7754672
  31.9551563   1.5432772  14.9224734  32.3156738   1.7128706  16.3826954
  79.5736583   8.0787279  54.3133110  78.6951287   8.2740499  53.9873236
  80.1149424   8.0250551  53.5256797  11.6785979  46.7098331  17.7200782
  12.1579850  46.7851496  16.8950045  10.9713352  47.3504925  17.6454926
  20.3242183  24.5132208  20.1377106  21.1731672  24.5593071  19.6979451
  20.4857206  24.8756671  21.0087919   7.9062229  45.4195309  17.1865118
   7.1982449  44.8441029  16.8968880   8.7062454  44.9736881  16.9082689
  72.7220872  12.6703250  28.4399319  73.5622815  12.9176939  28.8260841
  72.9303494  11.9341624  27.8646731  57.9365936  69.3783712  19.6062732
  57.2887388  68.7233829  19.8660946  57.6862708  69.6225262  18.7152302
   6.3584816  42.8141594  29.9752879   5.7203406  43.0641413  29.3070722
   6.9575053  43.5590935  30.0250077  25.0596690  47.5561285  15.3933132
  24.6354604  46.7058849  15.5089188  25.1523995  47.6506090  14.4453120
  24.9669170   4.9856666  20.5069113  24.7282052   4.3884209  21.2158179
  25.3149152   4.4160888  19.8208296  28.9919472  26.8133736  21.1081910
  29.3597078  26.1489391  21.6908646  28.0993867  26.9448543  21.4280057
  66.1701370  70.5025620  60.3987401  66.7896653  70.5045766  59.6690720
  65.8386946  69.6050877  60.4290476  67.3475626  54.2640162  35.8111596
  66.7579189  54.2245865  35.0581694  66.8872145  53.7862539  36.5011287
  76.0865386  38.7830640  62.3432129  76.0055717  37.9732896  61.8392834
  76.1552914  38.4932138  63.2528786  14.6183753  28.5566115  34.9196768
  14.8335338  29.4884062  34.9609256  14.5525706  28.2852364  35.8352399
  23.9764023  59.9990892  19.3455613  24.0140343  60.7118511  19.9833596
  24.1374683  59.2083168  19.8603165  41.8422242   6.4878852  12.4194002
  41.8471427   6.0397155  11.5736151  41.6717441   5.7944972  13.0568838
  78.3856288  64.7769976  23.3358717  77.9681197  65.5563116  23.7027383
  78.3570968  64.1339970  24.0443683  13.9268386  57.1111727  10.1516902
  13.1754279  56.5715981   9.9057746  13.6021590  57.6644230  10.8621347
  24.5741963  17.8415120  44.8742485  25.4300332  17.8264916  44.4458199
  24.3942022  16.9246185  45.0819492  36.0697317  34.4580460  21.8256068
  36.3819051  33.5836887  22.0585847  35.7929301  34.8429871  22.6571321
   4.4146836  21.3634086  18.6907947   4.8090667  21.3120055  19.5614564
   5.0688994  20.9774184  18.1083488  23.9945221  36.8194723  36.7550206
  23.5627317  37.6634455  36.8873119  23.6572552  36.2649918  37.4586082
  15.9609580  69.6690941   6.5719020  16.2057137  68.8800621   6.0884202
  15.5527055  70.2346706   5.9164011  35.3299123  72.1884626  58.3373970
  35.6683964  72.0396060  59.2202914  34.9974698  71.3344020  58.0611837
  36.5291381  59.0638399  13.0767715  37.0076752  58.2378483  13.1473339
  36.2801933  59.2740583  13.9768076  68.0859757  70.1728052  58.6167907
  68.2965660  70.8269376  57.9504597  68.9329434  69.8019403  58.8644570
  11.5025878  58.9418840  14.4004440  10.8962822  59.3355846  15.0278389
  12.1858430  59.6015882  14.2813408  64.7818990  73.4065876  33.4791136
  65.1218506  73.1571901  34.3384552  64.1711088  72.7059095  33.2506037
  26.2672281  40.3350687  10.7153916  26.9869757  40.1577711  11.3209975
  25.4821539  40.3096390  11.2624240  62.2944428  -0.0531577  52.7741343
  61.3403912  -0.1280378  52.7538806  62.5330718   0.2086831  51.8849057
  36.7945433  49.7049809  29.6406198  37.6976347  49.8817539  29.3771577
  36.8099713  49.7538137  30.5964494  24.8708551   6.5643312  55.6593209
  24.7707765   7.1987821  56.3690322  24.0844409   6.6763593  55.1252442
  27.6195407  13.0775142   4.7286454  27.7608752  13.9494276   4.3598327
  27.6176620  13.2155347   5.6758404  67.3876000  70.1878590  51.2622517
  68.3413315  70.1154322  51.2249619  67.1458435  70.5974454  50.4315763
  24.9584365  31.6149068  18.4927893  25.8107471  31.2358975  18.7076151
  25.1668572  32.4167967  18.0134487  78.0447242  41.7084122  10.9900904
  77.2628677  42.1424961  11.3314128  78.1990753  42.1249580  10.1422143
  35.0322962  44.7569227  17.0351219  35.7724881  45.1354742  16.5607309
  34.5746779  45.5112648  17.4063158  61.6158656  15.7617211   6.6168922
  61.4047829  14.8365271   6.7421514  62.1147326  16.0014343   7.3978537
  18.1212020  49.1452599  28.8597250  19.0197170  48.9739037  29.1417551
  17.7979100  48.2954597  28.5604787  18.0941693  11.4149858  60.0629133
  17.1483915  11.2712671  60.0300884  18.2101838  12.0952464  60.7262489
   7.8415060  22.5803137  52.6434183   7.0253706  22.9024649  52.2608280
   7.9361624  21.6940308  52.2944593  22.0190732   4.1009761  34.8508268
  21.4692228   3.6905910  35.5182725  22.2360913   3.3893443  34.2485672
  34.2082286  30.3603864  10.6063068  34.5735955  29.9883056   9.8036271
  34.4017887  29.7100759  11.2814820  30.0728226  48.8335323  36.1182761
  29.6722269  49.0244722  36.9663906  31.0124564  48.9373541  36.2684059
  69.6678157  43.1607057  51.7551154  69.6954771  42.2142650  51.8955523
  68.7823816  43.3292486  51.4328867  16.4399111  12.9787695  11.4200127
  16.3951755  12.1013510  11.7999709  17.2066665  12.9530883  10.8475995
  63.8710948  31.9227458  47.7826482  63.6991783  31.0601999  47.4049073
  64.5642181  32.2904922  47.2343999  40.5010605  23.3675546  60.5219924
  41.4282942  23.3954090  60.7579878  40.2577091  22.4465269  60.6153762
   3.9110446  42.9512024  41.3170719   4.6088988  42.4295950  40.9206390
   3.2549977  42.3083162  41.5863943  48.2825422  59.0613127  22.2241139
  48.3970690  58.4194326  21.5233254  47.7240705  58.6200666  22.8641486
  32.4150308  55.7263057   1.4791751  33.1264814  55.1273625   1.2525982
  32.5205787  56.4624386   0.8765146  41.7398357  38.4434247   9.8713005
  42.0282698  37.9217005  10.6201923  41.8432999  37.8604603   9.1191852
  51.9998718  61.8124074  49.3155390  51.2246299  61.8031019  48.7541622
  51.6543651  61.7134398  50.2027040  64.7737654  36.8580724  45.5729478
  64.5079334  36.2882806  46.2946850  64.1293653  37.5658609  45.5767292
  13.2140064  36.8601775  19.9702108  14.0550959  37.2287583  20.2402997
  13.3033884  35.9199905  20.1260662  14.1895401  39.2041731  12.3621857
  14.9803722  38.8228774  12.7435398  14.4551790  40.0818491  12.0876837
  59.1720875   1.0276754  18.1446421  59.8832138   1.2875659  18.7302923
  58.6330040   0.4364831  18.6701083  11.5659635  15.5857564  45.8877676
  12.0689647  16.1402561  45.2913207  11.9256775  15.7775642  46.7538208
  41.5922689  56.9194746  24.8976994  41.0723925  56.3949251  25.5066395
  42.4926329  56.6259289  25.0370264  36.2893486  31.5130067   8.1067324
  36.5867567  31.2112331   8.9650524  36.3609838  32.4665403   8.1500560
  78.8392902  32.6723766   8.0748540  78.2433731  31.9233251   8.0809051
  78.2822295  33.4232783   8.2799441  28.3080006  44.0836763   7.2271127
  28.3598661  44.7700453   7.8922749  27.4504781  43.6812067   7.3646092
  38.8341641  31.8971062   5.9958535  38.6477494  32.1993017   6.8847626
  38.7204242  32.6749086   5.4496658  45.2170610  47.8640413   7.9194194
  45.6989908  47.3061466   7.3089039  44.9687529  47.2780609   8.6344039
  18.6251867  34.0500498  17.7795923  19.4665253  33.8736725  17.3585546
  18.8518381  34.2799354  18.6807096  40.3350210   2.3235910  14.9635255
  39.7017550   3.0125394  15.1649082  40.1222372   1.6170213  15.5732083
  22.7067161  53.1440926  21.5233922  23.2960963  52.6716709  20.9354472
  22.2177076  52.4565935  21.9755483  45.3170252  14.5910811  30.8943200
  45.3409481  15.2788687  30.2290320  44.7283173  14.9303651  31.5685129
   2.9823786  37.8008294   4.4312763   3.1689766  38.1854010   3.5748196
   2.9906577  36.8562412   4.2766216  74.9208053  21.1939622  53.9969474
  74.3011888  20.4983713  53.7768262  74.3763407  21.8954803  54.3542546
  16.6706026  59.3085432   5.4727376  17.4563444  58.9948225   5.0250548
  16.0948801  58.5447311   5.5096346  40.7055569  21.3744164   7.3691255
  40.3904438  22.2534227   7.5795680  41.6244221  21.3788056   7.6372570
  14.3157160  41.6864586  25.3237844  15.2077556  41.4346027  25.0849009
  14.1961122  42.5493526  24.9271226  43.0364323  33.8628507   8.9907217
  43.8592005  33.3794379   9.0655267  42.4373531  33.4092259   9.5836490
   9.1430823  37.3971130  43.2347971   9.2777030  37.8361656  42.3949510
   8.2299130  37.1110631  43.2118612  44.7628546  61.6826296   1.9020419
  45.1384115  62.5493097   2.0571175  44.3578529  61.7483377   1.0372365
  55.7190037  68.1077290  23.3122897  56.5462637  68.0357742  23.7884212
  55.2039194  67.3588896  23.6125565  13.0324785  57.9886342  55.4824364
  12.3657863  58.6669351  55.5904418  13.8631837  58.4637262  55.5038595
  63.4769344  38.8524580  22.4374890  62.7845240  39.4929862  22.2746253
  64.2900658  39.3430972  22.3178172  74.1637612  62.0333213  62.3874029
  74.4463635  62.9433245  62.2964790  74.9753189  61.5265507  62.3592889
  21.3782525  63.5067463   8.5096747  21.9196081  64.0222836   9.1074955
  21.2325835  62.6805544   8.9705634  75.3128417  25.9501315  42.6373940
  75.3884872  25.4619028  41.8175488  76.1933358  26.2906791  42.7954751
  30.0915027  47.2024918   7.3248768  29.1464090  47.0533085   7.2970629
  30.2040958  47.9070139   7.9630005  22.3098819   0.4883958  60.1166814
  22.2872655   0.5151726  59.1601234  23.1858842   0.7998682  60.3443581
  51.3763523  32.8657103   8.3802223  50.9130383  33.3534408   7.6992738
  51.3700008  31.9594717   8.0721235   7.4937326  52.2263002  14.8945034
   7.7956748  51.6200590  14.2180908   8.2841790  52.6903009  15.1704228
  45.6404157   0.2642066   6.0721767  46.1718793  -0.3257697   5.5376649
  45.4892786   1.0249097   5.5111760  13.6195962  21.2155868  54.3101674
  13.0872028  20.4349805  54.4632822  13.0234687  21.8325998  53.8857132
  22.3995137  58.3636665  10.3792775  22.7251673  58.0432701   9.5381314
  23.0290294  58.0346203  11.0208917  76.4178951  43.4484483  55.3395539
  77.1812375  42.9042817  55.5329889  76.5339311  43.7075902  54.4254344
  31.7368627  52.9182291  35.5738664  31.4890647  52.5031042  36.4000010
  32.6709485  52.7303410  35.4821253  64.9790955  55.5658436  31.3928485
  64.5305777  56.3584709  31.6874790  65.9097815  55.7824898  31.4486647
  50.1741791  59.6357775  26.0708284  50.1844120  59.3813229  25.1481247
  50.0543022  60.5853271  26.0561061  16.3107944  66.3181973  22.4803734
  16.0778487  67.2171497  22.2483063  15.6145275  66.0358429  23.0734324
   7.4920154  64.8727465  35.9362411   6.7499948  64.4467163  35.5071282
   7.5701219  64.4258690  36.7791128  19.9385500  60.2659369  29.3796825
  19.0059555  60.0683784  29.4661236  20.1088667  60.2109718  28.4393620
   6.3189650  21.1111569  23.4701586   7.2576296  21.2782454  23.5551405
   5.9187531  21.6340065  24.1649175  13.7677157  44.9960327  13.5102153
  13.9726722  45.5083513  14.2923629  13.1552482  44.3269300  13.8158631
  34.0551114  53.3829165  37.0060420  33.6243105  53.3320713  37.8593063
  34.4862723  54.2375135  37.0059681  10.9741235  54.1514349  44.8329449
  11.0469723  53.6428022  44.0253496  11.8634641  54.1681290  45.1865387
  61.6284561  55.0488281   9.8591501  61.1234999  54.4867325  10.4467702
  62.0258856  55.7018661  10.4351926  34.5836949  52.1252441  24.6575379
  34.0524626  52.6766777  24.0831327  35.2982092  51.8171358  24.1000676
  23.0824065  45.6636524  15.6665075  23.2142591  45.0099421  16.3531744
  22.5566483  45.2136660  15.0052023  52.4080824  17.5705911  50.1955145
  52.9573333  17.7139951  49.4248074  52.6775315  18.2516958  50.8117383
  27.4815631  43.7131929  24.8010540  27.5238538  44.6409941  25.0326180
  28.3662939  43.4997749  24.5045161  56.4706531  34.3618584  17.2047365
  56.7049828  34.3262839  18.1321287  56.7824665  33.5306406  16.8468535
  54.6905756  53.9869165   6.7143458  55.5794096  53.7857246   7.0071346
  54.3063068  53.1339693   6.5117490  70.2504428   9.0616704  64.2777890
  69.5282992   8.5547639  63.9065930  70.2341922   8.8531019  65.2118491
  14.3387096  16.4726879  50.7176262  14.7371738  16.4077236  51.5855211
  14.5392100  15.6356717  50.2987665  42.7691841  70.7377243  28.4292173
  43.0845833  70.7545662  27.5256300  43.2514000  71.4408255  28.8643646
  53.7866045  50.8504583  57.1133506  53.2416839  51.3014223  56.4684295
  54.3828532  51.5256406  57.4371642  16.7830515  44.4094038  36.4995885
  16.4777827  44.2130756  35.6138706  16.1905658  45.0936890  36.8109560
  60.1408513  35.4766561  46.2328595  60.2031662  34.5244934  46.3085681
  60.3374692  35.6572153  45.3136354  77.1705874  11.7094375  56.9989621
  77.1687706  10.7597400  57.1185773  78.0791505  11.9684698  57.1527445
  24.0482680  59.1338540  62.4823835  23.6031310  58.9294530  61.6600039
  23.9069240  58.3613683  63.0296650  30.5813265  39.3363810  16.3535643
  30.8029103  38.5248423  15.8969057  31.3318706  39.5029354  16.9238055
  15.3569572  40.0836231  18.3788591  15.4920022  39.1541101  18.5632521
  15.5970494  40.5266000  19.1927153  48.6408806  51.6475248   4.0363535
  48.0971098  51.9184351   4.7760502  49.4670916  51.3731766   4.4342667
  19.2032158  42.4779654  23.0804539  19.3895137  43.1366253  22.4113584
  19.3631721  42.9275608  23.9102173  27.0930505  72.3845291  23.6998558
  26.9202828  71.6082573  24.2325687  27.2415948  73.0837059  24.3365049
  70.7082030  64.8233938  36.3168669  69.9201933  64.4630623  35.9101319
  71.1451015  65.3005171  35.6113863  40.2987480  32.5088286  16.7177999
  41.2097311  32.7638531  16.5718341  40.3259611  31.5548611  16.7915428
  79.0045812  26.8771648   1.3914293  79.8493024  26.8022609   1.8353523
  78.7600620  25.9743714   1.1879434  27.0847464  45.8154774   1.6563298
  26.7316961  45.1283455   2.2215189  27.5750899  46.3848925   2.2492579
  73.8178094  18.0942251  64.0169754  73.3331259  18.8316537  64.3878036
  73.8559445  18.2801820  63.0787867  19.5871675   0.7780129  17.7667415
  19.4943738   1.6490680  17.3808873  20.4141498   0.4474983  17.4158967
  49.0199964   5.7810546  50.0368184  48.8084047   6.3714076  49.3136674
  49.3715684   6.3537313  50.7184881  41.9002438  39.4618726  25.3451896
  41.3080072  39.6103406  26.0823750  42.1189976  38.5314631  25.3973222
  51.0922766  49.0147335  64.2897925  52.0144964  48.9791364  64.5437089
  50.6695867  49.5098609  64.9915143   5.2007000  41.9923927  58.5590017
   5.7266133  42.7188016  58.2243776   4.3322532  42.1315338  58.1812811
  18.3799779  19.6527112  56.3334608  19.0612435  19.7983122  56.9898939
  17.5708508  19.5810676  56.8398285  43.9633386   4.1564800  60.1447868
  44.3651502   4.6097423  59.4036185  43.8879029   4.8272754  60.8234411
  32.8272009  53.0472994  13.8569260  33.1420112  52.4905396  14.5690668
  33.5068727  52.9849768  13.1858134   7.7781098  18.9942790  58.9172494
   7.1487062  19.6744872  59.1568309   8.0971210  18.6575080  59.7545367
  26.9210260   9.7578527  44.2723876  26.3724487   9.5401241  45.0259691
  27.7304332  10.0963260  44.6551710  73.5314425   9.5414401  55.0526374
  72.5852175   9.6314479  55.1657307  73.9078363  10.0397064  55.7780945
  31.3628364  60.7430983  29.7835636  30.8855915  60.0549269  30.2471209
  31.4920473  60.3929043  28.9021444  20.6250541   8.7997533  63.8570955
  21.0918872   9.1078521  64.6338701  20.5616061   7.8520872  63.9759595
  30.5713196   9.5936305  11.9564426  31.3668449   9.3438537  11.4863551
  29.9084665   9.6878250  11.2723482  15.9625590  49.1591644  22.0758510
  15.3735149  49.8517990  21.7766619  16.8404233  49.5120144  21.9306421
  23.4579968  42.7345514  27.3466325  23.9781404  43.5328007  27.4387193
  23.7790799  42.1581316  28.0400848  59.6989179  53.6560422  57.1334284
  59.0991926  53.3354074  57.8070420  59.3157602  53.3560473  56.3091570
  18.7421815  59.2626668  57.5603020  19.1742198  58.7973501  56.8440246
  18.1311290  58.6235906  57.9269647  19.8515248  59.8835707   6.3207132
  20.0327182  60.6477690   5.7735366  19.4244051  59.2624474   5.7307923
  63.3750772  56.4960623  11.8867254  63.0834007  57.0516157  12.6095819
  64.3078804  56.6908169  11.7962742   7.0147865  20.5045272  64.4865349
   6.5099733  20.0558044  63.8082698   7.9236333  20.2630617  64.3078665
  37.9305220  46.5555096  32.3881960  38.3325148  46.9145632  31.5971780
  37.1791673  47.1247339  32.5545716  68.1511720  18.8726623  13.5556459
  67.4300130  18.2689578  13.3776033  67.7620681  19.5564277  14.1008949
  25.6330633  51.8143559  29.4075513  25.1824141  52.6462078  29.5530319
  26.4224696  52.0515156  28.9209056  24.2224693  39.9798274  12.6051676
  24.3606758  40.9267664  12.5842035  23.2708955  39.8768640  12.6169467
  19.0484822  53.0673456  19.6046054  18.9004827  53.5434866  18.7875259
  18.1784511  52.7676153  19.8681176  23.0789781  60.3225565  34.5124269
  22.2799921  60.3930235  33.9900398  22.7685618  60.1967382  35.4091096
  27.2007911  17.9500533  50.3568393  26.5872876  18.6249162  50.6473750
  28.0526130  18.2468654  50.6770402  42.1598482  61.4106941   3.1037030
  42.9987097  61.6719532   2.7238488  42.1681118  61.7865324   3.9839929
   4.4031708  19.8025180  45.7916265   4.3529169  18.9173652  46.1524790
   3.5081761  20.1366664  45.8512944  11.5871947  21.2680246  58.4093284
  11.0263221  21.1744644  57.6393276  11.0828321  20.8758403  59.1221004
  43.1804085  55.3833580  27.3546886  43.2761955  56.2820292  27.6700521
  44.0773630  55.0555897  27.2892952  52.3087279  25.8362152  61.9253304
  52.7925460  26.0811902  62.7140876  52.8716867  26.1144925  61.2029248
  77.5277758  40.0008202  46.6247272  78.0851746  40.1915169  45.8702898
  78.0572701  40.2489948  47.3825407  31.3950706  68.8492823   4.7438064
  31.7075801  67.9515219   4.8560229  31.4488220  69.2327833   5.6191760
  55.7774401  61.7538500  21.2098074  55.1556206  62.4792337  21.2679887
  56.6322756  62.1770096  21.1296678  46.6943073  70.3507710  44.5499849
  47.2959518  70.6103134  43.8522100  45.9388733  69.9838686  44.0907097
  28.6177444  51.4840984   5.9865212  29.4617081  51.8411207   6.2630910
  28.3344531  50.9415340   6.7224568   7.2800080  21.4799220   6.2987316
   7.8164212  22.1324451   5.8484954   6.7936484  21.0450942   5.5982947
  39.3255277   3.7537481  45.4221028  38.7275763   4.3372156  44.9549299
  40.0595518   3.6310626  44.8201161  47.6732635  45.9688807  15.8256829
  48.0203962  46.2917089  14.9941087  46.9733238  46.5829515  16.0475838
  74.2841275   1.4839752  15.9121668  74.9607880   1.6093929  15.2468634
  73.9556630   2.3655183  16.0888743  36.4178647  17.0349033  62.6943827
  35.5656149  16.8537814  62.2980309  37.0529993  16.7474182  62.0384979
  17.6676147  20.0996305  61.3429370  18.0020110  19.3608095  60.8344492
  17.2112481  19.6954681  62.0809179  29.0646188  11.1346628  63.2983944
  29.4851892  11.5923454  64.0263222  28.1420009  11.0840894  63.5482971
  51.4683628  73.7408352   5.0544477  51.3449001  74.6788311   4.9090147
  52.2882128  73.5347176   4.6054497  18.6023728  11.8803508  41.9264126
  18.2577149  12.7384574  42.1735668  19.3312995  12.0755584  41.3375282
  13.4993875  47.6393747  23.5888481  13.6043966  47.4854660  24.5277405
  14.2078900  47.1394444  23.1834722  52.3169573   9.5497424  24.7786427
  53.1167252  10.0709541  24.7082925  51.6767581  10.1448829  25.1687455
  40.8406734  64.8045731  15.3987336  41.4201593  64.4424629  14.7284329
  40.8718634  64.1671038  16.1120999   7.4432628  29.6533252  60.7429549
   7.2740643  28.9622356  60.1026451   6.5933673  30.0747205  60.8707696
  69.7152086  11.5445234  61.2752288  69.5620938  11.6523029  62.2139364
  69.1274877  12.1773387  60.8624786  20.0467205  37.0737171  15.5038273
  19.8006976  37.6252103  16.2464976  20.9018207  37.4065065  15.2312732
  30.2374189   3.4641506  42.2246510  29.9721019   2.9619600  42.9951340
  30.7968776   4.1586305  42.5724011  49.4287832   0.0520999  10.2155709
  50.1152332   0.5156858  10.6952667  49.4235428   0.4608924   9.3500715
  21.9408464  63.8675022  29.8637700  21.2223935  64.0238094  29.2508888
  22.0487714  64.7000265  30.3236485   0.7830588  30.4648597  21.9001698
   1.4488761  30.2179153  22.5419927   0.0400321  29.8933513  22.0938778
  37.8643842   7.3357875   3.7201151  38.1630512   7.5633342   2.8396311
  37.7279849   8.1789882   4.1521385  69.5496717  58.3228254  39.9195480
  70.0460461  57.5952244  40.2943039  69.7766891  59.0746450  40.4667807
  46.9980176  52.1306707  60.5381214  47.1437969  52.3385717  59.6152144
  47.2065945  52.9414941  61.0021287  33.6567211  43.1958866  28.3749104
  34.3118334  42.9049063  29.0092516  32.8568578  43.3044720  28.8893580
  76.2592347  10.0779827  16.0610950  75.4346783  10.5239494  15.8675647
  76.9153292  10.5574806  15.5552721  41.8894434  25.7975984   0.5595408
  42.1817780  24.9528193   0.2173135  42.1782494  25.7992268   1.4721319
  68.6902030  13.6075981  32.4382949  68.0626614  13.2203205  33.0485702
  68.3206017  14.4647891  32.2265387  12.3186147  40.9726238  26.8285012
  12.7156234  40.4938030  27.5560665  13.0597067  41.2394810  26.2846255
  22.2458090   9.2843921  15.7038796  21.9184752   8.9036376  16.5188110
  22.0615824   8.6211879  15.0387001  20.9340668  69.1053200  33.8981891
  21.0031652  69.8283529  34.5216322  21.6494107  68.5152435  34.1355085
  60.9999609  39.8474264  13.7617719  60.9662342  40.1474094  14.6701241
  61.1840582  40.6383371  13.2550156  54.5053339  63.2964516  31.0383224
  55.0573587  63.2609606  30.2571440  55.0171280  63.8010168  31.6705465
  21.0957837  34.5982742  16.3505614  21.8530989  34.9186015  16.8405557
  20.5866456  35.3849649  16.1552894  43.7586136   5.0685699  22.8476834
  43.9133699   5.4887588  23.6936879  42.8082545   4.9635608  22.8026891
  51.3832522  70.1126689  57.5379938  52.2621084  69.8522347  57.2622800
  51.4753557  71.0295362  57.7970350  47.5691557  40.8053064   4.5248938
  48.4001064  40.8481503   4.0516979  47.7681971  41.1607075   5.3910953
  36.6249251  48.4807920  10.8107209  36.9673014  49.3263340  11.1006737
  37.1704245  48.2462168  10.0599647  19.9361563  36.7592645  28.0835938
  19.8291504  37.5845456  28.5565519  19.1402662  36.6795921  27.5578141
   5.7031099  51.1026384  59.2964607   5.0817959  50.3754426  59.3336874
   5.2000277  51.8626977  59.5887750  68.9473911   8.9244605  60.5930647
  69.6860786   8.4210397  60.2508092  69.2781313   9.8202754  60.6591040
  29.3938017  69.4859618  44.4689685  29.1852615  68.5819477  44.7045570
  30.2566856  69.6406764  44.8533207  57.6613634  33.3203269  63.3004753
  58.4363367  33.5254623  63.8235122  57.1148546  34.1035463  63.3647215
  67.6771116  71.9559669   3.6206830  67.6992035  71.0144091   3.7915972
  66.8007183  72.1152925   3.2702827  75.7712252  19.4893749  36.3137865
  75.6448348  18.5574634  36.4920926  74.9866708  19.7494228  35.8309984
  24.4987750  64.8419857  31.8741751  24.4515705  64.0311527  31.3676667
  24.5983791  64.5524168  32.7810717  47.7140434   2.1839197   8.3021337
  48.2613237   1.4491899   8.0248511  48.1350549   2.9538495   7.9197890
   9.0964347  70.8444023  59.2048025   8.4243906  70.4516172  58.6477518
   9.4180179  71.5921593  58.7011385  52.8668928  53.7986040  19.5985949
  53.4787035  54.5286369  19.6932983  53.4223509  53.0448675  19.3996406
  28.2094407  53.4386683  20.8441377  28.5897446  52.7057648  21.3283443
  28.8299608  54.1565609  20.9699059  30.6188464  21.5840602  22.1867585
  29.9530697  21.9170451  22.7884984  30.1947355  20.8496404  21.7429233
  22.7381778  67.5731039  27.6543212  23.5999274  67.3009348  27.3388195
  22.6821470  67.2123289  28.5391569  56.1641820   4.5422943  60.4127550
  55.3439863   4.4417484  59.9296379  56.1034377   5.4112441  60.8095884
  70.2653790  33.8323092  32.9440403  69.3340778  34.0322018  32.8494239
  70.3266668  32.8918099  32.7768874  62.3514239   4.7407056  63.1032011
  61.5321891   5.0643731  63.4777945  62.9980819   5.4099752  63.3271396
  59.3229961  39.6597147   8.4995490  60.2666044  39.6149302   8.6539072
  58.9432716  39.0932655   9.1712463  36.6856074  37.5287724   6.9414991
  37.1921039  36.7400336   6.7476279  36.7945576  37.6578140   7.8836828
  72.8356838  55.1509953  14.8552847  72.0033216  55.6129169  14.9554706
  73.1913280  55.1030684  15.7426691  14.3917911  25.5354310  50.1545268
  14.5461814  24.9719907  50.9127694  15.2339713  25.5619050  49.7003621
  46.5610838  41.7365170   0.5175792  45.9812117  42.4585581   0.2754306
  45.9794950  41.0811615   0.9029268  31.7098117  21.2903953  19.4639957
  32.1953487  21.9977283  19.8884547  32.1453834  21.1739779  18.6196280
  29.2349601  55.0675249  23.3160281  29.6154904  55.5795479  22.6024032
  29.5107412  55.5232430  24.1113234  47.6191902  64.0420628  12.9046643
  46.8755770  64.1850376  13.4901834  47.6481819  64.8273897  12.3581719
  78.8879951  30.0787593  55.8587193  78.0579575  30.4348899  56.1756426
  79.2126639  29.5458127  56.5845227  21.5881602  18.7655498  44.1107589
  22.5100104  19.0105440  44.1907960  21.1098973  19.5818569  44.2561346
  33.3563256  36.3737464   6.1590219  32.6053286  36.6192389   5.6186795
  33.9143610  35.8606339   5.5746031  56.9198513  15.1661086  11.5298235
  57.5636005  15.5500615  12.1251392  56.0853148  15.2543056  11.9902623
  76.5493734  14.9042131  64.9712320  75.6191118  14.6840001  64.9227062
  76.8639882  14.8144771  64.0716783  32.1121907  46.2911797  21.7073464
  31.7838097  46.9880342  21.1392021  33.0314398  46.5144873  21.8534517
  77.4516869  55.4784679  21.7112565  76.6094875  55.6385136  21.2854362
  77.4293041  54.5505571  21.9451618  33.1940842  53.8443899  22.9426670
  32.5345206  54.5197630  23.1010461  33.6916137  54.1670275  22.1912694
  49.0678985   4.7818572  14.2080557  48.1644757   4.5524557  13.9902604
  49.2015560   5.6389911  13.8034797  22.0838468  23.2826997  43.2063299
  22.1573894  24.1885568  43.5067445  22.9826801  23.0242111  43.0025655
  24.2756391  16.4064074   9.8557454  23.8895941  17.0581269   9.2705429
  23.6984301  16.3983309  10.6192863  31.8596387  41.6034842  33.6738801
  31.9679976  42.5202703  33.4209156  32.1927476  41.5613747  34.5702577
  43.8437843   8.5795045  20.4185271  43.0624390   8.9357293  20.8414221
  43.5734701   7.7169895  20.1035166   5.8146517  31.3336278  62.6063710
   5.2930133  32.0914794  62.3422003   6.7214648  31.6069938  62.4678287
  12.1577907  67.9558182  23.2479000  11.5897238  68.4690523  22.6733375
  12.2470033  67.1119785  22.8049469  55.0130272  14.7228050  22.9189134
  55.3794193  14.8626792  23.7920833  55.6150389  15.1786923  22.3307109
  64.2614508  72.3249501  44.8424870  63.9953733  73.1443495  44.4253331
  64.4619036  71.7387671  44.1128021   1.7668574  19.3964054  59.8113119
   1.8769281  19.7023918  60.7115817   2.0704715  18.4887840  59.8280209
  77.2106727  15.9642841  46.3755148  77.2192391  15.6717636  45.4641479
  76.5765722  16.6811563  46.3910180  14.0614700  51.5522337  22.5822687
  13.6708570  51.9339514  23.3683610  13.4281695  50.8942938  22.2954178
  25.9098165  49.3222143  63.8369074  26.6425912  49.7781469  64.2509167
  25.1430242  49.5935441  64.3415351  15.7945697  24.8961164  62.3569947
  14.8477142  24.8561860  62.4915355  15.9485643  25.7690956  61.9958406
  43.0090523  58.9680338   9.4310534  43.9317465  59.0842867   9.6576697
  43.0237198  58.6087704   8.5439527  43.6575334  23.7089540  57.3511982
  43.6155526  24.0255596  58.2535451  43.4091537  24.4655706  56.8200963
   2.9706399  11.2222202  42.5452709   2.5518910  12.0733554  42.6735401
   2.3850552  10.5997856  42.9764223   2.8689234  39.4073202  55.0791818
   3.5437290  39.8958970  54.6078437   3.2039826  38.5114623  55.1166564
  31.6448636   0.4833991  35.6784010  31.3376923   0.7190044  34.8029757
  31.3717417   1.2143142  36.2328339  69.0067673  63.8213873   7.9143751
  68.2692194  64.2498636   8.3487272  69.5593071  64.5426798   7.6132584
  15.8008683  32.0671344   4.5491877  16.2911391  32.8758359   4.6970683
  16.3565433  31.5540504   3.9625016  39.6302009  39.0757132   2.3837692
  39.9345231  39.7847509   1.8173027  38.8842916  38.6993337   1.9166586
  21.1341111   8.5010578  58.6532646  20.2393310   8.8381626  58.6089992
  21.5190713   8.9422132  59.4105100  31.5292464   0.7135351  18.9275777
  30.7086189   0.6018216  18.4476578  31.3770349   0.2789123  19.7667241
  56.1117411  72.2335052  16.3679802  55.2963686  72.6293087  16.6757751
  55.9813929  71.2927866  16.4875436  62.3633766  75.0397205  33.1476116
  62.9057169  75.2067709  33.9184499  62.7974463  74.3119097  32.7025199
  50.4966433  16.1397846  46.6051769  49.9865277  16.4507968  47.3530293
  50.4894169  16.8723018  45.9890604  79.2238339  33.7440444  60.5094632
  78.7133177  34.4592668  60.1299092  79.0104707  32.9839612  59.9681890
  11.9383872  43.0799246  14.0969515  12.3292875  42.2206879  13.9383745
  11.2367678  43.1470776  13.4492993  27.3359793  16.4216144  19.0512216
  27.0756398  15.5532749  18.7439024  27.1989201  16.9939144  18.2962894
  66.8791437  75.0362104  36.7445093  67.0516730  74.2376083  37.2432095
  66.8548155  75.7297367  37.4037987  79.2633438  47.2982711  55.7553863
  79.9500990  46.9748962  55.1722657  79.0724087  46.5595335  56.3333499
  56.0597809   2.0824153  29.6348715  55.9505017   2.7773197  30.2840209
  56.6742308   1.4705188  30.0401664  28.4851806  15.0051738  55.4599529
  28.4334199  15.8318569  55.9396821  27.5751464  14.7215463  55.3726166
  19.9600665  11.0591419   1.1995479  20.0665681  10.1587112   1.5063469
  19.9875085  10.9918029   0.2451143  38.1786132  57.1246099   3.6527711
  38.1184435  56.1693287   3.6597517  39.0616322  57.3113155   3.9715979
  33.4305358  73.6064196  41.6318941  33.8555455  73.3020926  40.8300304
  34.1168284  74.0801954  42.1017504   7.9094784  55.6253435  50.0107068
   8.6628453  55.9467985  50.5060249   7.3740999  55.1678850  50.6590336
  20.5732775  53.8862705   8.1330782  21.1034989  53.7434053   8.9170957
  20.9317112  54.6837997   7.7435863  40.4417706  42.2594213   7.5270170
  40.1118755  41.3609457   7.5390148  41.2626171  42.2066641   7.0374668
  10.0387633  67.0209217  25.6015372   9.7187722  67.0543575  26.5030479
  10.2562189  67.9289484  25.3907394  32.5955200  51.2663126   4.3053237
  32.8991103  50.8984089   3.4754363  32.0502901  50.5784035   4.6870822
  33.8237786  66.3149357  11.3248730  34.6477795  65.8715200  11.1232865
  33.5713005  66.7362833  10.5033183  75.6447983  43.8265085  14.2126667
  74.8420858  43.7765408  14.7316897  76.3281107  44.0394640  14.8482513
   9.3133108  28.9274837  54.8966688   8.9305894  28.9743949  54.0205663
   8.8118212  29.5598699  55.4112833  63.7725504  10.3628547  24.6036696
  64.6691950  10.3012378  24.9330044  63.6354573  11.2985904  24.4558716
  25.7468907   3.9781959  47.6853943  25.8861272   3.0400426  47.5561237
  25.6807010   4.0819461  48.6346531  69.1770792  60.5858040  61.1586475
  70.0336647  61.0111809  61.1192751  68.9370203  60.6159735  62.0847607
   9.5700423  19.3441297  39.3429476   9.8284118  19.4465448  40.2589112
  10.3282325  19.6492530  38.8446718  36.9854037  16.4762260  50.8770030
  37.0361249  15.5516864  50.6343490  36.8806283  16.4687444  51.8284219
  54.6233940  35.6808496   2.6489660  54.8543930  35.2429295   3.4681726
  54.2494583  36.5185070   2.9223335  59.7096920  70.4857397  15.8410299
  59.2378426  71.2944555  15.6421089  59.6333361  70.3912449  16.7904890
   4.9697845  40.8873464  53.5920280   4.9069516  40.8354999  52.6383000
   5.8084504  40.4752780  53.7995594  34.5609061  30.2329780  63.3634969
  35.1632087  30.7430030  62.8218908  34.7726695  29.3211461  63.1636321
  22.6217238  24.8699291  23.6262393  22.1622006  24.2792899  24.2230773
  23.5315434  24.5733936  23.6491609  24.8921792  12.5773628  40.7034445
  24.6192090  11.7992694  40.2173567  25.8483521  12.5626953  40.6616163
  35.0310819  13.1549026  65.2447087  35.8533494  13.2585908  64.7657926
  34.5672958  13.9806510  65.1059016  12.9814593   9.8878486  49.7117043
  13.6164348  10.4841049  49.3148184  13.2934539   9.0141685  49.4759512
  27.2481601  25.8721258  63.3662939  26.3495176  26.0865022  63.1158611
  27.7668540  26.0644723  62.5851476   2.6479968  59.2858887  30.5951428
   3.5209131  59.1115379  30.2432203   2.7337828  59.1314363  31.5358973
  48.2597208  51.5672350  14.7551322  48.4494209  51.8971395  13.8768339
  48.5392380  50.6520271  14.7327614   7.5651805  10.5514629  11.7750132
   8.3842055  10.7417590  12.2324145   7.6638762   9.6486385  11.4726722
  67.2195752   6.5976722   7.3437643  67.9409058   6.5651996   6.7153847
  67.5321420   6.0913951   8.0935735  59.4996198   6.1189605  53.5018450
  58.9477457   6.9010259  53.4954804  59.9800130   6.1580802  52.6748472
  73.9085340  68.7419224  25.8854866  73.1510830  69.2089653  25.5328250
  74.0855694  68.0538273  25.2440667  12.9020326   1.0485275  12.7190435
  13.3254115   0.2342994  12.9910827  12.0127313   0.9840019  13.0672038
  11.6143918  42.5064039  45.4642391  11.9752657  41.9194174  44.7998238
  12.3173058  42.6016283  46.1069489  32.1575475  64.8351002  38.7711787
  32.2813106  64.0989637  38.1720042  33.0002117  64.9261618  39.2159915
  30.1104665  57.1942091  21.9213653  30.1021910  58.1392670  21.7696238
  30.9160852  57.0377827  22.4140525  69.5804358  65.4071188  16.7439973
  68.8589859  65.9966135  16.9636405  69.3244219  64.5648479  17.1198452
  55.6189013  71.2188667  57.0871997  56.3454151  70.9468431  57.6479238
  56.0378766  71.6704315  56.3545471  41.3457791  39.1994096  56.4586961
  40.8822410  39.8254491  57.0149708  41.3294046  39.5953132  55.5873620
  53.8957484   6.7481334  13.9411378  53.5881884   6.1873157  14.6532631
  53.2365473   7.4393661  13.8788629  36.9412565  55.3008556  10.3388166
  37.0369434  55.8373022  11.1257720  37.1220160  55.9016895   9.6159363
  21.8989389  11.2666608  58.3636713  21.5457503  10.4899360  57.9298609
  21.6758363  11.1476566  59.2868691  72.7182245  46.2247515  44.3589306
  72.8360653  45.4692602  43.7831020  71.7691135  46.3159657  44.4431686
  22.3682880  40.7662535  15.1652396  22.4863601  40.7879305  14.2155969
  21.4256382  40.8739376  15.2919126  79.3275316  31.2216760  43.6269742
  79.2279919  31.4600231  44.5486647  80.2483614  31.3962890  43.4325224
   2.6387612  11.9932372  29.6431136   2.9464166  12.8974349  29.7064614
   2.7250115  11.7753608  28.7150407  41.4288445   5.1808460  10.0578034
  40.6928714   4.8932273   9.5175737  41.7452033   4.3806894  10.4772031
  57.6043844  53.0358505   7.6992726  58.0869627  53.6607647   8.2404137
  58.1780434  52.2713900   7.6468426   2.6120536   6.4387805  37.6402521
   2.5312249   6.9532020  36.8370867   2.3876683   5.5463607  37.3766899
  13.1227986  13.2790668  10.7961619  13.6074941  12.4750621  10.9829235
  12.9664771  13.6696918  11.6559339  61.5658617  56.0125065  36.5970039
  61.8798018  56.2737513  35.7313085  61.5198231  56.8305016  37.0919824
  15.3826873  17.3452903  53.2894975  15.5599515  16.4046527  53.2928008
  15.2520005  17.5676299  54.2113000  40.6643522  63.9068502  44.5112210
  40.3519941  63.9032406  43.6064273  40.8088625  62.9835815  44.7183996
  33.4469128  63.4226561  35.7243133  33.5083604  62.7993631  36.4481664
  32.5179052  63.6492682  35.6815863  70.1567383  59.2147161  63.7289864
  70.4088839  58.8924028  64.5942997  70.8050128  59.8891927  63.5263699
  72.4084949  70.4950333  64.9368000  71.9999647  71.0123682  64.2427540
  72.3276520  71.0390520  65.7202148  67.1502829  70.3906441  10.1628554
  66.7992544  70.9591770   9.4774514  67.5155640  70.9935617  10.8103812
  52.0396240  13.1140144   1.7431049  51.8609579  12.5915725   2.5250015
  52.0033725  14.0208061   2.0475025  64.2131901  74.1640282  30.7632709
  64.4650841  73.2525921  30.9118152  64.6235371  74.6459961  31.4812899
  15.1422565  20.2425672  52.2905558  15.2431075  19.4065238  52.7456254
  14.6794622  20.8009817  52.9152363  39.2145173  16.7117359  57.5994134
  38.2869737  16.6753818  57.8330296  39.5901029  17.3477508  58.2082289
  60.4659510  58.7931013  22.0821500  61.4091158  58.6455536  22.1521544
  60.0723791  58.0407953  22.5241590  72.1523094  63.3212519  13.8537383
  71.9327068  62.5676203  13.3059728  71.3840151  63.8894987  13.7984741
   2.3658173  13.3238555  56.7170262   1.5894048  12.7641155  56.7273438
   3.0524580  12.7740480  56.3395744  58.1473358   8.7637050  37.4301839
  57.2738107   8.9667137  37.7648067  58.4797342   9.6004207  37.1051550
  27.8828351  12.5582029  40.7115942  28.3032100  11.9246770  40.1300746
  28.0738561  13.4090806  40.3169542  23.9904420  10.2579738  39.4221312
  24.4191663   9.7742845  38.7161094  23.8516204   9.6060897  40.1091581
  48.6639118  60.0631094  14.4732523  48.3110428  59.2928648  14.0277934
  48.6909437  59.8140860  15.3970957   3.6657405  46.7287445  15.7063186
   3.0860668  46.6856241  16.4668119   3.3681476  47.4986696  15.2216721
  66.5065177   9.8977764  12.2090638  65.9994967  10.6084545  12.6016068
  65.8490832   9.2612464  11.9282746  52.3185587  64.7356606  30.0992179
  53.1623650  64.3781519  29.8227930  52.2999859  65.6185865  29.7299957
  22.7431560  68.8680601  21.4933634  22.9178691  68.4901571  20.6314468
  22.8870344  69.8071766  21.3767672  57.5431490  70.7281923  12.8068697
  57.9167843  69.8638630  12.6349425  56.6349983  70.5519581  13.0527163
  41.9888432  13.6015804   0.5481303  42.1413071  13.4150894   1.4745253
  42.5793655  13.0081947   0.0840136  30.8173823  41.0231781  29.3754840
  31.6286898  41.2824583  29.8122740  31.0978484  40.4181957  28.6887765
  78.3712132  14.7651870  28.6167479  78.8540728  14.7459895  27.7904868
  77.4638398  14.5889766  28.3680463  57.0645428  63.1353521   1.3987450
  57.7348709  62.7122211   0.8622234  56.4917421  62.4198246   1.6747038
  65.3350210  60.5630207   0.1118662  64.7274303  61.1549139  -0.3316766
  64.9323845  60.4018116   0.9651703  33.6731614   6.1857517   5.5265689
  33.5010208   5.4977901   4.8836797  34.6276082   6.2514694   5.5572915
  14.5926873  31.8005283  11.7256320  14.1540734  31.9244678  10.8839154
  13.8849608  31.5954120  12.3365986  15.2042548  36.6546966  52.4910384
  14.7585075  37.3702814  52.0377403  15.9330957  37.0765640  52.9460710
  27.3776166  62.8103830  53.2200473  28.2321088  62.5373746  53.5540241
  27.5791852  63.4740259  52.5603634   2.0971600   7.9829891  10.4424167
   2.6789204   8.7282855  10.5918348   1.5637986   8.2423408   9.6910858
  62.2625549   6.8034751  26.9652200  61.4301713   6.4113338  27.2290206
  62.0159252   7.6221855  26.5349770  38.9490192  10.1459123  56.1715543
  39.7363441   9.6317769  56.3504666  39.2644994  10.9034683  55.6787961
  69.9343443  60.3826237  42.1572685  69.9507427  59.7978067  42.9148626
  69.3136406  61.0701084  42.3987770  30.2056193  48.8928413   9.5940518
  30.2767253  48.8444376  10.5473793  29.4724727  49.4882631   9.4384825
  10.2083051  75.0707769  35.7792759  10.3703511  75.1655531  34.8406649
   9.2544377  75.0528288  35.8570385  68.1705888  20.2765376  20.7527900
  67.6045878  21.0208804  20.5482626  67.7031358  19.8019512  21.4401674
  50.1209505  53.8027103   3.2007670  50.5597575  53.9009578   4.0457693
  49.5563062  53.0377776   3.3116066  48.8711007   7.1391399   1.9049889
  48.6238487   7.3469550   1.0039275  49.0706308   7.9877193   2.3003823
  13.1744210   7.9342086  41.3057947  13.1953875   7.5295646  40.4385853
  12.2743670   8.2450397  41.4033651  44.6797152   6.1871536  36.8638277
  44.5044751   5.2478320  36.9202685  44.2138536   6.5630157  37.6107788
  13.5955779   3.3252717  50.9230381  13.7799375   2.6917411  50.2295798
  13.9745729   2.9352332  51.7107337  11.3353889  55.6220724  55.8857506
  11.0638849  55.0232126  56.5813654  11.8702857  56.2793638  56.3308155
  16.5110843  23.5748340  64.8043417  16.3806026  22.6434995  64.9827217
  16.1392228  23.7060405  63.9321410  21.1302154  39.5624114  52.7810889
  20.3632323  39.8274757  52.2734338  20.8577935  38.7592794  53.2249337
   0.2932517  15.2958877   2.4362239   1.2087123  15.2729709   2.7148661
  -0.0372346  14.4180496   2.6270628  10.3991008  44.4007587  16.3616264
  10.8394134  44.7502661  17.1363521  11.1108744  44.1783428  15.7615077
  74.3517144   8.7714202   6.3029933  74.5320733   9.0467937   5.4041755
  75.0637849   9.1516120   6.8174279  13.7916867   1.1722762  48.7720156
  13.1235139   0.5697019  49.0986347  14.0161721   0.8339651  47.9051876
  40.7933664  72.9130220  58.6098433  41.1612511  73.7332487  58.9386654
  40.0361109  72.7479553  59.1715765  51.8615770  63.3648205   6.0509843
  50.9979963  63.1093359   6.3753080  51.7229986  64.2236328   5.6516409
   2.6828925   4.8867233   9.1032195   3.2221381   5.0005252   9.8858362
   3.2297723   4.3739850   8.5080224  47.1407302   2.9495199  38.9900875
  46.7178948   2.7240188  39.8186946  48.0512364   2.6770122  39.1038704
  54.0298684   8.0541236   7.0231712  53.6181457   7.1982486   6.9040221
  54.9575026   7.8575523   7.1538877  62.5748968  66.2872267  35.0413632
  63.3366823  66.5046406  35.5786204  62.6695442  66.8319607  34.2599940
  71.9138987   8.3280570   7.4721092  72.8072007   8.0639942   7.2518516
  71.7009623   7.8219421   8.2561630  77.8790824   3.8032771  62.3604133
  77.5160854   3.1542303  62.9630774  77.1124046   4.2276336  61.9752353
  58.8129671   5.9963806  27.3120832  58.8098653   6.2094982  26.3789177
  58.1530269   5.3090389  27.4029803  71.1917479   4.8769767  20.5092740
  71.7537101   4.5856101  19.7912657  70.9715541   4.0742833  20.9819651
   7.3776754  54.8703814  29.8177052   6.5719637  54.6585608  29.3463349
   7.5161013  54.1251993  30.4023218   8.4276899  57.2828150  25.6740642
   8.4282812  56.4419699  26.1314654   8.8803705  57.8798437  26.2697721
  71.8566306  17.0541866  55.9190273  72.6878484  16.6462715  55.6763172
  71.1894687  16.4456184  55.6015730  65.5847509  16.4043147  22.2194004
  65.9751590  15.5508239  22.0313573  65.0239451  16.2489612  22.9793978
  63.1755543  60.5743408   8.9124125  63.3669519  60.6150341   9.8493981
  62.2452831  60.7905054   8.8483745  77.6740439  11.0896213  23.3120084
  78.1672366  11.4733131  22.5869036  78.3289607  10.9380538  23.9934349
  22.1925561   8.2747461  50.4139632  21.7123620   7.6993181  49.8185366
  22.8539197   7.7089836  50.8123892  21.3405180  44.2959690  13.6540651
  20.6500030  43.6927080  13.9288330  20.9508157  44.7951603  12.9363108
  37.4980323  31.5418817  53.6311584  36.7178218  31.7284442  53.1089562
  37.1838443  30.9784461  54.3383091   7.0406334   2.6257850  64.2485954
   6.0851996   2.5735380  64.2740584   7.2865312   2.9409553  65.1183273
  30.5790067  60.9131432  34.7854424  29.9947476  60.7285976  34.0500402
  30.3091073  60.2968216  35.4662776  27.5174499  56.6855907  17.0782650
  27.7307296  55.8874083  17.5616360  27.5278592  57.3766470  17.7405071
  33.6314559  32.7684736  11.6160798  33.6221480  32.8957772  12.5647318
  34.0008712  31.8937111  11.4954221  36.1937912  19.1488750   9.8980564
  36.6576906  19.7532470  10.4775035  35.3235109  19.5343978   9.7970200
  52.7591817  64.6843339  59.0288764  53.5506026  64.3903161  58.5778373
  52.9800288  64.6320249  59.9587816  16.0050941  32.1410346   7.9114377
  16.0860562  32.3232031   6.9752264  16.2534606  31.2207484   7.9987276
  34.4469452  57.6929617  33.5662580  34.9662876  57.5942898  34.3642426
  34.8456216  58.4347391  33.1112170  11.4710252  14.4451911  15.7490265
  12.1666495  14.7399051  16.3368034  11.7785661  14.6848590  14.8748362
  50.8203857  31.9784976  47.0492559  51.4531343  31.4357473  46.5788489
  50.3269593  32.4230720  46.3599688  52.8534000  29.3914367  61.5830528
  52.3775880  30.1193477  61.1830741  52.2354572  28.6607362  61.5615540
  39.5997429  72.9092646  39.2095780  39.1920686  72.4865341  39.9654436
  38.8632584  73.2079315  38.6760807  66.0541363  20.7183935  61.6766798
  66.6887291  20.5673744  62.3771918  65.6678589  21.5695859  61.8828344
  69.4970703  11.4290011  42.5815058  69.1464710  11.2854409  43.4605408
  68.7461805  11.7312217  42.0705652  12.9940057  73.7878323   4.5434424
  13.0377269  74.5602512   3.9798048  12.1385932  73.8496161   4.9685118
   1.6734950  22.7014835  12.7884936   1.8660657  22.1250923  12.0489514
   0.7178418  22.7510269  12.8110397  12.9326932  43.8740541  53.6737948
  13.8456695  43.7315084  53.4240228  12.4402706  43.2383157  53.1545740
  30.7947977  11.6892440  25.3225374  31.2414481  12.1344097  24.6024227
  31.0235064  12.2004707  26.0987926   8.6308798  70.9597778  26.5768671
   8.8760122  71.7580652  26.1090231   9.4289812  70.4313660  26.5834427
   9.0099558  41.2843752  32.5422287   9.3707594  40.4088306  32.6817727
   9.7421392  41.7922449  32.1926570  74.2582004  22.1696521  50.7167226
  73.9315478  22.0759488  51.6115707  73.9629905  21.3763954  50.2696973
  27.3535679   7.3217208  30.5922699  26.7143307   7.1042449  29.9138069
  27.2847911   8.2713706  30.6905746  38.0443048  58.5528088  22.8180003
  38.7310052  58.8843441  23.3965850  38.5129762  58.0408049  22.1588898
  17.3464274  52.0524836   9.1070354  18.0449116  51.3980198   9.1015172
  16.9270575  51.9624233   8.2513189   8.0672777  73.8682079  19.6266329
   8.9146066  74.3127966  19.6512067   7.6885152  74.0266132  20.4913163
  18.2039945  30.5882980  34.2259437  17.9060857  31.2416078  34.8589307
  18.9389436  31.0068132  33.7776977  50.7597668   9.8400504  45.1839924
  51.5013559  10.4452331  45.1794958  49.9887307  10.4062850  45.2172852
   4.9572484   3.3997394  31.6259581   4.1388528   3.1672098  32.0645791
   5.6379382   3.2052184  32.2702056  22.0500772  20.1700927  64.8090841
  21.6546933  21.0230066  64.6289577  22.4498002  19.9112369  63.9787548
   6.4219420   8.1621744  57.2934985   5.8856194   7.8994800  56.5454465
   5.8084099   8.5932256  57.8884786  35.2030611  70.4902792  33.7401628
  34.4759369  69.9451113  33.4396458  35.8533406  69.8660135  34.0621305
  50.1669693  73.1181574   9.2785287  49.8336840  72.5633621   9.9837643
  49.3918991  73.5659313   8.9394134  47.1416044  61.3973045  28.3109093
  46.3935566  61.2851715  28.8974953  47.9044867  61.2053299  28.8562441
  21.3493220  14.8889072  42.7721643  22.0973794  14.3781669  42.4626827
  20.8603970  15.1031310  41.9776249  75.3843816   3.6966665  53.2879257
  75.4902489   4.5996005  52.9883718  76.0560210   3.2066448  52.8135777
  58.3794737  54.0888405   5.0108600  58.0371714  53.2634878   5.3541565
  57.8432560  54.7627640   5.4286271  22.1343756  65.9132004   4.4447961
  21.4097786  66.4541292   4.7587818  22.8100872  66.0045719   5.1165831
   9.6381680   7.5024803  48.0063295  10.5456511   7.3031814  47.7761316
   9.1549746   7.3996265  47.1864653  14.5665709   2.9460866  36.6203952
  14.5035331   2.4281270  37.4228764  13.7197368   2.8259714  36.1906552
  22.8934607  71.3932610  12.3359191  22.7115568  71.5008736  11.4023459
  23.1216749  72.2722864  12.6383495  49.8695898  74.2429066  32.6373887
  49.6841764  74.7987700  31.8805075  50.7949257  74.0154457  32.5465584
  45.4995537  52.9191923  22.1010661  46.2307072  52.3411512  21.8830895
  45.6897259  53.7325954  21.6336894  75.9770472   8.5445316  42.8890610
  76.6843112   8.5137374  42.2448111  75.2366383   8.9218814  42.4140549
  24.3388240   7.7940185   1.9491166  24.8386781   7.0887096   1.5381110
  23.9374368   8.2614715   1.2165852  27.6691024  43.0386068  63.3885790
  26.8599527  43.0824281  63.8980789  28.3663671  43.1277086  64.0382839
  74.7187169  28.1435687  30.9459448  74.3481620  27.9014881  30.0972295
  74.8064168  27.3135383  31.4145398  70.6876183  74.3044758  12.3880315
  69.9660397  74.9260330  12.2920251  70.6849670  73.8063002  11.5706909
  32.8264880  57.0784712  23.1188297  33.0901194  57.1751261  24.0339184
  33.1047487  57.8939819  22.7019954  67.9168947  71.0002749  46.4841127
  68.6151989  71.5171378  46.8859291  67.3004838  70.8349120  47.1975040
  35.1896668  59.1499585  60.0410002  34.4626344  59.5376796  59.5538354
  35.9040207  59.7801203  59.9470448   7.3773718  15.2076864  28.6245680
   6.4994758  14.8978841  28.4019637   7.4001968  16.1106563  28.3077765
  27.3809481  47.4137497   7.9448164  26.6163659  47.3842764   7.3696828
  27.3472786  48.2832527   8.3436406  24.3744183  24.8280025  33.3236599
  25.0306582  24.1742563  33.5648966  24.8241997  25.6670260  33.4234834
  25.5723691  10.3976381   6.6391635  26.4452171  10.1021981   6.3801634
  25.0223637  10.2169693   5.8768737  31.0014319  30.4732752  13.1230032
  30.1007009  30.2259088  13.3321059  31.0024023  30.5938554  12.1734297
  45.3462505  32.4775386   8.4391552  46.3005733  32.5513005   8.4316736
  45.1557398  31.9099474   9.1860008  73.4259132  18.7276566  18.4282959
  72.8911576  19.0579045  19.1502416  72.7910915  18.4340870  17.7748060
  16.7004316   5.4771139  60.9081951  16.8379085   6.2406494  61.4688620
  16.4678876   5.8448030  60.0555759  33.3635998  54.2088223  28.8304520
  33.6345720  54.8808002  29.4559503  33.6694956  53.3870316  29.2142701
  31.1754644  64.2062301  59.0445220  30.6940991  64.8545379  58.5305035
  30.4952550  63.6967200  59.4849163  43.0572923  64.7516637  19.3212140
  43.3747126  64.8139339  20.2221012  43.3172919  65.5798839  18.9178753
  45.4279197  50.3674931  62.1487626  45.1987481  50.0199849  61.2868172
  45.7745552  51.2416619  61.9701442  13.2913101  19.4265056  15.2937162
  13.9098382  18.8128471  14.8973870  13.7059212  20.2833056  15.1926053
  30.1441145  32.4552369  16.2609911  30.6495595  33.2137108  16.5533555
  29.9883032  32.6155663  15.3302658  32.3703295  60.2424664  63.7493352
  32.6338554  60.9961599  64.2772856  33.1529403  59.6927971  63.7091511
  28.8418245  25.2373481  30.5750394  29.2072153  24.9730182  29.7307348
  28.8926387  26.1931825  30.5693245  24.6916024   5.2870561  60.1854205
  24.9041812   5.1143886  59.2682361  25.3693216   5.8965541  60.4777163
  20.2430081   6.4877385   8.5554475  20.4472995   5.6352609   8.1710273
  19.8391974   6.2799335   9.3980539  68.4370895   8.9539291  57.7702385
  68.6555572   9.5693399  58.4700757  67.9232212   8.2719518  58.2027662
  29.1317773  37.7978396  22.6922679  29.0692782  38.7391710  22.8542042
  28.8543940  37.3943782  23.5147691  17.4839783  54.2611694   3.9147714
  17.5959468  53.9465046   4.8118117  16.8607724  54.9837446   3.9904508
  55.8078957  66.6846514  20.6691360  55.1321173  67.1649885  20.1907730
  55.7479334  67.0155144  21.5653324  28.0357599   8.5090446   1.9076055
  27.7259803   9.3410754   2.2653663  28.9489627   8.6743218   1.6731332
  43.5237598  53.0175304   9.9325317  42.6094818  52.7820969  10.0903332
  43.8461781  53.3105087  10.7848465  44.7753191   7.1649414   4.6798694
  44.0883017   6.5970647   5.0288081  45.5924273   6.7492974   4.9551940
  76.1871862  18.3818531   7.7247924  76.1022472  18.8398898   6.8885982
  75.7067823  17.5634754   7.5994849   1.5132555   9.6645326  61.5026203
   1.4063105   9.2601437  62.3635867   0.8694681   9.2227811  60.9488821
  79.0303659  27.2436523  28.8333297  79.6430731  26.9204307  28.1727648
  78.2426023  26.7143798  28.7086868  47.2571993  19.0083528   7.6145548
  47.5392103  19.3638766   8.4573495  48.0647421  18.7032366   7.2010231
   8.5244720  10.8179332  40.5472928   8.8835423  10.8799459  39.6621614
   8.9868061  11.4950181  41.0412937  26.0083961  32.7473474  21.3677597
  26.6657114  33.4426761  21.3415289  25.3463149  33.0195475  20.7323170
  18.4313981   3.2694818  53.6524600  19.0476386   2.9376651  52.9994839
  18.7990348   2.9919578  54.4915408  37.1966004  35.6780720  14.9560821
  37.7716708  36.4430404  14.9747312  36.3218546  36.0394549  14.8130679
  41.4019156  16.4626443   6.5764493  42.1157360  17.0777047   6.4079374
  40.8840370  16.4703929   5.7714826  39.2575073   1.0096256   3.2967514
  39.5123196   1.6165863   3.9916620  39.5580077   1.4289002   2.4904387
  39.3340898  19.6103501   5.9430122  40.0303650  20.1569557   6.3072342
  38.5356545  20.1224613   6.0713589  69.9837637  68.2643098  55.7227087
  70.4001761  67.5634760  55.2210492  69.2357922  68.5299558  55.1877278
  77.7477837  66.8894524  52.9531044  77.0318556  66.9712109  53.5831815
  77.3461867  66.4816946  52.1858436   9.4769661   6.2748910  56.6642695
   8.5201399   6.2491228  56.6571605   9.7411005   5.3553964  56.6957545
   4.3487439  66.4508456  45.2303868   4.5914778  66.3418383  44.3109160
   5.0540242  66.0237021  45.7165557  36.4052534  75.1923084   3.0314016
  35.9185576  74.3729544   2.9418799  36.5305400  75.4959297   2.1323183
  17.1705930  72.9552262  21.5578032  16.4438836  73.4656232  21.2005711
  16.9203822  72.0438014  21.4063740  67.8821469  62.2574371  32.2239977
  68.1105280  61.6749043  31.4996153  67.2463513  62.8672403  31.8496471
   5.2946798   1.8868615  46.8425041   4.5283334   2.4287177  46.6545206
   5.7178228   2.3194958  47.5841313   3.9675848  71.4852249   4.3947372
   3.9306204  70.9101664   3.6304250   3.5821025  70.9683826   5.1022035
   1.7670004  12.2980024  37.7299434   2.2609560  12.8484393  37.1222812
   1.3704388  11.6257001  37.1758824  70.2043590  54.9345255  44.1283989
  70.6799248  54.6954775  44.9239635  70.3788027  54.2163181  43.5201406
  79.1325524  48.9383650  20.9785032  78.4688670  48.5176086  20.4319525
  79.9458618  48.4828997  20.7609916  44.9495046  28.1373121  58.9035403
  45.3677480  27.8991414  58.0761474  45.5895154  27.8967048  59.5734113
  11.3019785  68.0353564  52.8006738  10.5030188  67.5088471  52.8267807
  11.3584504  68.3401937  51.8950695   0.1350281  19.0374458  27.5235963
   0.2940948  19.9771237  27.4345207   0.6308082  18.7833285  28.3019662
  25.5442619  18.9476037  23.1541491  24.7260594  18.4722567  23.2984471
  25.6616998  18.9393997  22.2042155  11.6727102  41.7178392   7.7198607
  12.6276600  41.7414331   7.7810711  11.3743377  41.7177963   8.6293691
   5.8920187  15.0992835  12.0338786   6.5187019  14.8862612  11.3424158
   5.9893066  14.3920290  12.6714981  54.8472309  58.0984974  10.4968214
  55.0603867  58.1628180  11.4277673  55.2970695  58.8423729  10.0961637
  60.3670931  36.0688996   8.8580453  60.9138775  36.1466217   8.0762428
  60.3844833  36.9418883   9.2502439  65.3609395  67.8516311  60.9042731
  66.2250948  67.5994772  60.5788722  65.4293919  67.7680677  61.8553585
  30.4144049  29.8263335  26.9831824  30.2065063  28.9164567  26.7707324
  29.5872331  30.1948857  27.2933245  29.9221659   3.9246601  29.4176507
  30.3781557   4.4876707  30.0432086  29.2275620   4.4775873  29.0598392
  40.5534887  59.3032217  23.8957763  41.0191202  59.0794659  23.0899525
  40.8842325  58.6814594  24.5440435  47.9806232  14.0245199   9.8653877
  47.9620743  13.1860995   9.4039357  47.0595598  14.2694116   9.9542856
  76.8437910  72.3868388  54.4472927  77.7293968  72.7310437  54.3312567
  76.9516659  71.6430706  55.0400871  50.8554697  61.6644955  15.1496053
  49.9588299  61.3530779  15.0259793  50.7939482  62.2918606  15.8699250
  42.9703856  52.0212364  15.9803057  42.9151297  51.2254286  15.4512811
  42.1375513  52.4680042  15.8285868  57.0677857  16.9669010  14.1673714
  56.9315742  17.6669933  14.8057657  57.4230556  17.4107553  13.3973032
  70.6660049   1.4238311  49.3523639  71.1824386   2.0186259  49.8961919
  70.9887759   1.5710045  48.4633225  23.3309054  17.5147390  22.2804070
  23.7785029  16.9765604  21.6275287  22.5150776  17.0466697  22.4580860
  78.0774117  32.1274400   5.5114591  78.2166910  32.8999066   6.0592997
  78.3305264  31.3906145   6.0675639  29.4747829   3.9730215   2.4272892
  29.3177414   3.2804689   3.0691156  29.4458818   4.7828212   2.9368192
  36.4556730  67.1933502  26.2101322  36.1895556  67.7910799  25.5114704
  35.6878543  66.6413778  26.3585025  75.2213860  37.5853204  52.9180842
  75.3788519  37.8651441  52.0163434  75.6768132  36.7466210  52.9915923
  63.7792421  61.9753236  51.1228543  64.0138006  62.6294393  50.4645627
  64.5806265  61.8485946  51.6307431  26.0137288  13.2870532  56.6982871
  26.0251634  12.5641729  57.3256153  25.1001661  13.3474113  56.4190304
  54.7247665  16.7357780  30.1878911  54.3171756  17.4486638  29.6960646
  55.6386249  16.7402269  29.9031478  30.1945472  23.9949584   6.7250717
  30.9231567  23.5117579   7.1147871  30.4927015  24.2052841   5.8401442
  30.6021833   8.8006938   1.9202459  31.1221480   8.2836366   1.3050066
  30.7872629   8.4126151   2.7754492  78.9453753  23.2044507  32.8626090
  78.9889129  23.8138629  33.5994607  78.4253009  22.4702979  33.1893784
  71.6235240  23.6681129  38.8362556  70.8369239  23.1489707  38.6689740
  71.3404639  24.3381072  39.4585258  72.6348360   4.2202999  63.5813877
  71.8673809   3.7239505  63.8657847  72.2771509   4.9281789  63.0454793
  20.4065213  67.0393032  62.7206006  21.2243113  66.6900009  63.0747722
  19.7578463  66.3586015  62.8997548  47.4057055  25.4834676  11.2814677
  47.0083046  25.7481456  10.4518604  47.3512506  24.5278192  11.2790120
  44.7183387  16.4459468  55.9916895  44.1751592  16.6187335  56.7606687
  45.3427760  17.1711446  55.9716820  25.4556131  17.6694679  14.5404708
  24.5857167  18.0003166  14.3167484  25.8840156  17.5316405  13.6956584
  24.3440676  25.2845740  46.0291338  24.1314745  26.0773706  46.5215874
  23.6530161  25.2195096  45.3700066  42.7921073   4.3315174  46.8009025
  42.5739543   4.6222068  45.9153861  43.6473958   4.7232534  46.9776958
  65.2550078  53.4491080  34.0853101  64.4754386  53.0379766  34.4587737
  64.9559999  53.8192457  33.2547527   4.0305082  42.3823326  11.0215187
   4.7258942  42.5320618  11.6620255   3.7137644  43.2586782  10.8026016
  63.1531525  73.2643074  53.6382740  63.0339003  73.1985516  54.5857376
  63.1041193  74.2025656  53.4552449  20.5173270  18.9410688  57.9769873
  21.4459436  19.1724826  57.9582226  20.4456536  18.1901885  57.3876869
  29.4084117  56.2747234  62.8840445  29.8841802  56.2822563  62.0534909
  29.9191112  56.8458790  63.4578033  28.5683648  29.5944597  49.0240937
  28.0974881  30.4053260  49.2164677  28.2096021  29.3021776  48.1861847
  53.8319397  29.7564101   9.5560867  54.3974257  29.6212769  10.3164816
  53.1984377  30.4142904   9.8426163  13.9400849  67.6921863  53.2170742
  14.3472514  68.3192700  53.8147479  13.0500397  68.0220813  53.0937057
  29.2647958  41.4342403  11.0602498  29.4843411  42.2647285  11.4825308
  29.0043473  40.8606005  11.7809033  42.4314833  66.7987251  10.2225411
  41.5294075  67.1013165  10.1179898  42.9671478  67.5513649   9.9718803
  45.8013535  14.2088461  18.7082279  45.1794434  13.4958076  18.8532507
  46.6587305  13.7832594  18.7116241  21.7434883  41.0480356  20.6580305
  22.0951939  40.2209473  20.3286958  22.1613836  41.1630964  21.5114689
  61.2931443  59.7149200  48.3223039  61.9283200  59.1490215  47.8835064
  61.7891693  60.5018801  48.5478824  62.8321553  54.2554468  51.9665605
  63.2793951  53.8802570  51.2079829  62.7912402  55.1935357  51.7806869
   4.5455965  58.3993954  61.3128686   5.1508507  58.8467497  61.9042855
   3.8183865  58.1294054  61.8736720  43.6007417  62.6633281  11.5361267
  44.4427336  62.6189941  11.9892412  43.3066821  61.7537111  11.4875895
  69.6568680  46.6961491  49.2537182  68.7963248  46.2822897  49.3201989
  70.2080107  46.0364718  48.8326496  17.5953786   9.2429449  55.8297920
  17.5485532  10.1660301  55.5809021  16.9841211   9.1609527  56.5618288
  37.9066086  54.3368530   5.1063043  38.4341407  54.0602398   4.3570194
  38.5449743  54.6580124   5.7431525  28.4381454  45.0131513  61.6835585
  28.0845802  44.2373086  62.1186396  27.9686086  45.7460119  62.0819071
  44.9211788  48.3636045   3.4503070  45.3313732  48.7984657   4.1978824
  44.7914982  47.4605846   3.7400737  14.7679222  38.6812282  21.7394233
  15.6837630  38.4208035  21.6412067  14.6835721  38.9164472  22.6634288
  36.1362290  41.3743305  13.3530319  35.8420467  41.1341953  14.2316806
  35.7929420  40.6821442  12.7879953  78.6124619  22.0209886  48.5335022
  78.6105974  21.0933210  48.2975727  77.6884301  22.2389461  48.6555415
  28.1400108  22.2504902  57.8138924  27.8216887  22.5728655  58.6570835
  28.4388018  21.3594317  57.9954720  54.0333033  47.4730808  62.3714781
  54.1314698  48.0491358  63.1296041  54.6507836  47.8184027  61.7267290
   7.1125921  38.0508947  12.1230936   7.2710833  37.1748257  11.7715049
   6.2042841  38.0274224  12.4241972  11.2790474  45.5200851  54.7885829
  11.6749606  46.1397803  55.4013329  11.9983610  44.9420232  54.5342821
  61.2549408   4.2772252  41.9836187  61.2823828   4.9000652  41.2572956
  62.1431620   4.2859418  42.3402929  10.8407605  24.2413718  56.2499684
  10.5614126  25.1359898  56.4445323  10.0271666  23.7381488  56.2173617
  38.3567595  60.6168556  35.8663750  38.1889820  59.9440098  36.5261960
  38.5889721  61.3956451  36.3721323  18.4542346  39.4639635   9.6668434
  18.0105293  38.6159539   9.6823043  18.0944169  39.9085903   8.8993353
  26.5345335  39.9180698  21.3074088  26.8957758  40.4805470  20.6223154
  26.0637665  40.5177593  21.8861842  60.1340675  20.0162411   8.0040061
  60.2306366  19.9653590   8.9549625  59.4882822  19.3421304   7.7924299
  65.9900213  43.7583119  40.8154112  66.4062476  43.8941676  39.9642163
  65.0836873  43.5329861  40.6055981  72.4456311  69.0759748  46.3310390
  72.2924948  69.4444627  45.4609829  71.9364977  69.6328730  46.9200068
   7.4545369  71.2440771  56.3788825   8.1064638  70.8621782  55.7911944
   7.5505385  72.1891684  56.2613338  40.3974009   2.5762489  11.9519556
  40.8585072   2.0788686  11.2765086  40.4167366   2.0086986  12.7225029
  27.2135019  10.1177108  30.2208090  27.3429751  10.8163893  30.8621478
  26.3247132  10.2551115  29.8930788  60.7510567  53.3199185  36.5427261
  60.7829428  54.2723471  36.4527541  59.8520351  53.0873698  36.3105350
  70.8547028  30.4817964  57.3047417  70.1978226  30.3584052  57.9899519
  70.5296047  31.2216379  56.7917329  39.0024770  67.9519528  47.6115256
  38.9838696  67.0909447  47.1937352  39.6324206  68.4550208  47.0954603
  43.4417196  14.1077615  57.2562802  43.5296412  14.9343826  57.7308291
  43.3967020  13.4415008  57.9420691  52.7231693  57.3563433  25.0383568
  52.6414156  57.8451777  24.2194629  53.4762716  57.7505350  25.4784489
  31.0699677  37.8371572   1.5575375  31.9885850  37.9561210   1.7988290
  30.7514620  37.1596527   2.1540050  34.7965169  20.0897789   4.0585682
  35.3913927  20.8291936   4.1835538  34.7562242  19.9725735   3.1094259
  70.3551765   4.6569921  48.3168250  69.7039564   4.3719961  48.9578563
  71.1962171   4.5212413  48.7532359  18.7452793  35.6743646   0.7578620
  18.3504581  34.8913717   1.1416191  18.4500766  36.3911986   1.3193196
  78.7176180  55.1948738  32.6660252  78.3404350  54.9116182  33.4989309
  78.8565111  56.1358070  32.7736616  29.0553761  33.3502769   2.1727711
  29.5166731  32.9424596   2.9056573  29.4693303  34.2079711   2.0766653
  31.3400333  69.9917518  39.4867468  31.4623277  69.1762697  39.0006757
  32.2122399  70.2066042  39.8173928  56.3534332  73.6497253  50.8576852
  56.2944031  72.7047581  50.9983390  57.1075797  73.7590069  50.2784163
  74.7756434  73.2941145  61.4151132  75.4644585  72.6387829  61.3042122
  75.1472187  74.0965313  61.0486549   0.8197817  72.3556870  23.6456543
   1.3363871  71.5714449  23.4604078   1.0981402  72.6245946  24.5211178
  32.4845076  16.0645211  22.1461320  32.2542024  16.8418479  21.6372561
  32.2715855  15.3298116  21.5707207  48.5574961  29.3186283  13.8420737
  48.4836674  29.8918200  13.0790329  48.1747246  28.4890962  13.5564244
  34.8538613  28.6942148  12.7145851  34.6055317  28.6102867  13.6351943
  35.7021952  28.2549763  12.6543438  65.7963777  55.2639348  63.8861289
  65.4417444  54.7514481  63.1596142  65.0941348  55.8727962  64.1149830
  60.4308128  53.9165926  12.3360562  59.6347380  54.0448952  12.8518414
  60.5631447  52.9685926  12.3316252   7.7825467   7.3554613  45.8514958
   8.0381052   6.8629123  45.0715500   7.0650165   6.8480111  46.2308019
  36.1070061  68.4532738  13.2884717  36.2590718  69.1349936  12.6339769
  36.6115761  67.7029276  12.9744315  58.7984943  26.5633130  14.6388376
  57.9549694  26.2186527  14.3457425  59.3285179  26.6080546  13.8430309
  74.0061903  53.2509035  47.1008426  73.6692810  52.5255007  47.6266902
  74.3466950  53.8740713  47.7426749  29.0727520   0.9015182  16.5216732
  29.9418569   1.1291876  16.1914396  28.5042930   0.9496911  15.7530594
  22.4023628  25.1641464  31.0283041  23.1774378  24.8617101  31.5016174
  21.8119144  24.4107556  31.0294223  66.5437118  22.4076724  19.5707583
  65.7773653  22.2001863  20.1054502  66.1879400  22.5802660  18.6990523
  75.9664631  48.6449766  22.1650362  76.6625643  49.2589521  21.9311428
  75.2588272  48.8397884  21.5505981  16.1094272  10.4394889  18.7835348
  16.3160384  10.9769273  19.5481944  15.6877506  11.0439801  18.1727874
  67.1962118  46.0892254  59.8951727  66.3141251  45.7969666  59.6655136
  67.6864052  45.2800089  60.0404596  32.7651167  14.9983132  13.5806143
  32.0572686  15.6041217  13.3611107  32.3195124  14.2225397  13.9209723
  13.6564267  21.8981123  17.4670970  13.6612546  22.8015590  17.1508753
  12.9472089  21.8729734  18.1094456  64.7843290  61.6020340  44.2631274
  64.5161224  60.7142443  44.5000368  64.8804331  61.5771812  43.3110887
  28.0186605   3.6198929  12.0901835  27.5386643   3.6569321  11.2628615
  28.6860919   4.3013838  12.0105743  41.4029741   8.6983252  24.0342546
  41.5632248   8.7287569  23.0910540  40.6210613   9.2355180  24.1618061
  12.0049462  35.5878082  51.8930977  12.2060189  36.3459301  52.4417799
  11.0991463  35.7260311  51.6162210  22.3708694  12.1689226  29.7742253
  22.5849168  12.1142532  30.7055837  23.2151096  12.0929099  29.3295794
   1.0913882  48.1020481  58.8788634   1.0368857  47.8142935  57.9675686
   0.9509978  47.3052877  59.3904251  52.0930338  58.2199616  30.3323251
  52.0566631  58.3826202  29.3897491  52.7273917  58.8569778  30.6610065
   8.3421263  54.3297857  63.3640909   7.6413378  54.5581001  63.9748320
   8.9808306  53.8574797  63.8981452  37.1015184  69.6120124   6.1276090
  36.3151281  69.8180907   5.6222874  37.4383180  70.4640930   6.4046580
  16.9945924   2.5526048  61.9074830  16.4854400   2.1229841  61.2201521
  16.8499248   3.4878112  61.7636454  77.3665817  46.9024134  15.4818022
  77.8393010  46.4754534  14.7673261  77.9101962  46.7483139  16.2544394
  15.8594584  28.3125162  22.4109650  15.6030095  28.9381099  23.0885315
  16.5781319  28.7425900  21.9475269  53.8289792  27.6566984  56.5792387
  53.5020639  28.3274318  57.1788001  54.3750900  28.1372167  55.9570682
  73.2327637  57.1040964  11.5767932  73.7950811  57.0335436  10.8053946
  73.3320013  58.0120039  11.8632996  33.2980475  65.1282996  53.5589343
  32.7394423  64.3942136  53.3033627  33.6346468  65.4724974  52.7316159
   7.0381157   8.1146528  34.9360662   7.1792285   9.0322067  34.7028094
   7.3329823   8.0503703  35.8444458  49.6580744  22.9635644   0.1774415
  49.5768213  23.8211441  -0.2399186  49.4600153  23.1262922   1.0996805
  74.2046213  53.6411733  54.1122633  74.7855187  52.8818876  54.0645402
  73.5766650  53.4194798  54.7998339  43.5467386  72.4890900  17.0932794
  43.1205463  71.6346359  17.0261848  44.2752600  72.4426413  16.4741397
  55.8557479  26.3125421  52.9667955  55.3937499  26.4435340  53.7948209
  56.7323463  26.6636182  53.1234807  36.0742021  60.4478168  10.7299840
  36.6009235  60.1396513  11.4674330  35.7980323  59.6481609  10.2821970
  73.0176258  52.7645248  51.5112644  73.3632708  53.2496089  52.2605687
  72.1095038  53.0572433  51.4347034  65.8405590  29.3351340  26.1213326
  66.5775681  29.4252777  26.7254210  65.2390289  30.0365949  26.3710284
   9.4461664  15.3500700  17.7130723   9.5983919  16.2479293  18.0078721
  10.1406702  15.1864827  17.0750022  59.8758571  27.2968770  63.2968592
  59.0825908  26.8964149  62.9410733  60.5603664  27.0739080  62.6660090
  67.2516394  74.1930980  60.6780162  67.7081251  73.5670895  60.1159078
  66.3246107  73.9808220  60.5694470  12.8261368  23.4124614  45.5954355
  12.8550760  22.7981473  46.3289278  12.6928751  24.2676069  46.0043341
  48.9086724  32.2963375   1.7391067  48.3092833  31.5528655   1.8040186
  49.6269393  31.9778979   1.1923700  38.7169997  28.8759471  64.3159263
  39.4274633  28.2353689  64.2822665  38.8374250  29.4087125  63.5298647
   0.3303561  72.4299878  46.2269550   0.7113346  71.8673700  45.5527526
   0.4141030  73.3161277  45.8748513  43.8393612   2.7966554  12.4599373
  44.3515547   1.9981630  12.5876212  43.5004123   3.0055435  13.3304024
  62.2301030  46.3595182  49.5971662  62.5328923  46.4191872  50.5032521
  62.5584674  45.5144769  49.2900616  44.2523003  41.9367743  12.3959243
  45.0852633  42.4081802  12.4092889  43.5908413  42.6153994  12.5307357
  77.4353028  69.4192380  53.0786556  77.7066422  69.7421116  52.2193771
  77.8653097  68.5680789  53.1614262  68.6244822  66.8054837  62.7024840
  68.7086773  65.8523912  62.6749579  68.2367373  66.9870514  63.5585904
  17.5695007   9.4054557  49.5282322  18.1170098   9.1414834  48.7887829
  17.0514600   8.6269380  49.7326237   1.0031542  65.1085156  35.7369882
   0.6309733  64.8974151  36.5932303   0.2447066  65.1821226  35.1577073
  40.8408928  51.8972969   9.8904163  41.1623955  50.9960985   9.8637038
  40.5052853  52.0581055   9.0085196  77.4387455  69.9444837  55.7941031
  77.7745199  69.1839308  56.2684959  77.7223301  69.8073286  54.8902231
  43.5136795  49.6344709   6.9537473  44.2280436  48.9975595   6.9376802
  43.9430380  50.4715443   7.1303707   6.5843264  11.0654075   5.3220761
   6.8369977  11.2452991   6.2276316   7.4079816  11.0866649   4.8348671
  59.4174106  10.9805019  29.9619246  59.5072444  11.0906036  30.9085178
  59.3569310  10.0335986  29.8356080  35.8171678  41.7037582   8.1013733
  35.8206964  41.7845058   7.1475917  36.5433812  42.2558975   8.3911765
  70.1911545   9.5507818  15.1744187  70.1905632   9.8006272  16.0984373
  70.4109335   8.6191636  15.1783466  37.1042598  64.3520516  56.1808663
  36.2572748  63.9940113  55.9150564  37.7323425  63.6598820  55.9743613
  67.0648785  17.6937152  53.6016887  67.5663002  17.7772380  52.7906197
  66.9525488  16.7502405  53.7177521  42.5200923   7.0073511  33.4514171
  42.9204782   6.6312648  32.6675278  43.1148418   6.7683555  34.1623217
  30.1340365  21.1135101   5.8531064  30.5528378  21.6965723   6.4862549
  30.7306480  21.1045408   5.1046371  11.2416570  43.8904382  48.2515675
  11.3460986  44.6914960  47.7381152  10.7512562  44.1648580  49.0264457
  51.1841440  70.1308107   4.6094769  50.8318567  70.6673002   5.3196186
  51.9416285  70.6219721   4.2913535  21.4887404  29.6916056   5.6830084
  20.6901121  29.1898727   5.8463746  21.9714570  29.1711116   5.0408989
  41.3890457  51.6559982   5.6186378  41.1705351  51.7459106   6.5462154
  41.6036987  52.5449324   5.3358775  25.5066507  16.1268522  63.1848208
  24.7806232  16.4899589  63.6920386  25.8246391  15.3942396  63.7124496
  53.5249662  36.2157178   0.2614833  54.1532469  36.0512757  -0.4416907
  53.9990520  35.9940577   1.0629471  75.4871138  10.0356056  53.1995731
  75.9063895  10.8449985  53.4916728  75.0353821   9.7059966  53.9764434
  75.4091120  71.4141840  47.3866826  75.1020575  70.5394238  47.6248961
  74.6219397  71.9583649  47.4079197  52.5576735  56.1054087   6.4987969
  53.2914829  55.4962349   6.5804482  52.7699518  56.8182278   7.1013385
  40.5752563  15.0756335  12.0911717  40.2204609  14.5472348  11.3762295
  40.7224083  15.9375775  11.7017722  65.7213410  32.3812438  54.6272737
  66.1111744  32.3538162  53.7534839  65.8204396  31.4899112  54.9618417
  72.0224905  38.5708436  51.2143963  72.8777886  38.6759711  50.7976824
  71.7817784  37.6607932  51.0409122  30.5509123  66.1343712  35.6147271
  29.8660788  66.2269062  34.9524027  30.5890116  65.1941484  35.7901150
  16.0076985  51.4070446  58.0543816  15.8656773  51.3870985  59.0007764
  15.2310738  51.8439347  57.7047956  12.0208041  12.8506757  29.7817141
  12.4566333  12.5034238  29.0034467  11.5868537  12.0919086  30.1718312
  78.6276396   2.5770570  40.5741817  78.2368024   2.1695615  39.8012477
  78.9861687   1.8447400  41.0755831  72.6326180  66.3676709  45.6552964
  72.8105593  67.2806138  45.8813637  73.1970692  65.8617848  46.2398535
  76.7649364  51.4494896  22.7888894  76.9899845  51.8264151  21.9382954
  76.0114479  51.9600105  23.0852914  15.0524299  38.5682393  59.9414593
  14.5350330  37.8576137  60.3203290  14.9390618  39.2980386  60.5503675
  60.5687428  26.7128086  12.6664197  61.3311386  27.2121954  12.9589891
  60.9050751  26.1477757  11.9708264  49.7572041  63.8910055  28.9904833
  49.8394537  62.9378223  29.0206981  50.6546831  64.2117786  29.0791798
  -0.0874916  70.4517430  39.0109020   0.3953919  69.6633262  39.2588001
   0.4963383  70.9100646  38.4064871  74.4076760  63.1774331  35.6750947
  73.9701589  63.8471700  36.2006980  75.0678332  62.8067495  36.2607723
   4.8657259  63.7812567  10.0732231   5.0432715  63.1255865   9.3988258
   4.0634474  63.4771633  10.4976130  39.7273350  52.1934223  12.3726308
  40.1311731  51.5707731  12.9771554  40.2770853  52.1581841  11.5898407
  45.4655170  39.3295431   2.2093745  45.6230783  40.1058817   2.7466881
  44.5154381  39.2144084   2.2276494  38.1439471  35.4425502   6.2139213
  38.4957600  35.0198293   5.4304880  37.6608729  34.7493052   6.6636801
  27.0253214  63.6917752  34.8533207  27.7592024  63.8514775  34.2599040
  27.4332556  63.5638994  35.7097465  45.6570689   7.8040458  62.0425856
  45.0005834   7.1445466  62.2669103  46.1828391   7.3945905  61.3554603
  69.1029406  37.5220132  36.5938306  68.5729265  37.7883744  35.8425856
  69.9412823  37.2587609  36.2142038  32.1442389  34.1707921   9.4881445
  32.4843836  33.5590720  10.1410854  32.8750730  34.7630763   9.3111950
  39.9678962  40.8729364  58.1475919  40.2446763  40.6918384  59.0458292
  39.8410766  41.8213703  58.1226521   9.2508428  12.8517915  42.0942312
   9.6782057  13.6892511  42.2738319   9.4033115  12.3311092  42.8828197
  64.2475672  31.1161758  61.7574787  64.0123470  30.8393003  60.8719027
  64.5978923  32.0000793  61.6469607   1.0969194  53.5026503   7.7252984
   1.8350348  53.1218195   7.2494978   0.9462103  54.3459892   7.2983313
  73.2065614   1.8270023  12.8216910  73.0557044   2.4561126  12.1162164
  74.0711148   2.0539291  13.1641531  47.6110125  58.4974527  10.3108764
  48.5629416  58.4358788  10.3900385  47.2867346  58.3496475  11.1992633
  62.3881705   4.7182758   3.0320230  62.0791824   5.0740630   2.1988514
  62.5574382   5.4891689   3.5736036   7.3959124  31.4613056   7.6975799
   6.5033305  31.1760640   7.5022167   7.7889991  31.6224742   6.8398279
  22.9909444  65.1595974  10.6027877  23.2163882  65.9863901  11.0291874
  23.1091046  64.4983816  11.2847471  20.7831573  48.7620068   5.6471902
  21.0050511  48.1912756   4.9114850  21.6283703  49.0666437   5.9774083
  19.7163026   6.2122919  47.4238676  18.9297979   5.7431938  47.1453184
  19.4014852   7.0815135  47.6720077  70.3515768  66.2102365  22.4404669
  70.5688810  65.6873655  23.2122278  69.6874428  66.8270159  22.7482748
  39.2760634  42.8299522   5.0556517  39.1742969  42.8203583   6.0073781
  39.6678925  41.9816399   4.8481116  11.6929118  17.2310211  54.3301111
  11.5421526  18.0830480  53.9207715  11.7819755  17.4259044  55.2630204
  35.5539894   2.1391590  23.3015084  35.5124903   2.7907020  24.0015101
  35.4701138   1.2984960  23.7514901  30.7528901  69.6196270  33.2275963
  31.1109829  69.9075890  34.0672851  31.4587474  69.1115475  32.8277850
  65.6072100   4.7391368  64.0747287  66.2710746   4.3769790  64.6615468
  64.9263688   4.0672351  64.0396046  21.5492940  68.9650679  13.4015989
  21.9989443  69.7982836  13.2608891  20.6371522  69.2087746  13.5591960
   8.3525603  15.1182891  58.7595802   7.7582495  15.4276849  58.0759883
   7.9564898  14.3043949  59.0709299  13.4440057  47.5422288  62.0190522
  12.5378029  47.8324510  62.1229452  13.9537017  48.1533529  62.5509926
  46.2397766  26.8082070  20.7080936  46.5038586  27.7197862  20.8326459
  46.7865038  26.4968872  19.9867070  67.8122187  57.2429705  19.4609249
  67.2355461  56.9609451  20.1709509  68.6898613  57.2217226  19.8424029
  18.2166640   4.0698202  18.0498362  18.5106770   3.5031707  17.3366058
  17.2916476   4.2298324  17.8628290  43.5876751  53.7674570  12.5832999
  43.3793402  54.4022989  13.2687235  43.0811882  52.9891968  12.8156984
   6.1786096   5.9232713  59.3180269   6.3685004   6.5791322  58.6471915
   5.2227657   5.8888723  59.3555826  16.2284009  35.1100255  61.3566023
  17.0369355  35.4793502  61.0014966  16.2845866  35.2717639  62.2983640
  79.2394622  19.9980928  42.8312331  78.7930782  20.5795194  43.4467917
  79.5508488  20.5783225  42.1365362  47.8347890  26.2100746  50.8866542
  47.8253572  25.4543449  50.2992719  48.6951320  26.6074277  50.7519132
   1.6269192  51.8309897  64.4596489   1.3966021  52.0173532  63.5494548
   1.1139092  52.4578160  64.9696885  41.4498043  17.2191393  10.8729827
  41.1880589  17.7988100  10.1576483  41.8423700  17.8024399  11.5225101
   9.0936702  58.6824608  38.2822251   9.4832778  58.0960083  38.9306927
   9.4681418  58.3996630  37.4479437  54.8462820  55.3440887  62.4843487
  55.2252984  56.0686463  61.9867611  55.5973363  54.9195105  62.8989331
  69.0374251  22.3724080  41.9854790  68.1418892  22.3475315  42.3225647
  68.9585789  22.7873565  41.1265069   8.1769356  73.3700246  45.2893144
   8.7729868  74.1122288  45.3897422   8.3230528  73.0649513  44.3938762
  75.7177742  15.0358631  51.5394395  76.5252479  14.7851039  51.9881469
  75.3662427  15.7556917  52.0633727  54.8933983  65.1025200  16.0757029
  54.6751881  64.4724417  16.7624474  54.0561056  65.5049896  15.8450770
  56.2430763  32.2102237   0.4429366  56.3560629  31.3157701   0.7645234
  56.7462730  32.7494597   1.0530621  46.5432882  17.1325624  11.0276890
  45.9886742  16.9949114  11.7956018  46.9746542  17.9712963  11.1910307
  21.7954826  59.4798660  36.9401169  21.7507172  59.9893761  37.7492094
  20.8920932  59.4508934  36.6250229  37.1452920   6.8078853  46.1093074
  37.8166454   7.1719839  45.5322867  36.3194863   7.1338512  45.7515031
  30.9506226  50.9820843  18.9226532  31.1678123  51.7183304  18.3508122
  31.3221669  51.2207079  19.7719157  16.0225122  37.1817829  63.4835928
  16.7328326  37.2172643  64.1242284  15.3234260  36.7016794  63.9274528
  20.3449742  16.4968587  44.8801332  20.5718105  15.9782936  44.1082102
  20.7534568  17.3485185  44.7250420  36.1116719  64.8858881  15.1350915
  35.4391170  64.4603777  15.6669211  36.6801834  64.1703415  14.8504543
  68.0158551  26.0383083  58.0446052  67.4003680  26.2402488  58.7493235
  68.4562774  25.2388860  58.3330172  28.8754511  67.2641754  28.9404178
  29.4768953  66.5904617  29.2576146  28.1841683  67.2986412  29.6016073
   7.5234668   4.1181613  57.6851958   6.7091887   3.9028741  57.2304046
   7.2462384   4.3719674  58.5655135  36.7686248  71.0156488   3.6126298
  35.8939743  71.0824203   3.9957231  36.7187095  70.2557945   3.0326587
  52.6533318  67.1024942  15.5895793  51.7664576  67.0724678  15.2307153
  52.7567053  68.0028534  15.8976328  64.2753744  42.7351856   5.7648391
  63.7490606  43.5346985   5.7621711  63.6538267  42.0399952   5.9807640
  55.3785706  63.7711448  60.3268075  55.5364061  64.7146863  60.3591993
  55.3621006  63.5629910  59.3926596  73.0444575  51.8837613  26.0608846
  72.1385718  51.8801064  26.3700610  73.2025385  50.9850198  25.7719069
   9.9688427  30.6300165  40.2558642   9.3807761  30.2022029  39.6334630
  10.3692739  29.9089004  40.7415372  69.5483876  72.7308101  52.9773873
  69.3233109  73.0251020  53.8599759  70.2402544  73.3288259  52.6946658
  19.9007690  45.5486250  11.7339921  20.1496625  46.1493111  11.0315275
  18.9496684  45.6356335  11.7977750  37.0771623  50.6338978   6.8126184
  36.1278272  50.5526924   6.9042695  37.1993399  51.0875463   5.9786481
  47.7473307  39.3654013  11.6251278  46.7978907  39.3289065  11.5091264
  47.9518557  40.3004599  11.6333556  34.1641068  16.3680601   9.4189912
  33.3669019  16.0558736   9.8470515  34.7899795  16.4843583  10.1338279
   3.0044684  59.6680278  22.2031361   3.8460669  59.8375196  22.6264721
   2.8236088  58.7468213  22.3899561  42.6712132  53.7410259   2.8026977
  42.7959490  54.3884134   2.1087468  43.1948662  52.9891443   2.5257626
  18.1168239  17.4584247  52.7533430  17.1873538  17.2958948  52.9142791
  18.2664840  17.1338655  51.8653720  36.5481250  16.6741372  57.9361289
  35.8162801  17.1755315  57.5766343  36.1937635  15.7949306  58.0690026
  28.3529949  44.3013716  15.4425132  29.0310407  44.7901392  15.9089851
  28.7490177  43.4470797  15.2705133  44.8406570  74.0044340  23.2585955
  44.9432914  74.8687647  23.6568785  45.0953405  74.1301585  22.3445058
  67.3527003  62.7007050  51.8984848  67.5613499  62.2055978  52.6906758
  68.2036686  62.8895682  51.5029901  48.7238884  37.1572423   4.7605449
  48.8741016  38.0226922   4.3801981  49.1681767  36.5535831   4.1652006
  60.7115121  17.5458576  44.0559298  61.3073381  17.2495939  44.7440105
  59.8373063  17.3719741  44.4048720  59.4307232  28.2729435   4.1706890
  59.9069262  29.1030288   4.1912359  58.6525106  28.4562278   3.6443606
  70.8358534  10.0365974  55.5677080  70.5344864   9.7669460  56.4352894
  70.5573435  10.9491111  55.4903292  39.9474096  43.2128239  13.3122122
  40.6806517  43.8138103  13.1803000  39.2016721  43.7825584  13.5006571
  53.0075502  69.2222834  25.3870916  53.4301662  70.0741005  25.4967690
  52.1235847  69.4306374  25.0847173   5.6672710  67.4037313  25.8359623
   5.0525397  67.2548199  25.1175189   5.9617430  68.3065701  25.7159758
  42.3882627  49.4294024   9.4841832  42.7373409  49.6691084   8.6257446
  43.1637287  49.2931604  10.0285423  35.8301902  35.4924870   2.2074762
  35.8017778  36.1649656   2.8880632  36.1444378  35.9525657   1.4291403
  57.5143480  60.4161978  16.5971732  58.1440926  61.0190010  16.9924974
  56.8640184  60.2654028  17.2831488  35.3673673  69.0304852  24.7952533
  35.9747720  69.2540693  24.0900588  35.2323890  69.8534775  25.2650309
  47.2024982   6.6043712  44.4080645  46.6992442   6.1121942  43.7594300
  48.1077735   6.3252498  44.2709356  60.1089065  42.5701715  55.0610536
  59.4282214  43.2424642  55.0307172  60.1570861  42.2375013  54.1648155
   8.0757403  70.2706003  23.9413953   8.4094125  71.1551237  23.7913513
   8.1126386  70.1586246  24.8913074  69.8291302   2.4488048   1.5126555
  69.7018147   3.3786047   1.3242549  69.0073872   2.0359163   1.2471507
  41.1933470  54.8810720   5.8905774  40.4740381  54.9127293   6.5213138
  41.1562157  55.7260227   5.4423451  59.4989920  58.0826897  49.8405951
  59.7868872  57.1813613  49.6958416  60.1912403  58.6200112  49.4554871
  17.4973313  60.6709386  61.1193603  18.4387414  60.7246782  60.9547758
  17.2839706  61.4932443  61.5604186  15.5402867  15.9678943  23.3718514
  16.3808267  15.6282909  23.6790919  15.3590838  16.7129047  23.9448738
   3.4470400  66.6098499  24.2091751   2.7589258  65.9585810  24.3454885
   3.8704428  66.3436794  23.3930182  18.6727969  64.5726396  62.8110161
  18.7340181  64.1835309  61.9386187  19.1800944  63.9853574  63.3713534
  17.3201036  63.8337612  25.6424546  16.6176903  63.4638309  26.1772418
  18.1246829  63.5773754  26.0931778  20.1840894   9.7370822   5.3085160
  20.6611173   9.3001945   4.6029621  19.3494336   9.2710693   5.3577000
  71.8232949   8.2341487  18.1769538  72.4408801   8.2683380  18.9074671
  71.6281398   9.1514118  17.9851794  58.8170528  20.1095986  20.0151372
  59.7643661  20.1903558  20.1260900  58.4552431  20.8537984  20.4962730
  19.1520135  29.5525028  43.6706453  19.6854798  29.2945577  42.9189092
  18.4848754  28.8692714  43.7366253  58.2183425  24.4147445  54.0393322
  58.6578147  24.8641254  53.3174211  58.8153426  23.7059976  54.2791480
  65.0603266  52.3983575  53.7156313  65.8045455  51.8877412  54.0344459
  65.4069789  53.2837392  53.6053616  76.9861515  46.2379648  64.1852404
  77.3457487  46.4612581  65.0437643  76.0386665  46.2191202  64.3199593
  13.4477393  30.3131296  58.3380490  12.9126827  29.9460460  57.6343488
  13.6931579  31.1831809  58.0233788  19.3778197  16.6315652  64.7550871
  19.9742620  17.1396161  65.3049718  19.2117088  15.8330537  65.2561015
  49.9125528  67.8312492  23.4889722  50.0469303  68.6681843  23.9336228
  50.4670715  67.2144413  23.9667702  20.9669702  27.0473625  54.3650704
  20.8138721  27.8861238  54.8001271  20.1914613  26.5255309  54.5712536
  15.6291215   1.3508470  12.8772473  14.7576587   1.3336999  13.2728338
  16.0820643   2.0645006  13.3264410   8.4138846  68.7845421  37.6119542
   8.5288662  69.4777012  38.2619858   8.2983768  69.2498779  36.7834878
  40.1390362  68.0530453   9.7914499  40.2696896  68.5138655   8.9627129
  39.8550224  68.7335825  10.4017270  13.8920705   2.9670961  17.1177208
  14.1563622   2.0936162  17.4065268  13.8066642   3.4712655  17.9268897
  76.9843245  71.2652868  61.1987069  77.2963238  71.5095252  62.0700490
  77.3334790  70.3853387  61.0572269  35.4939008  46.0412550   1.3050735
  35.0654411  45.2351665   1.5929559  35.0032735  46.3089228   0.5279828
  53.0232430  46.3942003   2.5592893  53.4458351  47.0610046   3.1006014
  52.9150009  46.8124056   1.7051104  19.5586030  23.8380863  55.4897940
  19.2870061  23.3557989  54.7088533  18.7688939  24.2985393  55.7736432
  12.1744189  58.2709402  59.7170412  11.4996561  57.5942487  59.6620863
  12.9636940  57.8504223  59.3758106  57.8885317  56.5472269   9.4754219
  57.3282146  56.5278196  10.2512431  57.2895861  56.3989782   8.7436324
  56.9194682   0.1514394  16.9089603  56.4956863  -0.4133551  17.5552154
  57.7266844   0.4394204  17.3352230  33.0693221   7.8118849  41.3119507
  32.8645086   7.3112029  40.5222654  33.7782693   7.3221934  41.7288780
  18.7055509  14.4331123  16.0531908  18.9670055  13.6163331  16.4783388
  18.0997150  14.8416902  16.6714626  47.5866079  19.6860504   2.8459004
  47.1803665  19.7985017   1.9865082  47.5124454  18.7486994   3.0250782
  23.7088983  17.3080923  64.9404012  23.0457418  17.4300386  64.2610050
  23.2714097  16.7831136  65.6106497  40.8413601  40.3063345  18.5905957
  41.7442226  40.0881195  18.8217878  40.9232330  40.9574986  17.8938103
  40.2600543   9.1934921  63.6577758  40.8741014   9.7755052  63.2100713
  39.4006078   9.4479324  63.3218525  24.8418920   0.5477430  38.7891847
  23.9247291   0.5442931  38.5152656  25.3366010   0.5459548  37.9697376
  68.4955454  16.8190956   8.6396581  68.9642239  16.0740077   8.2636058
  67.6692152  16.4497948   8.9511532  53.0703640  27.2836351   7.5186265
  52.5202703  27.4782181   8.2774168  53.6847734  28.0162644   7.4740374
  59.2353010  63.4058303  28.1902963  59.3327070  62.5591344  27.7545792
  59.8783803  63.3858723  28.8990146  52.2487640  26.5777802  22.5077438
  52.1944189  27.1079779  23.3028364  52.5621414  25.7251215  22.8094029
  49.8699284  33.9832830   6.3894600  50.1333427  34.0479255   5.4714918
  49.6028328  34.8717380   6.6251266  53.0783463  56.9975424  14.0728176
  52.4848795  57.5526285  14.5786905  52.5644827  56.2142515  13.8762629
  63.7875366  66.1608166  52.4664145  64.1587329  65.4810328  53.0288547
  64.5278120  66.4705700  51.9446116  54.7448349  43.4137678   4.3872014
  55.6644630  43.2665110   4.1662109  54.7494030  44.2163277   4.9088460
  33.4199166  20.4757237  17.3935175  33.4231329  19.6426272  17.8648686
  34.3436360  20.7184672  17.3298645   4.1445908  57.1081335  45.3952270
   3.3580431  57.1477729  45.9392899   4.5957074  57.9349560  45.5657774
  50.5158234  58.0825329  10.7222044  50.9299946  58.6516237  10.0734878
  50.7718229  58.4551382  11.5659225  49.0403175  61.7942953  22.1719337
  48.8740873  60.9101725  22.4989223  48.3688498  62.3341084  22.5890303
  21.6501205   6.1710931  63.7962068  21.8639819   5.7307006  62.9736811
  21.5579621   5.4608394  64.4312519  16.2276046  23.7675811  58.2206082
  16.3831250  23.3496763  59.0676027  15.2916114  23.9679576  58.2206565
  32.3164591  71.6633505  62.2247797  32.8115496  72.4823588  62.2062465
  32.0847926  71.5027684  61.3100254   0.6168486  42.5904274  16.6184664
   1.2785377  43.2572508  16.4347625   0.5192248  42.1160364  15.7928431
  74.7008975   2.2366668  50.6306070  74.0138753   2.8996993  50.5626124
  75.5075129   2.7045251  50.4144734   7.7310579  40.4341604  44.0679484
   8.1719629  40.8099033  44.8299533   8.3699600  39.8250772  43.6977440
  71.5721035  70.3482288  55.7786095  71.9355870  70.2782721  54.8958784
  70.9384394  69.6329493  55.8340871  50.2931929  70.1814413   1.9744974
  49.8559475  71.0320902   2.0125310  50.3580046  69.9043798   2.8884274
  51.8856335  16.9021332   8.0419427  51.8734121  16.0628414   8.5020202
  51.5353298  16.7042804   7.1733963  61.9623907   2.7444227  11.4200592
  62.6078637   2.2986467  11.9685841  61.1678059   2.2182424  11.5095103
  30.2886581  70.0332689  16.1174428  31.2268662  70.1508522  16.2663496
  29.9811101  70.8946991  15.8353388   8.8443249  51.9290686  34.5367718
   9.0985841  52.7255249  35.0028563   7.8992403  51.8629503  34.6734309
  75.8108104  45.7647610   3.0474240  76.0295934  45.0903988   3.6905435
  75.9297625  46.5906382   3.5164729  16.4755297  46.4082479  59.6987629
  16.7618132  46.1708069  60.5807495  17.0063102  47.1718788  59.4721174
  30.4603171  46.7145729  32.7281260  30.4290628  45.7907391  32.9766870
  29.8432255  47.1431780  33.3211899  47.5024548  63.0922556  43.6780834
  47.6303569  62.2387791  44.0921450  48.2951585  63.5838938  43.8929033
  30.9014757  12.2567851  45.3499842  31.8325676  12.0401199  45.3014565
  30.8828072  13.2038505  45.4876614  54.3170135  19.9033357  60.7732308
  53.4387353  19.6047737  60.5371782  54.8624972  19.6572257  60.0261634
   4.1464242  68.1232214  13.9885235   4.2115068  68.1305361  13.0335665
   4.1501489  67.1948719  14.2217398  70.0184116  53.5838270  41.0240889
  69.4075015  53.0867004  41.5680408  70.7068232  52.9567099  40.8026314
  20.1101637  67.9985905  49.3293285  20.8693743  68.2383680  49.8606873
  19.7403634  68.8356304  49.0485287   3.9579800  48.2680082  27.9816937
   3.3493537  48.9950371  28.1129622   4.6409079  48.6266994  27.4149656
  74.0520117  49.9691820  32.2011423  74.4596365  50.1712132  31.3589692
  73.1162784  50.1062584  32.0533419  75.7517138  68.8862085   5.2318424
  76.0876420  69.3360043   4.4565558  76.5353933  68.6003876   5.7012963
  60.7907930  54.4687700  21.4850569  61.3769129  54.8159504  20.8126283
  60.5166176  55.2381086  21.9842362  47.5984867   5.9877975  26.2576914
  47.7456267   5.3943832  26.9941950  46.8862088   5.5830772  25.7626200
  33.2519044  11.7210681   9.4961923  33.7722631  11.4981944  10.2680647
  33.8857777  12.0808990   8.8757467  56.2820485  25.9751564   2.3404593
  56.5036425  25.3969007   3.0703539  56.3956663  26.8583542   2.6915735
   8.2945454  66.7262936  50.6855440   7.5108063  67.1834183  50.3805494
   8.2235211  66.7398167  51.6400099  33.7948206  32.0168072   7.2002453
  34.1037968  32.1169811   6.2998384  34.5912936  31.8783051   7.7127689
  68.9747492  60.4978466   9.1263038  69.7650555  60.2147722   9.5862126
  69.2932490  61.0898113   8.4448576  43.2072051  20.6032474   7.6663375
  43.7782784  21.2662990   7.2784370  43.3630486  19.8170860   7.1429873
  21.0889132  16.8878276  51.4302397  21.1666317  16.1368568  50.8418226
  20.4421581  17.4550636  51.0104990  35.3019166  67.0680428   5.9588081
  36.0013580  66.4147758   5.9427434  35.7564306  67.9028511   6.0716832
  37.6177771   1.1070592  28.2196856  38.5201104   0.7926614  28.1632805
  37.0862205   0.3599937  27.9447818  30.7172227  44.2207766  25.3992939
  30.4888868  44.3866205  24.4846392  31.5083909  43.6838150  25.3550768
   3.2620013  73.3402061  45.6112432   2.9149151  72.4758577  45.3906536
   2.4929562  73.9098597  45.6285000  42.3832889   9.3089778  43.5903168
  41.8756194  10.0702197  43.8713884  42.0784481   9.1331870  42.7001476
  48.9353545  25.8859779  63.1150830  48.0243607  25.9400178  62.8262889
  48.8868822  25.9298326  64.0700485  61.7377003  33.8867481   9.8083442
  61.0249980  34.3713004   9.3918175  61.7787059  33.0602939   9.3271661
  68.2411626  70.4109192  24.9862289  68.0519560  70.8936787  25.7908249
  68.1240443  71.0546112  24.2875338  14.5084810  11.0504484  12.4247158
  14.3825531  10.1327813  12.1833456  14.5375836  11.0446370  13.3814561
  72.3240570  28.3771014   6.0744244  73.2757834  28.4414172   6.1538738
  72.1807370  28.0117917   5.2013600   2.9161707  20.0213957  40.2060890
   3.2865068  19.6202540  40.9923220   3.6724824  20.1893020  39.6439195
  15.9591472  40.7344723   5.2328742  16.3445604  40.3838205   4.4299242
  15.3810728  41.4365625   4.9343157  17.5369501  45.1340532  14.9727285
  17.0455158  44.8026085  15.7243061  17.8962028  45.9696102  15.2710736
   8.1067459  10.1009036  56.6943824   7.3812668   9.4774486  56.7292469
   7.7241366  10.9299184  56.9817477  75.4916299  56.5126228  30.9885430
  74.9303985  55.8046770  30.6722164  76.3742900  56.2560463  30.7215023
  63.8830343  33.6986113  15.3281331  64.3603185  34.5241880  15.2453268
  63.7271551  33.4205031  14.4255865  59.9474454  46.2560070  59.0432423
  60.9043551  46.2745285  59.0286582  59.6985007  47.0757234  59.4702357
   5.6887585  24.3875504  27.0288849   5.7793701  25.1427722  26.4477992
   4.9359101  24.5990419  27.5809002  74.3596790  49.8935413  19.4021308
  74.4622794  48.9436579  19.3436027  73.9269039  50.0362825  20.2438927
  73.0696741  39.4652653  40.5643463  72.2843370  39.8758078  40.2024984
  72.8268728  38.5470128  40.6830692   7.1698964  50.2196121  21.8125606
   7.2725081  51.1449766  22.0348239   6.6728199  50.2234554  20.9945560
  75.3202981  44.3501663   7.8521955  74.4910994  44.4882250   7.3943734
  75.0802619  44.3189049   8.7782824  28.6802578  56.2216759  35.1140380
  28.1863880  55.4656363  35.4314184  29.2722034  55.8611059  34.4538713
   9.2875153  53.6709213  36.6336155  10.0275254  54.2430019  36.4303064
   8.7052011  54.2126846  37.1661878  63.1901446  57.1540451  17.2032666
  63.3239606  56.9159317  16.2858653  63.5543445  58.0361462  17.2773409
  32.3588109  40.4063082  26.7087245  31.4210224  40.5886078  26.6491604
  32.7791405  41.2266541  26.4506817  16.6592813  70.6892300  32.7373886
  15.7937407  70.2824879  32.6969457  16.5726185  71.3710594  33.4035945
  10.0253403  57.5222301  35.9188509  10.2086842  57.9864836  35.1020980
  10.7287562  56.8770361  35.9907126  51.0005713  57.6443166  58.6205095
  50.1440287  57.3152310  58.8930309  50.9474206  57.6887197  57.6658183
  14.3537796  40.8249855  35.4693794  14.3345571  41.5616512  36.0802722
  13.5056365  40.8585453  35.0269341  21.6801302  11.9628341  35.1680708
  21.7387475  11.0396678  34.9219751  22.3318462  12.0677764  35.8612418
  53.2105370  34.9188568  45.9584218  52.6659986  34.3647910  46.5176397
  52.8909816  35.8070423  46.1172884  38.7265325  55.0415134   1.4267467
  39.0536737  54.4630909   2.1156853  39.4818401  55.5777693   1.1855496
   7.3843694  18.9314425  21.6742992   8.3401453  18.9796197  21.6542149
   7.0960599  19.8329759  21.5316558  22.1682741   0.4538352   6.2259132
  22.5473250  -0.0778430   5.5260074  21.9931112  -0.1687567   6.9315559
  42.4758931  26.3350536  52.4141794  42.0426901  27.1382572  52.7030211
  43.3362396  26.6232873  52.1092897   6.3806856  65.8871269   8.8101733
   6.0861170  65.3583241   9.5516753   5.5754304  66.1242867   8.3502263
  32.9808737  12.1059329  29.1017413  33.7272777  12.4502570  29.5922017
  32.5634505  11.4888675  29.7027636  71.8680826  15.3102970   1.7729181
  71.3978294  14.5637619   1.4017327  72.1228901  15.0212288   2.6491284
  57.1851309  21.9019515   1.1607024  56.4272149  21.5303905   1.6120759
  57.9158099  21.7594631   1.7623952  31.5614085  13.1894882   1.2081856
  31.0892619  13.6179740   0.4942471  32.4084802  12.9555805   0.8287289
   9.4182456  46.5734482   8.5835159  10.1679611  45.9817648   8.6473060
   9.5281339  47.1791792   9.3164849  17.6842046  35.4682589  23.6530375
  16.9964910  35.7842875  24.2390466  17.2793329  34.7425079  23.1780648
   7.2511308  31.1946060  51.2647181   6.9781463  31.8739368  50.6480974
   8.2074849  31.2339593  51.2564891  25.4033208  63.5064268  25.1948404
  25.8627081  63.0252647  25.8830833  24.5089555  63.1663418  25.2209401
  57.7954331  40.3875065  58.4757519  58.2707087  40.6689882  57.6940155
  57.5128714  39.4950676  58.2758856   7.3336601  59.9324465  18.8752198
   8.1126988  60.2935123  19.2982602   6.7575938  60.6866407  18.7504232
  31.9998218   4.0784461   1.0203367  31.7437054   3.3207471   0.4944802
  31.2132181   4.3014629   1.5180817  21.5970993  37.2307038   7.1506065
  21.6784143  37.9045844   7.8255159  21.0198975  37.6187730   6.4929801
  70.0899670  65.2089643  14.1652453  70.0313649  65.5181456  15.0692391
  69.4093040  65.6961155  13.7009001  71.8816218  47.9829025   8.0308408
  72.3296169  47.7384377   8.8406372  72.5250981  47.8174210   7.3417932
  20.3895903  45.1570797  37.3776579  20.3340721  44.9573421  36.4431763
  19.6779561  45.7782316  37.5325060  78.6378558  18.0050088  51.6172606
  78.1168230  17.5594856  50.9492248  78.0940922  18.7432052  51.8922406
  13.8892472  56.5563822  17.2105801  14.0937889  55.6242371  17.1363628
  13.8942933  56.8752956  16.3080835  53.8635311  36.0027605   6.8899912
  54.2502197  35.7131678   6.0636467  53.0041459  36.3458258   6.6450495
  16.9637048  32.3547626  25.0118470  16.9836593  31.6039181  25.6051993
  17.4135017  32.0494604  24.2239976  15.5074584  45.4445171  22.3107982
  16.4377046  45.3163576  22.4964046  15.4929125  46.0169220  21.5437412
  72.8095515  23.6261226  48.2767206  72.3464008  24.2596485  47.7286643
  72.4292751  23.7397577  49.1477591  34.7376966  50.4040384  34.2494369
  35.6788254  50.3717279  34.0777898  34.3331003  50.2449560  33.3966589
  76.5189582  53.3981466  14.8562574  75.8848971  52.8248692  15.2870095
  77.2157944  53.5128403  15.5023980  28.0725312  50.5074358  16.7443514
  28.4624267  50.7406473  15.9018409  27.1299481  50.4989958  16.5779269
  44.3597507  65.6297064  28.3763719  44.3898678  66.3230610  29.0355992
  44.6808767  66.0457420  27.5763559  26.6336870  46.4709377  25.3493977
  26.5523553  47.0024204  24.5574713  25.8467221  46.6731167  25.8554053
  52.8015757  64.3973297  44.5483333  52.3332119  63.8647479  45.1911574
  52.6827574  65.2976102  44.8510033  23.8175438   3.9260061  28.9817500
  23.1873710   4.5049102  29.4106793  23.5822772   3.0491454  29.2850661
  72.5999239  61.8543434  34.1568804  72.9277382  60.9553909  34.1313291
  73.2221482  62.3204041  34.7153234  35.5710097   2.8853900  17.9658735
  35.3421338   1.9635684  17.8471363  34.8345537   3.2541187  18.4536242
   4.1848341  58.8101387   6.8322420   4.9068955  58.1907415   6.9380939
   3.4650627  58.4268665   7.3335028  37.4979313   4.7564847  43.7021542
  36.7871518   4.7612150  44.3432474  37.0570214   4.6767433  42.8562975
  79.4637710  46.7202091  62.9011965  79.3952981  47.6279402  62.6052809
  78.6070044  46.5271044  63.2818413  59.7037116  54.6964645  17.0918822
  59.6040407  54.4251347  16.1793709  60.0195101  53.9127541  17.5416625
  17.6687300  44.9670076  19.2243564  17.1929193  45.7180643  19.5789635
  18.5366571  45.0228596  19.6241248  13.9935291  41.5247965  10.8725190
  14.0289044  41.7481279   9.9424088  13.0685163  41.3450480  11.0406649
  66.3300816  40.1046181  50.5283451  67.1687559  39.6774030  50.3541517
  66.5453700  41.0345078  50.6004238   8.3490455  47.8566837   0.3582458
   8.8560188  48.4594107   0.9022430   7.7287507  47.4512291   0.9641116
  72.1068600  35.2975154  28.2189107  72.8525952  35.8873916  28.3291769
  71.9672028  34.9228430  29.0885949  57.3164288  57.2566462  19.3229890
  58.1720558  56.8371058  19.4131064  57.5175134  58.1781292  19.1596830
   9.1602165  69.5043802  45.3963566   9.1967070  68.9854574  46.1998606
   9.5971072  68.9611912  44.7403812  18.5565126  64.5302153  31.3359094
  18.1827092  64.9530125  30.5627704  19.3517089  65.0297880  31.5211701
  16.7434168  43.6852551  17.1733916  15.8073294  43.8774776  17.2283709
  17.1275854  44.1509295  17.9162204  19.8481114   6.1112983  11.5599680
  20.2795006   5.2575977  11.5235317  18.9374347   5.9104640  11.7757511
  23.1185532  50.3809834  31.7066050  23.4428883  49.5619965  31.3320398
  22.6563597  50.1144218  32.5013065  63.3599404  47.0668936  41.9313574
  63.9256957  46.3800573  42.2840738  62.8945342  46.6460943  41.2084723
  67.9980436  70.7238483  18.8309109  67.8110460  71.5994120  19.1695106
  67.9997269  70.1625252  19.6062469  75.1000345  63.5313177  23.5414982
  75.7900593  62.8857708  23.6943483  75.2693358  63.8582134  22.6579213
  12.2179472  24.6966648   9.3166745  12.2170639  25.5303454   9.7870010
  11.9712996  24.0489507   9.9768734  66.0105808   1.5651948  14.4125581
  65.2750762   1.9743068  13.9566064  66.2958653   2.2236688  15.0460076
  17.8760183  47.2445536  51.0758543  18.5658062  47.7202320  50.6130886
  17.0850503  47.7617741  50.9239292  39.0047884  71.8016577  41.8976259
  38.9629149  72.3623705  42.6722717  39.3829584  70.9818125  42.2155428
   3.0964032  43.9970112  16.4667606   3.5249490  44.4704628  15.7537222
   3.3612990  43.0856466  16.3423574   1.1620793  73.3521456  42.3624426
   0.5067334  74.0131492  42.1392327   0.8696732  72.5619930  41.9081455
  22.3670316  34.8254514  38.0729461  22.2041941  35.0330210  38.9930701
  22.7722621  33.9584494  38.0910826  68.5234717  69.2623663   7.9088748
  67.9492084  69.3056059   8.6734557  69.3241492  69.7082376   8.1851804
  42.6712032  13.0573566  37.9702687  42.7889963  14.0071590  37.9552960
  42.7711137  12.7891929  37.0568466  71.0784921  72.8286886  10.1316667
  71.8957767  72.9112291  10.6230581  71.2859032  72.2203779   9.4223219
   8.1392908  18.9380670  43.3684587   7.8595388  19.3537533  44.1840410
   7.3391652  18.5563409  43.0074644  12.6744640  52.9479265   8.9208174
  12.1587706  53.4488773   8.2888854  12.2453487  53.1086540   9.7612089
  74.8193074  34.8236728  53.5385609  73.9443234  34.8440528  53.1509781
  75.4118571  34.7636843  52.7892160  26.3585877  66.9251156  47.6158667
  25.9964180  67.0373583  46.7369652  26.8892312  66.1306715  47.5565958
  63.4735611  49.7869730  31.6257310  64.3979183  49.6867657  31.8532276
  63.4167770  49.4895411  30.7176876  79.6576579  14.3738891  31.3834053
  80.3738077  14.9455692  31.1067348  79.0359862  14.3996097  30.6560164
  55.2378126  31.8245841  65.1140610  54.4973217  32.4236061  65.2093300
  55.0292425  31.3078071  64.3358124  17.2577345  31.4414644  43.6764145
  17.2720754  31.9541359  44.4846201  17.8849971  30.7348943  43.8298178
  17.5817537  30.4587555   3.0280164  18.5101378  30.6003070   3.2132146
  17.5663257  30.1025319   2.1397039  31.0953927  50.7771158  27.0863032
  30.3634048  51.3938475  27.0782971  30.7113695  49.9459600  26.8071222
  10.2257431  72.3658609  36.3031197  10.1387990  73.3158588  36.2245512
   9.8709273  72.0241833  35.4823899  77.4094406  71.5865869  64.4651319
  77.1028129  70.7098073  64.6963641  76.6157237  72.1213597  64.4488755
  54.0079130  34.8262788  64.0450269  53.7963772  34.2609741  63.3021191
  54.9269988  35.0596095  63.9143751  16.7538071  56.9285727  22.7775121
  16.6229320  56.4735842  21.9455910  17.7044797  56.9948721  22.8672767
  12.3621976  50.3148746  28.5265803  11.8383026  49.9323893  27.8226829
  13.1586385  50.6213236  28.0929923  35.9708333  19.5110953   6.9917142
  35.2156353  18.9825034   6.7338455  36.2360787  19.1526639   7.8387111
   3.8956106  40.4702902  50.9705162   4.1418192  40.1264095  50.1118231
   3.3591676  39.7799087  51.3601732  31.8926144  61.8461704  22.4170756
  31.9529033  62.4116802  23.1870103  31.1221695  62.1639299  21.9462490
  73.6184795  14.4126560  54.3658346  74.1507657  13.6539079  54.6050089
  74.1876324  15.1650764  54.5275777  65.2847508  42.2567606  12.5357962
  65.4986337  43.1439972  12.2471809  65.7423106  41.6869593  11.9175780
  24.5990801  67.5138330  23.6278987  24.8780942  68.2774782  23.1226921
  23.6503315  67.4794388  23.5057330  73.9483006   5.6469352  20.3503227
  74.2679532   6.4927490  20.0362229  74.5013745   5.0027377  19.9083447
  33.3625436  69.7461271  41.0490894  33.6961937  69.9922705  41.9118309
  34.1178942  69.8303366  40.4672098  24.5171118  53.7901115  16.1516845
  23.6997080  53.4793043  15.7624781  24.4425440  53.5631418  17.0785904
  78.5973572  59.4272089   8.1227064  78.1048097  58.7951374   8.6462659
  79.1911928  59.8442459   8.7469453  29.0426110   7.0668323   9.5371085
  29.2310406   6.5155799   8.7776059  29.0405653   7.9591853   9.1907817
  21.4544392  73.8040161  21.1236048  20.5889845  73.4553957  20.9098601
  21.7073059  73.3433676  21.9236612   5.7237665  22.4879028  48.7151092
   5.7370989  23.1099178  49.4425398   5.2622740  22.9486562  48.0144208
  17.5281799  42.2162962  34.1292048  18.4419179  41.9624376  34.2590785
  17.1573913  42.2361422  35.0114489  78.5861838  57.4971199  23.6036706
  77.9599095  57.5259018  24.3269849  78.0674461  57.2195768  22.8486109
  50.8847363  18.2702930   1.9420014  51.4842184  18.7901122   2.4773876
  51.1449607  18.4579761   1.0401764  13.4581625  64.6559858   5.6784493
  13.5903382  64.1934824   6.5060049  12.5342512  64.5162249   5.4708719
  14.9109495  73.5937452  52.4755859  14.5870948  74.4281197  52.8149557
  15.8088303  73.5347080  52.8020191  31.1026065  18.6214019  53.1500870
  31.2725846  17.6860858  53.2619637  30.9224622  18.7219764  52.2153872
  64.4978705  70.5465651  18.5670292  64.2962876  71.3471317  19.0514767
  64.0686682  69.8508072  19.0649605  74.2275492  72.0274544  27.3976755
  74.5628217  72.8521919  27.0460582  74.9325690  71.3980961  27.2457433
  67.3301633   1.1232383  40.1381922  67.8672107   1.8637187  40.4201412
  66.4316519   1.3927848  40.3286076  16.4932362   4.2033012  23.8719773
  17.2526709   3.6275871  23.9616609  15.8480565   3.8454492  24.4818234
  19.3031895  52.7215672  35.4206395  19.5344818  53.6012125  35.1223850
  19.0453088  52.8387594  36.3349676  25.3310847  62.1257305  11.4362395
  25.4436636  61.2668562  11.8435383  24.8695087  62.6445675  12.0950162
  62.3939422  71.0078287  26.3916779  63.1325296  71.4972067  26.7539358
  62.6550833  70.8111906  25.4920268   2.3310168  49.0052557  14.8729527
   2.1576659  49.0062094  13.9315808   2.7939510  49.8278189  15.0320756
  72.1513483  75.2256775  55.4150295  72.9788527  75.6774330  55.5805016
  72.2469881  74.3814898  55.8559704  66.0073423  46.4360905  18.9111149
  65.9685707  46.6982508  19.8308980  65.9390831  45.4815388  18.9310515
  25.0152326  70.9634590   3.7095821  24.6054196  71.7820024   3.9893460
  25.7960606  70.8868933   4.2579213  64.3612607  30.8408500  51.7388016
  63.6631485  31.0783578  52.3490995  65.0671323  31.4583589  51.9302767
  68.1312878  10.4612357  51.0672808  68.0141671   9.5457847  50.8133698
  68.9973481  10.4880435  51.4740419  75.0252755  11.4782626   7.8031820
  75.1451142  12.4252517   7.7318352  74.0827163  11.3476379   7.6994902
  48.5831629  10.6901313  55.4133081  48.2807680  10.0113727  56.0166967
  48.5093777  10.2903987  54.5467061  35.7489683   3.2037551  26.0460520
  35.0501604   3.3955676  26.6714358  36.2566192   2.5061757  26.4606714
  35.1977398   2.0325239  11.9853830  35.8539625   2.5519521  11.5208411
  34.6257062   2.6809747  12.3958993   5.9965265  59.9945211  44.4832802
   6.6295362  59.3144178  44.2530870   5.3922045  60.0202370  43.7414122
   2.8059570  44.1572763  59.7027665   3.1187813  43.2692624  59.8754030
   3.2097857  44.6907808  60.3872594  25.3742528  48.4280348   0.9910073
  24.8597813  48.5784960   1.7840482  25.2934337  47.4883270   0.8277731
  48.5679142  24.7159673  53.1330985  49.4195967  24.3734218  52.8619295
  48.3028604  25.2931501  52.4169713  14.2222917  57.7807093  19.8403549
  13.8005161  57.4209547  19.0600228  14.0615177  58.7227821  19.7867346
   6.9922328  71.6204119  18.7603509   7.4218500  72.4212265  19.0609479
   6.6288072  71.2306356  19.5554781  77.6058898  50.3038836   4.5650944
  77.0986945  51.0900068   4.3626198  77.3849349  50.1039839   5.4747367
  40.9965701   3.4556491  34.0556407  40.6026252   4.3166168  33.9150405
  40.3448971   2.9744537  34.5655489  13.8779068  59.4901085  40.9467936
  14.0301704  59.7712040  41.8490267  14.2838693  58.6248827  40.8937407
  25.7998737   3.7818052  50.4704815  26.2578161   4.1260244  51.2373155
  25.3461083   3.0028011  50.7921725  33.0390763  62.9279995  26.7330480
  32.7883697  62.9127121  27.6567054  33.2445788  62.0164394  26.5255308
  71.3428548  33.8250327  21.7496681  71.2034056  34.3699169  22.5241899
  72.0432356  33.2236886  22.0028186  31.9546445  12.6873309  23.1024599
  32.6501121  13.3244140  22.9391098  32.3562445  11.8398864  22.9106569
   9.8387420  62.0978975   7.5887072  10.5111539  62.6969099   7.9131758
   9.9450719  61.3083744   8.1193447  54.7771111  71.7679262  22.5678158
  54.9632684  71.9516182  23.4885931  55.4949966  71.2005186  22.2868872
  10.6867187   1.7213704  62.5566300  10.8939020   0.8058788  62.3690611
  10.0192802   1.6804220  63.2415250  11.8269086  55.2690554  21.8033767
  12.3635554  54.7493887  21.2048888  12.3896456  56.0012484  22.0552707
  20.7356501  54.8929214  20.7889652  21.5721083  54.5374823  21.0893440
  20.3006983  54.1543198  20.3629231  74.9987157   3.6533309  65.1732641
  75.5591591   3.1265308  64.6035118  74.1236361   3.5664226  64.7952208
   5.2904409  60.0935936  26.4635849   4.6407348  60.5567122  26.9923902
   5.9441447  59.7941589  27.0954394  53.6926850  13.4018995  57.0999992
  53.9742453  14.2940284  57.3026329  54.4624605  12.8615428  57.2780144
  48.4219027  69.5748186  38.6887360  48.1474781  68.9233541  39.3341184
  49.0161324  70.1517773  39.1685724  66.8005780  58.1236172  15.6413436
  67.1677068  57.3960114  16.1433816  67.4283055  58.8366032  15.7589746
  74.3523047  59.0736008   7.2066414  73.6229262  59.6934271   7.2139561
  74.9262184  59.3873167   6.5077603  21.1641647   8.0445678  17.7555192
  20.4577144   8.4295661  18.2741117  21.5652557   7.3999030  18.3384097
  26.7957187  54.3427753  14.8961997  27.0216846  55.2106428  15.2308297
  25.9196162  54.1731977  15.2424955  12.0407557  58.6312056  49.2706156
  11.8959415  58.7904835  50.2032948  12.1010542  59.5051813  48.8849163
   1.1960835  70.8843517  55.9175348   1.5921414  71.7035961  56.2145376
   1.0792799  70.3711367  56.7170334  77.3462566  20.1262332  53.1510168
  77.7893313  20.8778383  52.7573102  76.4767392  20.4540445  53.3805972
  64.1606231  18.1030465  55.3264999  64.0408249  18.8634302  55.8954447
  64.9507304  17.6771833  55.6590682  78.8513880  35.0702214  11.1578214
  78.2936424  35.1776314  11.9282854  78.2391534  34.9135017  10.4389060
  48.2823689  46.8313224   1.4471406  49.0554269  47.1353252   0.9715389
  48.6192925  46.5524585   2.2985813  72.5342158  50.4302645  16.4034617
  72.1668282  49.8642254  17.0823276  71.7834488  50.6722593  15.8612251
  31.7595720  64.8098421  13.3738530  32.3738098  64.1095018  13.5939944
  32.2274208  65.3463840  12.7339542  41.7274292  17.1840574  51.6862946
  42.0541020  16.6899301  52.4381953  41.0322829  16.6354753  51.3228899
  50.7334995  61.9112110  35.1899219  51.4672470  61.8851471  35.8040643
  50.4751778  62.8325415  35.1643515  72.0296416  46.7902946  17.7491152
  71.8849352  45.8540249  17.8858185  71.2792453  47.0749760  17.2274899
  63.1670840  44.0300847  48.6596054  63.7112446  43.3958055  48.1929093
  62.5341071  43.4956552  49.1391450  77.1361143  50.5232430  61.5448427
  76.2539190  50.5408144  61.9158602  77.0579049  49.9707317  60.7671261
  20.8361650  61.8439865  39.0534973  21.0357761  62.2880030  38.2293391
  21.3746881  62.2939062  39.7044969  31.1576524  27.3721701  11.1405462
  31.2468997  26.5164810  10.7209438  32.0218888  27.7739101  11.0514874
   2.1842685  70.9468746  44.8686743   2.4722970  71.3022947  44.0278721
   2.7687770  70.2058697  45.0283384  70.5763646  14.3792249  59.0796584
  69.9934264  15.0016548  58.6449253  70.4116352  13.5470058  58.6363691
   7.3047702  18.4583808  28.9201623   6.9976751  18.4987832  28.0144626
   8.1392090  18.9272787  28.9112812  46.8238147   0.8803184  28.9425063
  45.9738179   0.8388622  29.3807030  46.7680414   0.2229888  28.2489371
  40.7547243   7.7359874   8.7251586  41.2658902   8.2838828   9.3207711
  40.7738538   6.8660648   9.1240448   6.5899098  39.6627665  23.6589885
   6.5428412  39.0897131  22.8937244   7.1722513  39.2051911  24.2653990
  49.1480215   7.3255927  24.4708204  48.8853796   8.2412917  24.5643282
  48.4487613   6.8310172  24.8982120  56.1483105   7.7196224  41.3669968
  56.0662611   8.3302219  42.0995712  55.5138166   8.0324943  40.7222033
  30.5190420  46.4478064  27.1099591  30.4194307  45.6397629  26.6065931
  30.3785110  46.1826372  28.0188966  35.3438903   6.1033065  15.3700495
  34.5712145   6.4384658  15.8248818  35.7684822   6.8831832  15.0126207
  20.7178593  51.0472679  20.5837107  20.3125215  51.7160416  20.0317359
  21.3798022  50.6428099  20.0229287  61.9588860  26.6616918  61.6689533
  62.3528458  26.9245578  60.8371305  62.0443584  25.7084276  61.6838056
  67.8982861  15.7175739  24.0293956  68.1593592  15.3148658  23.2012057
  68.2084067  16.6208370  23.9647603  57.7164856  30.8554745  11.5235329
  57.5979916  30.7985616  10.5754018  58.3631245  30.1791215  11.7251194
  35.6127524  64.1916847  10.1351774  35.8223200  63.3611155   9.7080106
  35.8112669  64.0423727  11.0595858  33.8055491  50.1384354  26.5270853
  34.1239858  50.9496689  26.1311960  32.9843450  50.3856468  26.9522238
  14.1813612  70.0981712  16.2427533  13.9278603  69.1756964  16.2745225
  15.1267850  70.0920439  16.3923109  28.6509681  66.8770456  39.6258712
  28.1588101  66.4757967  38.9096236  28.5092759  67.8173685  39.5165372
  11.7634535  65.5623007  50.0952339  11.7672539  65.3225756  49.1685438
  11.6934621  66.5169382  50.0953865  59.0597868  64.2978281  46.8986243
  58.9533520  65.1882452  46.5638727  59.3620801  63.7927217  46.1438268
  50.1990032  69.3108416   8.1679028  50.9977961  69.4090509   8.6860919
  50.2022839  70.0643492   7.5776082  16.8893337  45.2892637   1.7523178
  16.0895777  44.7633553   1.7460296  16.6420543  46.0958242   2.2045814
  23.4854984  57.3613024   7.8935230  24.1915989  57.0591545   7.3222446
  22.6888943  57.0091295   7.4964976  10.7874227  45.8138800  26.0234952
  11.1482358  45.5469656  25.1780367   9.8612475  45.5772543  25.9741068
  14.5896976  55.7945634  54.2141908  15.4781167  55.9331037  54.5424455
  14.0305822  56.2708570  54.8279994  56.8267170  53.3319283  26.8678308
  56.1416093  53.2074213  27.5246072  57.5977579  53.5913467  27.3722410
  37.0912552  67.3200035  16.1387599  36.8914151  67.4257231  17.0688772
  36.5361261  66.5934515  15.8555841  56.5870936   3.1892259   3.2566661
  56.9652946   2.3625524   2.9569867  56.8989261   3.2829149   4.1567856
  32.3082376  68.7237263  18.9152896  32.5616431  68.0606127  19.5573986
  31.3896561  68.5337782  18.7246037  65.2871092  21.4968688  57.0250845
  64.3713339  21.6574771  56.7975092  65.2899440  20.6158550  57.3993063
  47.5538333   6.4311702  10.8611357  46.6566475   6.7021186  10.6665111
  47.4567659   5.6102188  11.3436818  79.8542088  66.1721277  11.8343472
  79.3278227  65.4829836  11.4290929  79.8009085  65.9934139  12.7732050
  74.0604094  47.8214121  12.7677941  73.4626332  47.1956873  13.1768942
  74.8851076  47.3432970  12.6811469  79.3947728  31.5389068  53.8303804
  78.6570437  31.4116676  53.2338905  79.1163428  31.1250789  54.6473598
  15.8469093  71.5345860  23.5203671  16.0656023  70.9990978  22.7577019
  16.4331961  72.2887754  23.4595513  15.1994765  41.6194773  22.2880411
  15.7600093  41.1762142  21.6512132  15.7010412  41.5999985  23.1030774
  56.8749905  55.5034590  21.8905926  56.0297680  55.4588318  21.4435506
  57.0711708  56.4390802  21.9391155   9.0313070  43.8671972  63.5890716
   9.1839783  44.0764429  62.6675853   8.0785196  43.8707162  63.6808081
  69.1492827  16.9849498  16.4438331  68.6260493  17.3285587  17.1679866
  68.6908276  16.1893661  16.1734843  37.0174646  64.0868473   6.4512885
  37.1694589  63.1423473   6.4837933  37.7623844  64.4655228   6.9181180
  33.2093431  43.9338405   5.2583325  33.0747439  44.8674209   5.0954032
  32.3328908  43.5931022   5.4371214  57.1688445  21.7147262  50.6261301
  56.9371851  20.8519657  50.9699392  56.8375261  22.3300655  51.2802076
  56.7475922   6.9579042   7.5919479  56.9527657   7.3388589   6.7381329
  57.5561364   7.0501340   8.0959124  68.6074352  73.4043789  19.6253252
  68.9216137  73.5536194  20.5170941  67.7836657  73.8894892  19.5772755
  41.4415503  47.7568531   3.6692017  41.4055443  48.5939264   4.1320634
  41.7440462  47.9824066   2.7895120  34.3544646   3.7587167  62.6862743
  34.7850938   3.4212734  63.4717196  35.0555761   4.1844655  62.1929067
   2.3121469  18.4342147  56.9669616   2.3924582  17.4963189  56.7933577
   2.5441663  18.5274984  57.8909188  52.8230936  18.5339452  54.6826809
  52.6482527  17.6385976  54.3928200  52.9884915  19.0193654  53.8744467
  38.4657240  62.1173638  46.7907566  37.9125607  62.4920768  46.1053139
  37.8531122  61.8646330  47.4814552  66.5641523  65.5249137  64.9780960
  67.2291518  64.9536175  65.3623177  66.4972377  65.2362007  64.0679320
  63.1776627   6.8803216  65.1593795  63.8052161   7.4843646  65.5562902
  63.0431725   7.2214795  64.2752106   1.2309393  52.9656506  19.3297195
   1.9683963  52.3849392  19.1422021   0.4605950  52.4002647  19.2736733
  65.4140058  56.1307192   4.2161790  65.4655698  56.4160585   3.3039543
  65.5356995  56.9322395   4.7250903   9.7327387  43.2689524  35.2269745
   8.9880043  43.3468723  34.6307087   9.4659209  43.7536573  36.0080647
  67.1024517  53.7544250  21.2527966  66.2589684  54.1710091  21.0760903
  67.3378399  54.0532732  22.1311545  57.4849335  16.2725914  26.1809564
  57.9002300  15.4390478  25.9596729  57.3767034  16.7169404  25.3400826
   5.1044011  45.4346109  36.7413598   5.5442763  46.1140269  37.2523743
   4.7900629  45.8887095  35.9595543  20.4750776  22.2374487  14.5571566
  21.2958145  22.6727939  14.7875869  20.3371954  22.4583173  13.6360502
  62.2007938  10.7616474  41.1771923  61.2477883  10.7168580  41.2546855
  62.3743733  10.5866720  40.2522689   0.4314402  56.7783022  36.5281487
   0.8948343  56.9554710  37.3467517  -0.1772035  56.0722065  36.7454457
  29.1064548  27.3014951  26.7713666  28.2463574  27.6624751  26.9862080
  29.1850924  26.5244174  27.3247170  21.9704723  40.3149319   5.2108723
  22.5265908  40.2714729   5.9887391  21.0811901  40.1988220   5.5454272
  63.9659119  61.8363947  62.1445685  63.5869313  61.1482424  62.6914276
  64.8432160  61.5177530  61.9323528  16.2423527  65.9428167  11.3302708
  16.9833350  65.6783247  10.7850909  15.7831085  65.1254320  11.5231645
  79.4016940  37.7152658   2.9195380  79.5789626  37.6835084   1.9794321
  80.0907039  38.2770538   3.2743487  36.0159904  61.9246882  63.9013090
  36.6267228  62.2462696  63.2381166  36.5708149  61.6959209  64.6470083
  23.9886586  16.0570814  38.5410505  23.9731614  15.7875110  37.6227242
  24.9061553  15.9718896  38.8002258  11.8905632  11.5426399  64.2745030
  11.3856427  11.3675214  63.4803861  11.4059465  11.0973216  64.9695348
  19.4401646  64.9710506  38.7659770  18.9869756  65.7474798  39.0946227
  19.1261906  64.2574448  39.3213302  36.2663937   7.2393835   7.1279573
  36.1993814   6.9595098   8.0408716  36.9558883   7.9033256   7.1309841
  58.6995244  68.8858575  40.9772163  58.7436247  69.2651671  40.0994855
  57.8425980  69.1520995  41.3104158  31.9387722  55.8589363  17.1642494
  32.4494433  56.4382172  17.7298260  32.1466279  56.1475658  16.2755871
  31.6916823  51.5595245  21.3732338  32.0213580  50.9772730  22.0577288
  32.0932436  52.4068451  21.5656495  40.7567406  54.4349480  18.5835457
  40.7517385  54.6996641  19.5034003  40.4584026  53.5254908  18.5944128
  21.4415407  42.0816183  25.4227233  22.1053958  42.4087954  26.0297537
  20.7609987  42.7547312  25.4265046   4.5424172  44.8130560  21.7925119
   5.2113372  44.1586161  21.5912986   4.8680314  45.6192636  21.3922167
  42.9653263  43.9129591  18.8259745  43.0396032  44.4784403  18.0572438
  43.0781698  44.5043421  19.5701301  17.1729724  27.9549123  30.4199606
  16.9033878  27.5023414  31.2191730  18.0341069  27.5896884  30.2167588
  25.8146255  19.3416025  65.2625528  25.4628675  18.5049392  64.9584282
  25.3759353  19.9971582  64.7203096  59.2969847  62.4779862  64.1074837
  59.6268511  62.8918475  63.3099010  59.5950318  61.5703672  64.0472351
  72.2859589  38.3168030  14.5327878  71.4928142  37.7993321  14.6719933
  72.1685121  39.0887833  15.0863957  56.6312410  19.7716428  52.9951566
  57.5295244  19.7531511  53.3252734  56.2968310  20.6289483  53.2586628
   2.4829419  49.5368671  12.1294808   3.3805615  49.3399525  11.8616462
   2.0961742  49.9717426  11.3695288  64.4447866  33.0149412  20.4253960
  64.4002727  32.2580671  21.0096836  63.7010208  33.5599399  20.6823349
  13.8487165   0.6086780  54.0321141  14.5258634   1.2247039  53.7524420
  13.7314002   0.0251414  53.2824784  44.9551298  11.1850025  41.7087275
  45.2633830  11.3758232  40.8228379  44.8976316  10.2301074  41.7418271
  24.1094947  67.1735859   2.4078742  25.0458479  67.3278093   2.2826064
  24.0556860  66.6769409   3.2243785  28.3325132   2.4009801  38.6516219
  28.3160623   2.2564269  39.5977002  29.2514690   2.2891904  38.4081942
   4.0277058  28.2231116   1.0582693   3.5738444  27.7845526   0.3386116
   3.3253688  28.5530925   1.6186865  20.9342837  32.8346419  35.2661848
  21.6960073  33.3845425  35.0828385  20.2803445  33.4400558  35.6155682
  66.3258818  40.9956980  34.3168831  66.5334240  41.8225193  33.8815355
  66.8230072  40.3377438  33.8308883  47.7788464   9.3596792   4.9121663
  47.9006353  10.1776981   5.3940845  48.2121578   9.5098817   4.0719798
  25.5383801  23.5533237  17.7095258  26.0032439  24.3861485  17.6286745
  26.2222767  22.8884792  17.6289141  25.3961515  44.0805006  33.1926394
  25.9128046  43.2894278  33.3459592  25.9343266  44.7898722  33.5439086
  45.2424610  70.8935493  59.7627580  45.1149392  70.4447192  58.9269817
  45.4919315  71.7852515  59.5201397  26.8777657  25.8223605  12.0843244
  26.3896155  25.2733350  11.4707196  27.5036883  26.2958407  11.5363550
  59.8181701  68.2952780  58.2680022  60.3532434  69.0844530  58.1835413
  59.5666266  68.0792207  57.3700732  19.9810946  12.8559005  11.7164660
  20.5955553  12.4501503  11.1048794  20.3609395  12.6943994  12.5801015
  14.5249844  48.7704706  13.5802341  14.0054345  49.0880823  12.8417051
  15.3596675  49.2324686  13.5021520  16.9062185   2.7001557   6.1022359
  16.0490942   3.1230441   6.1545384  17.1257102   2.4906179   7.0100623
  19.3395841  68.0610514  25.3765917  19.1726959  68.1211042  24.4359660
  18.5708475  68.4618902  25.7823062  32.6470995  49.8274422   8.6882287
  32.8663206  50.3067446   9.4872540  31.8547249  49.3391085   8.9116317
  30.1652810  73.1216020  63.5719074  30.0495172  73.7023515  62.8198707
  30.7706332  72.4475259  63.2630312  66.6754484  66.9669003  45.8740514
  66.1659026  66.9341010  46.6836935  67.5764990  67.1097702  46.1637503
  56.8662191  65.2029676  64.3713940  56.1299038  65.0924295  63.7698540
  57.5377417  65.6425065  63.8497677  16.3002825  44.3889427  12.8759897
  16.9021213  44.8185444  13.4838247  15.4465091  44.7752237  13.0711508
  17.7175844  27.1735597  43.5130072  18.1887102  26.9523644  44.3163443
  17.8652251  26.4250493  42.9349375  53.4800020  18.3855534   3.3557925
  53.2803145  18.9598429   4.0950811  53.9101711  18.9559746   2.7187631
  72.6619812  27.6104928  48.8990789  73.5747584  27.8928138  48.9570683
  72.3360165  27.6678325  49.7972387  78.0992349  31.3778163  58.8294369
  77.3473080  31.1239530  58.2942801  77.9531987  30.9427024  59.6694273
  71.5265796  22.8450274  15.8629799  70.7333145  22.4368167  16.2098610
  72.2227648  22.5544119  16.4521325  30.7630038  41.8294382  22.4656653
  30.2744746  42.5785589  22.8068185  30.4123974  41.6957808  21.5850735
  64.5766902  49.7307951  41.6506368  64.0112853  50.2098590  41.0447937
  64.2717123  48.8250393  41.5974599  32.3661327  44.1106081  33.1183577
  32.3138118  44.4559097  34.0095711  32.9525256  44.7138739  32.6618004
   9.6328482  67.3513478  58.5390776   9.9759755  67.8361029  59.2897480
  10.0497946  67.7588648  57.7799242  31.6928978   7.5680263  29.4635344
  31.7492355   8.4237487  29.0383220  32.0151360   6.9519718  28.8056087
  66.2488774  65.3912592  29.7659612  66.5498749  64.8373318  29.0456843
  66.1803249  64.7966242  30.5129123   6.6671938  30.4330850  46.5785599
   6.9117379  31.0875273  47.2328806   7.4787772  30.2544498  46.1035299
  67.4819239  13.4668018  48.5449046  66.9075390  13.5323478  47.7820045
  68.3657928  13.4452630  48.1781047  76.6409143  31.1041690  43.7395793
  77.5594576  31.0635044  43.4733873  76.1524828  30.8645393  42.9520207
  79.2069441  50.4243517  23.3969545  78.3481442  50.8469677  23.4065127
  79.1819244  49.8483086  22.6328993  43.9463472  41.2199306  26.5136194
  43.3673382  41.6561317  27.1386886  43.4922361  40.4064655  26.2938714
  24.6962719  70.8196277  58.4463113  25.5671786  70.4757327  58.6450314
  24.8377598  71.4231247  57.7169245   6.9136190  47.7281857  10.0391102
   6.6563618  48.1102705   9.2000252   7.4899077  48.3827257  10.4337001
  19.7535817  22.8809835  59.7067725  18.9283530  22.9033996  60.1912591
  19.5065086  22.6000072  58.8257283  61.4550856  52.5814390  41.4320469
  60.7715181  51.9585752  41.6790438  61.8559113  52.8388596  42.2622919
  37.5838530  67.5959438  54.6442073  37.0718956  66.8697018  55.0001639
  37.2234655  67.7365393  53.7686592   5.3614180  16.3603641  64.1814212
   4.9261372  15.9350492  64.9202513   6.2662642  16.4766885  64.4711709
  75.4790944  75.3546047  37.8713608  75.7089478  75.0544739  36.9919729
  74.9351284  74.6530390  38.2293248  40.4500695  15.1275398  65.0520401
  40.3478499  16.0693075  65.1893428  40.5535133  15.0333835  64.1051155
  58.9847389  16.2388885  23.4138203  59.6135798  16.2624335  22.6925468
  58.1336442  16.3628674  22.9936981  22.2509789  55.4505157  18.3442676
  21.9259024  55.4342318  19.2444301  22.9316139  54.7778177  18.3232069
  29.8503709  51.4901304   2.8845057  29.1308475  51.4249420   2.2565985
  29.5662022  52.1607065   3.5056391  73.6892081  53.4738761  61.6536244
  74.3367577  54.1530508  61.8423939  73.1085921  53.4783918  62.4146074
  72.1050409  59.1670704  27.0366812  71.5356437  59.9354649  26.9968390
  71.5036640  58.4276724  27.1254015  76.8535567  64.0235824  39.3068701
  76.6329193  63.1321663  39.0368253  76.1094332  64.3034596  39.8399573
  25.7209492  37.9905558  28.2144117  25.0707650  38.6877728  28.3003259
  25.3461885  37.3918581  27.5683880   9.7219674   3.8672878  54.4009489
  10.1548664   3.0878164  54.7491699   8.7912790   3.6435796  54.3988174
  34.1427493  50.7598209  14.9393547  34.4825363  49.9415064  15.3014922
  33.6754060  50.4952717  14.1469932  52.8959465  16.8765867  24.5259428
  52.4019575  16.1640227  24.9314761  52.7481651  16.7662287  23.5866809
  26.1549394  15.8213664  52.3447782  25.5911700  16.2858821  52.9633420
  25.8524339  16.1081172  51.4830965  14.4473231  31.6145587  34.9423862
  14.2960823  32.4174023  35.4411864  13.8115108  31.6531253  34.2279029
  33.8709497  25.0076318  14.4536138  34.5560193  24.4642925  14.0641367
  34.3099952  25.4726124  15.1658368  17.4021649   9.4015962   5.2679175
  16.7230284   9.8512965   4.7651500  17.0297515   8.5402185   5.4565126
  28.9499426  48.4865808  23.4222913  29.3672347  48.6758566  24.2626905
  28.0547285  48.2360315  23.6504316  31.0024166  25.0057340   4.3745780
  30.4292917  25.7690287   4.4462755  30.5072594  24.3836498   3.8416019
  57.0722371  28.9805132   2.9898972  57.0452583  28.8987881   2.0365757
  57.2557721  29.9069315   3.1457705  41.6256424   8.8782264  56.0633081
  41.8708189   8.3175851  56.7993784  42.2903355   9.5669557  56.0550254
  55.1463047  33.2198453  23.7725019  54.6634570  32.7713037  23.0783105
  54.5643726  33.1826138  24.5315814  56.8809700  33.3565521   7.4575567
  57.3658657  34.1677690   7.6093280  56.1448956  33.3997250   8.0679381
  42.3794627  73.8519949  65.1526401  41.4886082  73.7876839  64.8084398
  42.9029966  74.1487211  64.4082629  58.8472875   4.6328355  59.4944173
  57.9539933   4.6551277  59.8375785  59.4033630   4.7280885  60.2676829
   8.0742256  41.2652398  51.5241748   7.9009359  42.0692207  52.0138806
   8.1202523  41.5465738  50.6104117  25.5396485  48.9690161  10.0958717
  24.9083185  48.2870102   9.8666900  25.0915933  49.7893000   9.8894548
  73.9112619  33.9005685  36.9430375  73.9317003  34.1597581  36.0218239
  74.6608129  33.3137751  37.0434380  54.9807501  67.4504328  12.5243711
  54.7869587  67.7316189  11.6301608  54.3208218  66.7835426  12.7140713
  12.8017159  15.0325973  13.6951923  12.3819311  15.8928306  13.6995935
  13.7176283  15.2141292  13.4845173  13.9356677  71.2611867  51.7419690
  14.4798677  70.9231187  52.4531537  14.1050832  72.2032644  51.7377990
   4.4219629  23.7528755  59.9700564   4.1904561  23.1378938  59.2740434
   5.3018491  23.4894277  60.2395567  60.2914746   8.2917125   0.5933975
  60.1856740   8.7970168   1.3994375  61.0407598   8.6946494   0.1547151
  79.1414292  11.8526889  60.0556922  79.2201598  12.8038217  60.1290250
  79.7305067  11.5110256  60.7283622  68.6174901   1.4018829  10.4269016
  68.9560731   1.2439353  11.3081789  67.6834042   1.5669639  10.5552101
  41.3059187  44.8925591   8.5829842  40.8982992  45.2860546   7.8114665
  41.2622547  43.9499283   8.4224409  54.7940207  69.9599695  13.8985455
  53.8747311  70.2186728  13.8336885  54.8115349  69.0567160  13.5822165
  34.2210214  24.7793533  55.6685054  34.8968475  25.3365184  56.0545867
  34.6564595  24.3499566  54.9321335  64.2757650  35.8593322  54.0347320
  63.7214144  35.5340959  54.7440630  64.0280779  35.3312112  53.2758063
   9.1516106   0.5674125  64.4752131   8.7787049  -0.1875113  64.0199505
   8.4450428   1.2130596  64.4869200  41.6159542  12.4366809  64.4678609
  41.2282272  12.0245410  63.6958265  41.2181481  13.3067037  64.5001483
   4.6909425  64.1064167  40.7551098   4.9666053  63.3369970  40.2568722
   3.7756383  64.2369318  40.5072880  39.4031835  66.2488216  59.7440725
  39.4595349  66.6543526  58.8788557  39.0590072  66.9395322  60.3103709
  66.2829597   7.0527847  13.8857365  65.8129127   6.4195545  14.4282305
  65.6231578   7.7066142  13.6546326   8.7278473  59.6996021   5.6993002
   9.0013361  59.1343069   6.4217103   8.4185374  60.4992914   6.1248094
  25.5261612  56.6916656  34.3941712  26.0633183  55.9754562  34.7328973
  24.9222875  56.8964863  35.1080441  45.4383779  71.4196986  53.0290097
  45.6086147  72.2549671  52.5936073  45.5408144  71.6103810  53.9614147
  57.0984117  33.8587427  31.3444304  56.2228886  33.4719419  31.3355541
  56.9785801  34.7131801  31.7589259  65.0225544  68.7783432   7.7227443
  65.2623510  68.3235788   8.5301602  64.0693569  68.7025023   7.6791781
  32.3923834   7.6246459   0.1491693  32.8643800   7.2317321   0.8833835
  32.9841991   8.3001239  -0.1820565  37.1751018   3.5490901   9.8353171
  37.9852350   3.8576372   9.4294667  36.7445894   3.0364711   9.1511291
  24.9021578  37.0539665  23.9211512  25.6906104  37.2899437  23.4323907
  25.2010584  36.9562602  24.8252225  46.8149081  69.6491814  26.1261845
  46.4918891  70.2736568  26.7757392  46.4698854  69.9701977  25.2930331
  53.0616755   7.1291496  48.5192662  53.5633823   6.3874198  48.1811052
  52.5411043   7.4263526  47.7730018  66.9759925   3.8704593  41.3787317
  67.7981313   4.3387658  41.2337971  66.3092525   4.4267375  40.9759378
  52.1760376  21.1676509   7.1376997  51.4519198  21.6196735   7.5707793
  52.4839599  20.5334289   7.7851427  67.0477255   3.7697412  46.3266450
  66.1659582   3.4469940  46.1407560  67.0299407   3.9926149  47.2573656
   9.1519403  34.2494678  14.6777034   9.8695719  33.6971831  14.9878991
   8.3740711  33.8963604  15.1095212  37.9091041  13.5354329  53.9958161
  37.6354377  12.8055192  53.4403270  37.0896785  13.9182283  54.3092423
  72.1485193  44.4371797  62.6489126  72.4427672  43.7098791  62.1005705
  71.1943396  44.3614770  62.6553961   1.4624254  52.9633333  50.1179975
   0.9479778  53.0023672  49.3117398   0.9993570  52.3307420  50.6671983
  71.6450401  18.3034088  51.0003298  70.8405347  18.7003375  50.6664878
  71.4253469  17.3791744  51.1175948  52.7879821   2.3480536  32.1074015
  51.9465691   1.9181539  32.2605163  52.7157363   2.7078821  31.2233573
  45.0005627  60.3852844  12.9467416  45.2081442  60.5650949  13.8636994
  45.2399635  59.4668579  12.8226197   7.4094073   0.7094056  25.3764081
   7.3684136   1.5327985  25.8627987   7.2026126   0.9535797  24.4742727
   6.4668429  46.5973520  12.8657436   6.3588923  47.1022367  12.0597231
   5.8912992  47.0286179  13.4974027   9.2102210   5.9546615  52.4283451
   9.7894113   5.4254629  52.9767233   9.6870153   6.7743064  52.2976678
  13.6174266  44.7209741  62.3090735  13.2626645  45.6054117  62.2187897
  13.3943622  44.2881585  61.4849704  65.3935626  71.3824129   2.2634993
  65.1352051  70.4610300   2.2866897  64.5919600  71.8613052   2.4740435
  41.2090778  71.5057087  35.3855610  42.0048046  72.0086002  35.2119136
  40.9358168  71.1853790  34.5259404   1.4833180   6.6605289  22.4724388
   1.3674228   6.0257633  21.7654181   1.6547648   7.4890334  22.0247650
  69.1460653  26.6947032  63.9312869  68.3480271  27.1914150  64.1119577
  69.8541458  27.2556259  64.2478553  60.0400400  75.0077677  13.9853275
  59.4727421  74.2368460  13.9762104  60.0691462  75.2945280  13.0725539
   7.6070182  30.3934385  56.5311777   7.2996013  31.0877181  55.9483415
   6.8088977  29.9464895  56.8130874  62.9849704   7.2119148  16.0497463
  62.1596225   6.9785316  16.4746737  63.5950501   7.3543842  16.7734420
  67.6432748   7.5310184  53.2683569  67.1799620   6.7851497  53.6494785
  68.4668108   7.5751115  53.7542337  45.6498261   2.3494632  43.8184500
  45.4773887   2.9873426  43.1259108  44.9661727   1.6882236  43.7106705
  35.6811778  19.8869563  39.1425615  34.7283714  19.8557283  39.2286879
  35.9084575  19.0698911  38.6987406  57.5125201   0.6703527   2.8688213
  58.0270727   0.4287441   2.0986967  58.1497343   0.7017858   3.5824043
   5.5354631  21.8337321  26.3394332   5.7425690  22.7199364  26.6360521
   4.5846730  21.8342471  26.2288451   3.1790750  47.7293111  39.5586353
   3.9060871  47.2408296  39.9447256   3.2797520  48.6180211  39.8996621
  74.2567221  23.9007378  14.1107225  73.9021364  24.0020633  14.9940312
  74.8266280  24.6606922  13.9927769  52.9570444   2.2315605  47.2150087
  52.5672801   3.0200584  47.5926208  53.1364305   2.4655874  46.3043594
  19.8714650  50.9391165  25.4368377  19.0117049  50.9117126  25.8567119
  20.0760961  50.0228930  25.2500391  73.5877617  31.0520555  61.1457279
  73.0807181  31.4535524  60.4400813  74.4988354  31.2489845  60.9280169
  10.3294706  67.1190262  14.4535398  10.2646136  67.8778934  15.0333166
  11.2302399  66.8130207  14.5594060   5.4218698  49.9987602  30.3131843
   5.1235288  49.1847849  30.7189822   4.6436352  50.5557013  30.2932143
  47.7671289  63.5228682  40.9541988  47.4505663  63.6669159  41.8459797
  46.9756508  63.5246229  40.4158735   8.6488239  66.9024660  53.3096832
   7.7773564  66.5114595  53.3720737   9.2450111  66.1544229  53.2746321
   2.7017872  52.4910356  58.7768674   2.4075906  53.3565904  58.4931457
   3.5118882  52.6592828  59.2581796   3.2860291  37.4814010   1.7706251
   2.5338399  37.8777051   1.3308673   3.8921964  37.2666717   1.0616226
  65.8703068  64.6259546  11.6893721  65.4952947  64.4598675  12.5542486
  66.7821303  64.8587322  11.8643630  63.7056656  41.0074521  56.1892175
  64.5530112  41.2992431  55.8529228  63.2768663  41.8098546  56.4867359
  56.8837135  46.0955049  59.7767168  57.4768021  45.5758096  59.2341381
  56.4407529  45.4527666  60.3306991   9.7203243  69.5230246  -0.1828269
   9.2904437  68.6682940  -0.1532161   9.2054039  70.0707531   0.4096930
  11.0598914  48.6964609  56.2334561  11.3055055  47.7977754  56.4531547
  11.8562452  49.2059041  56.3835352  48.5466798  16.1335475   7.7998757
  49.1202600  15.6016834   7.2481900  48.4767659  15.6409747   8.6176258
   2.3065202  38.3612634  64.5461125   2.5590102  37.5251724  64.1544012
   3.0877225  38.9086486  64.4665775  40.6097126  57.1246243  11.2093985
  41.4291382  56.6574717  11.0464728  40.4566908  57.6262379  10.4086494
  55.3507431   7.9381282  18.9818490  55.1371248   8.8704879  18.9457417
  54.7570284   7.5817973  19.6427298  77.5563295  48.7516023  59.5082408
  78.2499726  48.5598947  58.8770985  76.9773086  47.9905416  59.4662910
  49.2861135  18.0066211  16.1868179  48.7573703  18.1941421  15.4112542
  48.6561735  17.6945026  16.8364227  61.8299420   6.5103252  31.3042569
  61.0560925   6.2652690  30.7969761  62.5148399   6.6407211  30.6484008
  45.6986380  51.6093969  16.9087231  46.3879251  51.6039896  16.2445831
  44.8841763  51.6581869  16.4082217  30.4282475  27.9509473  38.2544041
  30.9453201  28.2328868  39.0089750  29.6105289  27.6269197  38.6319900
  77.3572870  28.7730289  10.2949679  77.3954070  27.8702402   9.9791324
  76.8958614  28.7148070  11.1315846  18.9886391  42.6124859   1.3704383
  18.0473959  42.4903107   1.4943978  19.0872610  42.7778673   0.4328060
  23.8944912  63.5639858  13.1574869  22.9451704  63.5641956  13.2800388
  24.2350221  64.0255165  13.9238179  44.0755320  38.5826540   5.2341479
  44.6858263  38.1590176   4.6305686  43.2929850  38.7464023   4.7078046
  29.5428753  62.8195667  21.4852881  29.3876219  63.7551689  21.6148114
  28.6850500  62.4145079  21.6129327  10.1288430   1.7206533  59.4191408
  10.7596366   2.1485765  59.9981165   9.3259112   1.6671712  59.9374771
   4.5455353  23.3036662  45.9602636   4.1948907  22.4352075  45.7626205
   3.7781589  23.8757755  45.9677857  77.2457683  41.1250401  21.9701457
  78.1852025  41.2906694  21.8910122  76.9265727  41.8240070  22.5409245
  57.4755550  65.3323525  23.5520369  58.2099223  65.3155417  24.1657597
  56.8530894  64.6971005  23.9059072  74.1267045  36.6626073  55.6649190
  73.6790379  37.4053050  55.2596688  74.5094545  36.1835672  54.9298995
  32.1368861  74.2727804   5.5558157  32.6524901  74.9025345   5.0520372
  32.6513124  73.4660149   5.5288857  20.4697323  39.4476390  26.3078046
  20.5928135  40.0657749  25.5873942  20.3419328  38.6017537  25.8784103
  65.0602475  39.6772933   6.8218136  64.3934790  40.3417444   6.6481525
  65.1956693  39.7156048   7.7686107  78.1864071  49.4105864   2.1901292
  77.4117086  49.6967316   1.7061926  78.0494443  49.7404766   3.0781856
  73.3422926  35.2987838  14.7461236  73.6734161  35.0095177  15.5963671
  72.5466523  35.7890248  14.9531269  77.9758008  18.5598094  22.3709440
  78.3426364  18.8994605  23.1872153  78.0277474  19.2953880  21.7606544
  34.8705769  64.0002203  19.7149897  35.2642965  63.7312746  20.5449796
  34.9922633  63.2470083  19.1369772  31.4841759  73.7012333  33.6491924
  31.1572677  74.5849365  33.8178020  31.0886124  73.1644410  34.3359357
   5.6431592  11.3818574  17.2477067   4.8663032  10.9428298  17.5940895
   5.4844648  12.3119640  17.4087965  32.0787485  51.0113813  65.0992175
  32.7354534  51.7015077  65.0059598  31.2469371  51.4799882  65.1679486
  68.2694093  71.4175272  14.7422469  67.4805382  71.1250639  15.1987338
  68.8042453  71.8235302  15.4244089  37.5987740   5.3136737  36.3122511
  37.9076917   5.1711280  35.4175544  38.3070023   5.7987411  36.7357445
  56.8394481  51.9365598  64.3168322  57.4466606  52.4115755  63.7494814
  56.1951424  52.5932504  64.5811563  76.6516812   1.8336059  63.7027947
  76.5604480   1.1522986  63.0366656  77.0930632   1.3980605  64.4319822
  37.8075106  17.6361949  18.0252516  37.6535876  18.1323249  18.8292408
  37.0631404  17.0372207  17.9672074  11.2968509  35.3734208  63.2069525
  10.8340470  35.9620859  62.6106989  10.8277766  34.5421554  63.1348535
  29.8158402  62.9001183  49.7587341  30.7595957  62.8011674  49.6331709
  29.6695385  62.6604623  50.6738251  63.7857437  66.5246010   4.4546404
  63.8273907  66.2416077   3.5411790  64.7007465  66.5798283   4.7302282
  68.4194215  13.9043052  26.3735747  68.1012805  14.6667964  25.8902168
  69.1223986  14.2468746  26.9255805  65.5902052  67.2513676  10.0169432
  66.1230278  66.4817858  10.2171409  65.1941204  67.4928474  10.8542204
  74.5868237  34.5287998   6.6831434  74.2656501  34.5071704   5.7816929
  75.2799828  35.1888664   6.6746712   2.8763431  51.1743164  17.9456830
   3.6561221  50.7868147  18.3431995   3.2181534  51.7677355  17.2769177
  32.1665287  44.5243979  36.1347580  32.1256137  43.7243986  36.6587472
  31.2975955  44.9153185  36.2262130  34.3486452  72.6684713  32.4451470
  34.6194983  71.8902588  32.9322314  33.4879518  72.8871202  32.8024054
  52.1453269  14.2056091   9.4136912  51.2869461  13.9267261   9.7324932
  52.7377565  14.0434654  10.1478350  34.6195628  22.5329978  24.8985791
  35.0007327  21.8383891  25.4356527  34.7258778  23.3267696  25.4228592
  28.7584972  66.3053179  33.6687708  28.4074831  66.1014318  32.8019071
  28.1752658  66.9833088  34.0099454  62.6197052  32.9216337  12.7149260
  62.1306896  33.0855680  11.9085622  61.9525480  32.6656079  13.3517838
  33.8859940  42.6416779   9.7451323  33.0038905  42.4796295   9.4106752
  34.4650817  42.2363281   9.0997028  62.1013522  63.7494296  52.5538224
  62.7836776  63.2814497  52.0725137  62.5541616  64.1208309  53.3109587
  71.9950469  11.7218925  44.7170764  72.3452075  11.6252281  45.6026691
  71.0498067  11.6115285  44.8198944  53.4583282  11.2410557  11.8674016
  53.8800764  10.3832328  11.9173956  52.5212097  11.0498118  11.9057238
  74.5418389   5.0828845  11.8907845  74.6023591   5.7761962  11.2335980
  73.8613828   4.4971139  11.5590012  73.3625181   3.0115653  40.7469970
  73.2029255   3.6391212  41.4519363  74.0087541   3.4405948  40.1861530
  68.0084896  61.2149447  63.5139143  67.1509600  61.0329193  63.8982855
  68.5244704  60.4297298  63.6967535  28.1127071  51.6428661   0.7270209
  28.3947062  52.2579765   0.0500064  27.1567583  51.6882038   0.7086665
  45.4351425  63.3411598  29.7384214  44.6734047  62.8055811  29.5167351
  45.2488613  64.1954184  29.3488383  52.5647521  65.3995675  35.8860904
  52.2895670  65.4407233  36.8019563  51.8964196  64.8636622  35.4590422
  15.2014339  53.7352800  18.1506467  15.5210698  54.3608999  18.8007736
  15.9903908  53.4338570  17.7001774   3.3940642  11.4541484  34.6546060
   3.5114233  10.7022287  34.0740233   3.1835787  12.1798803  34.0670329
  65.6473804  67.5354857  48.4507590  65.4553676  67.2977013  49.3578535
  64.8001337  67.7904123  48.0854982   4.3497483  14.7873021  58.6352318
   5.1863591  14.9198867  58.1894344   3.7911074  14.3726493  57.9778033
  55.5155468  73.7917775  47.4211257  54.7712016  73.2394070  47.6600152
  55.1332736  74.6559614  47.2685247  26.8248336  26.1882593  43.2190519
  25.9452264  26.5643884  43.2515317  26.6969316  25.3107406  42.8587204
  58.4957661  10.1523544  26.7427522  57.7172567   9.7526695  26.3549286
  58.4768208   9.8743059  27.6584822  47.2343619   5.4795654   3.5646179
  47.7786954   4.9755866   4.1695413  47.8586395   5.8929164   2.9682520
  47.2391129  65.8373260   1.4554806  46.6885185  65.6281042   2.2100031
  46.6287804  66.1746883   0.7998040  59.9175407  12.0908071  59.2537814
  60.7142063  12.6006509  59.1067582  59.5713516  12.4211456  60.0827944
  63.3208084  70.5093903  42.8396064  63.5739732  69.5916361  42.7402812
  62.6638317  70.5026311  43.5357171  10.7940373  51.2982482  46.2044114
  10.5968651  52.0889050  46.7066234  10.4006276  51.4553911  45.3460592
  74.3224049  66.3981485   4.9612215  74.5540810  67.3253202   5.0151670
  74.0996265  66.2601089   4.0405986   2.8280060  48.9533807  37.0830995
   2.6902978  49.6547796  37.7197391   3.1485812  48.2168962  37.6037317
  17.6895301  13.6913635  61.4331522  17.9768102  14.3197919  60.7707461
  17.0272462  14.1623832  61.9388786  34.1726834  72.6282662  50.4573518
  34.7876972  71.9489450  50.1807421  34.5405668  72.9663629  51.2737971
  25.4273057  57.4302673   3.4223196  26.1740470  57.0491076   3.8841930
  25.4937005  58.3696365   3.5938087  50.8470631  61.7912579   1.1644237
  51.6069412  61.2095451   1.1851307  50.9305239  62.2649288   0.3368366
  15.3307550  11.2574006  55.1856804  14.9002998  10.5099298  55.6006866
  15.9910457  10.8662511  54.6136218  23.2177210  12.3869133  13.6397946
  23.1475949  11.6385972  13.0470574  23.9892769  12.8635311  13.3335769
  27.9197454  63.7058115  10.4035354  28.6363101  63.6152506  11.0316777
  27.2565532  63.0852079  10.7056272  55.1207638  61.7654467   9.6699244
  54.8957539  61.8319893   8.7419301  54.2828178  61.8444538  10.1258171
  34.3996017   0.7426621  39.6674448  34.1248576   0.5164124  40.5560165
  34.5996062  -0.0986551  39.2570573
  79.7480837  79.7480837  79.7480837 109.4712190 109.4712190 109.4712190
