
39389  0.0000000e+00
  20.1266241  65.6179762  46.1667299  20.6459832  65.9512138  46.9663048
  19.1625178  65.7912827  46.4128304  20.3839445  66.1969662  45.3801823
  20.4216838  64.2005730  45.8648109  19.8080993  63.9681530  44.9944067
  21.8648267  63.8373613  45.5151176  22.5838590  63.9329767  46.3287258
  21.8723798  62.4336195  44.9263239  21.2457967  62.2989893  44.0446377
  22.9233193  62.3162174  44.6620560  21.5841365  61.7482805  45.7234001
  22.2683716  64.7399521  44.4501019  23.0533147  64.3302155  44.0791845
  19.9510586  63.4170628  47.0736170  20.4810143  63.4739208  48.1461954
  18.9420760  62.5956964  46.8053341  18.6334479  62.5419044  45.8451462
  18.5876846  61.4095545  47.5963926  17.9579055  61.7343950  48.4246206
  17.6299703  60.6352234  46.6844130  16.7104626  61.2073326  46.5607262
  18.0897450  60.6349611  45.6961250  17.3724294  59.1810179  47.1708870
  18.0656040  58.2191515  46.8784952  16.3741291  59.0459299  47.9962683
  16.1372387  58.1009150  48.2625914  15.6772852  59.7507715  48.1904411
  19.7836411  60.5371141  48.2065535  20.7544804  60.2175665  47.5616026
  19.6988165  60.2071953  49.4589090  18.8893533  60.5348539  49.9663639
  20.8158708  59.5705986  50.1067352  21.7183113  60.1731634  50.0036812
  20.5903363  59.4119263  51.5927553  19.6191120  58.9232874  51.6705847
  21.2947083  58.7571192  52.1057701  20.6631422  60.7046938  52.3824263
  21.7045879  61.0243225  52.4188757  20.0218678  61.4809608  51.9649649
  20.3755140  60.5369377  53.8547134  20.0062799  59.4490385  54.3984699
  20.4426813  61.6219234  54.5818329  20.2695990  61.5014124  55.5695724
  20.7526064  62.4803543  54.1492319  21.1384630  58.1103420  49.5480204
  22.2819901  57.8140211  49.1371107  20.1223946  57.3171139  49.2515802
  19.2098868  57.5335217  49.6265602  20.3607059  55.9256458  48.7495422
  21.1955214  55.4746675  49.2860174  19.0263939  55.1179266  48.9900446
  18.1633842  55.7474947  48.7733459  18.8856268  54.2530632  48.3417368
  18.9404440  54.5813322  50.4204559  18.9270699  55.3576565  51.1854649
  17.4816787  53.9325333  50.6029606  16.6555834  54.5124912  50.1914787
  17.3675776  52.9440165  50.1580858  17.3376858  53.7728930  51.6715527
  19.9243271  53.4350395  50.8245373  19.6262646  53.0747890  51.8091536
  20.0590801  52.6580524  50.0720501  20.9044194  53.8739300  51.0113335
  20.8965421  55.9674120  47.3155928  21.7111349  55.1151371  46.8471813
  20.4771113  56.9405794  46.5092039  19.7012734  57.4708128  46.8793774
  21.0231400  57.1625328  45.1415586  21.0150981  56.2403011  44.5605850
  20.1819086  58.2316065  44.3728352  19.1567147  57.8687239  44.2993784
  20.1410794  59.1697454  44.9263000  20.8411503  58.4621859  42.9588127
  21.7877316  58.9598608  43.1695461  21.0458684  57.4856234  42.5200510
  20.0394392  59.3808937  42.0165825  19.1889703  60.0554466  42.5024891
  20.4393220  59.7065973  40.8170700  19.9708343  60.4144764  40.2697802
  21.2535858  59.2908525  40.3878498  22.4658799  57.6024628  45.2474308
  23.3369660  56.9550371  44.6549273  22.7691579  58.6467981  46.0192823
  21.9710612  59.0899992  46.4513826  24.1464257  58.9842701  46.2811661
  24.6608305  59.2748070  45.3651524  24.2084312  60.2272129  47.3273325
  23.8010645  61.1242008  46.8608856  23.5018849  60.0315380  48.1339312
  25.5154204  60.6223774  47.8763294  26.1075664  61.8001890  47.3946524
  25.8004498  62.3132133  46.4952707  27.3574400  62.1649027  47.9728079
  27.8615952  63.0402470  47.5907040  28.0395794  61.4316559  48.9477253
  29.3213820  61.6887045  49.3401575  29.4066310  61.5622091  50.2879620
  27.3187447  60.4053164  49.5804644  27.6886034  60.0088072  50.5144787
  26.1114621  59.9005365  48.9876652  25.5770230  59.0700102  49.4247103
  25.1673794  57.8667402  46.8497038  26.2857866  57.7772474  46.4773893
  24.6641636  56.8836832  47.6103830  23.6702776  56.8967247  47.7895975
  25.4460144  55.7764721  48.0622864  26.2980962  56.2370729  48.5622025
  24.6545386  54.9101400  49.0550613  23.5879159  54.8496675  48.8388109
  25.1199055  53.9248657  49.0828228  24.8048115  55.6183195  50.4778481
  24.7568846  56.7035103  50.3874207  23.5582328  55.2657747  51.2976646
  22.6203847  55.5423641  50.8159590  23.4994602  54.2015171  51.5257025
  23.5486221  55.7982111  52.2487259  26.0999203  55.4191208  51.2750769
  26.2299991  54.3456697  51.4125061  27.0130277  55.8071613  50.8236837
  26.1320281  55.8282423  52.2848749  26.0682583  54.9172258  46.9720316
  27.2030234  54.5192289  47.0543194  25.2936554  54.8125219  45.8645630
  24.4074488  55.2969408  45.8733416  25.7294488  54.0160894  44.6482897
  26.4666057  53.2854080  44.9811697  24.5639992  53.2537365  43.9946938
  24.1104341  52.5597572  44.7023439  23.8182187  53.9937019  43.7042332
  24.9790668  52.4462748  42.7496338  25.5099559  53.0731964  42.0332384
  25.5601096  51.1235380  43.2221746  26.4760065  51.4498091  43.7148952
  24.9390960  50.6289577  43.9690590  25.8663559  50.4664230  42.4082232
  23.7741590  51.9772196  41.9862652  23.0486917  51.4261627  42.5847006
  23.2705379  52.7770567  41.4433861  24.1439104  51.3230658  41.1966562
  26.4110970  54.9342108  43.5598564  27.5409389  54.7488546  43.1974745
  25.7287669  56.1502457  43.3432245  24.9421501  56.4568567  43.8975906
  26.1329532  57.1487522  42.3444080  26.5424299  56.6346455  41.4748526
  24.9416208  58.1219578  41.9797325  24.5571136  58.4406328  42.9485989
  25.3067279  59.0346479  41.5087843  23.9878106  57.3885441  41.0368681
  23.1539893  58.0885601  40.9837866  24.4880223  57.3712397  40.0685787
  23.4831667  55.9494066  41.3673639  24.3100095  55.2409601  41.4177799
  23.0751085  55.8875322  42.3762035  22.3610067  55.5969048  40.4237795
  21.4572406  55.5878305  40.8745861  22.3065805  55.3251791  39.1003752
  23.2568550  55.0251722  38.3083487  24.1861057  55.0144005  38.7039208
  23.0472016  54.9786043  37.3214483  21.1468816  55.5268002  38.4936953
  20.3837824  55.7122087  39.1288376  20.9303713  55.0985861  37.6049495
  27.3125410  58.0390167  42.7414322  27.8086138  58.6837912  41.8191814
  27.7703595  57.9176855  43.9962482  27.2514486  57.3269606  44.6301985
  28.9381361  58.6056995  44.4469309  29.5272017  58.8350201  43.5589457
  28.6262465  59.8386431  45.3292322  28.2954001  59.4580698  46.2955666
  29.9602199  60.6592321  45.4349184  30.5252814  60.1338720  46.2048531
  30.4852295  60.6452322  44.4797897  29.7636461  61.6697454  45.7931376
  27.5582600  60.6650543  44.6498251  27.4732709  61.6205168  45.1674795
  27.7230000  60.8677387  43.5915804  26.5755963  60.2342606  44.8418951
  29.8288035  57.6083040  45.2344608  30.8887029  57.2092485  44.7542000
  29.4108844  57.2349310  46.4678621  28.5281992  57.5946617  46.8018723
  30.3683519  56.5439129  47.4103689  31.3334417  57.0250082  47.5692844
  29.7890639  56.3899326  48.8394594  28.8739371  55.8038902  48.7546635
  30.6775451  55.6813908  49.8157930  30.2504373  55.8184195  50.8092260
  30.5652833  54.6389103  49.5179176  31.7167330  55.9955788  49.9131346
  29.1642475  57.8139830  49.2760754  28.3020520  57.8637362  48.6110544
  28.8897824  57.6762867  50.3219318  29.8026276  58.6971664  49.2525721
  30.7429910  55.1792383  46.8236685  31.9415379  54.9926901  46.7101669
  29.8310709  54.3041754  46.3969135  28.8733745  54.5582342  46.5928173
  30.2286077  52.9764557  45.8856058  30.8768845  52.4678898  46.5991879
  28.9651871  52.0415926  45.8882713  28.5696507  51.9969416  46.9029903
  28.2733870  52.3828459  45.1181650  29.2897153  50.5448961  45.5518913
  28.2935309  50.1292849  45.7035017  29.6364689  50.1903057  44.0846014
  30.6524324  50.5343008  43.8907194  29.7163129  49.1104269  43.9597559
  28.9488745  50.5918264  43.3402252  30.4162478  49.9020290  46.4836740
  30.0711823  50.0873518  47.5008678  30.3737187  48.8240004  46.3282681
  31.4098024  50.2346706  46.1831808  31.0862947  53.0666447  44.6448421
  32.0939374  52.3943472  44.5403194  30.7668471  53.9592552  43.7356663
  30.0239944  54.6340704  43.8492632  31.5980887  54.1631937  42.5500631
  31.7028308  53.3174706  41.8704462  30.8593988  55.2399826  41.6757393
  29.8372364  54.8725128  41.5849113  30.9176946  56.2062311  42.1768045
  31.4506102  55.3580236  40.2380085  32.5133562  55.5729342  40.1262712
  31.2435889  54.3941832  39.7729826  30.7772231  56.5266514  39.4497132
  29.7425747  56.6384649  39.7739100  31.2852097  57.4654055  39.6706247
  30.8347368  56.2975502  37.9649878  31.8451214  56.5549660  37.6472425
  30.6190777  55.2457571  37.7770400  29.7850394  56.9601917  37.2072411
  29.7014594  57.9164314  37.5214362  30.0233173  57.0475531  36.2296414
  28.8702178  56.5331507  37.2362447  33.0271101  54.5934153  42.8693771
  33.9797831  54.0685940  42.3017359  33.1386423  55.6414890  43.6589384
  32.2417831  55.9407425  44.0141821  34.4430137  56.1876822  44.1031599
  34.9762797  56.5271378  43.2151890  34.1041017  57.4430418  44.8907948
  33.5271478  57.1149015  45.7554007  35.3543377  58.2037497  45.3120422
  36.0811734  57.5514507  45.7961082  35.8796859  58.4865570  44.3998289
  35.1628947  59.1583633  45.8021069  33.3748269  58.3560705  44.0777636
  32.4796438  58.0148363  44.1394520  35.2863789  55.1601744  44.8678255
  36.4788008  55.2333021  44.7300148  34.6770954  54.2390680  45.7082224
  33.6878347  54.3299246  45.8904648  35.4049253  53.1286764  46.3466549
  36.3520885  53.5362577  46.7000008  34.5355773  52.5995207  47.5608206
  33.4924841  52.8403330  47.3557186  34.6019864  51.5115595  47.5549793
  34.9639058  53.0911303  48.9769173  36.0420203  53.2515478  48.9831972
  34.3779492  54.4587374  49.3191481  34.6656299  55.2497864  48.6266327
  33.2965660  54.3319035  49.3703461  34.6877909  54.8364496  50.2935362
  34.6248651  52.0611048  50.0551558  35.0133252  52.4165535  51.0095406
  33.5390949  52.0853567  50.1479864  34.8792768  51.0075331  49.9395514
  35.8209705  52.0968151  45.3555012  36.8811393  51.5043068  45.4648399
  34.9595761  51.7322445  44.3224096  34.0686727  52.2067308  44.2868757
  35.1842690  50.6827831  43.3151960  35.5368972  49.7930813  43.8369179
  33.8502121  50.4341316  42.6054049  33.1317949  50.3502512  43.4208441
  33.4807801  51.3190651  42.0872259  33.8816571  49.3508244  41.5617418
  34.3568802  49.4339895  40.2921629  34.8805642  50.2999640  39.9150109
  34.0432763  48.2245255  39.5789623  34.3203330  48.0838680  38.6179447
  33.3817101  47.3594379  40.4607868  33.0069280  46.0669947  40.3274059
  33.1735396  45.5254793  39.4079494  32.2722721  45.4884529  41.3697910
  31.8921995  44.4775677  41.3774538  32.0568538  46.2123442  42.5288725
  31.5567470  45.6780720  43.3231354  32.5646663  47.4880600  42.7027464
  32.4390721  47.9683113  43.6619043  33.2420707  48.1140137  41.6409349
  36.3143730  51.1422205  42.3726654  36.9970798  50.2233791  41.9402266
  36.4469624  52.4512005  42.0536041  35.8277130  53.0389786  42.5931787
  37.5895524  52.9885721  41.2268209  37.6746464  52.3779821  40.3279066
  37.2540855  54.4202137  40.9233570  36.9927788  54.9740458  41.8250704
  38.1567860  54.9219131  40.5747366  36.1256909  54.6515989  39.9053335
  36.4997244  54.6280241  38.8817859  35.3322029  53.9298630  40.0991678
  35.4946899  56.0235929  39.8652172  34.6907711  56.0374594  39.1292667
  35.1592612  56.2421083  40.8790398  36.5684462  57.0021343  39.4360709
  37.3177052  56.9377708  40.2251005  36.9341826  56.6349506  38.4771609
  36.0640669  58.4663057  39.5269585  36.8167496  59.1172504  39.3542218
  35.3743482  58.6597633  38.8149452  35.5894971  58.6683798  40.3953171
  38.9746571  52.7884293  41.8424988  39.9047875  52.7110100  41.1002398
  39.0614438  52.7242470  43.1954765  38.1856585  52.7087164  43.6983252
  40.3102398  52.9003000  43.9431095  40.7873726  53.8613462  43.7511587
  39.9213672  52.8955984  45.4408693  39.2344809  53.7309361  45.5768824
  39.4311500  51.9503307  45.6737947  41.1155558  53.2974768  46.3150358
  42.0005226  52.3937941  46.8112421  42.8020239  53.0848503  47.6429844
  43.7594271  52.7483845  48.0125380  42.4609041  54.3639660  47.5644732
  42.9888201  55.1046515  48.0035496  41.3635111  54.5597649  46.7391634
  40.8233261  55.4679394  46.5159702  41.3626480  51.7313957  43.6571741
  40.9846163  50.6000805  43.3328676  42.6916885  51.9936371  43.7590981
  42.9980183  52.9035234  44.0727377  43.7716389  51.0300303  43.4773970
  43.6019325  50.5706596  42.5036049  45.1263332  51.7999506  43.3748388
  44.8380899  52.6722193  42.7881765  45.5424404  51.9710016  44.3676615
  46.2687778  50.9813070  42.7800465  46.6750813  50.2781010  43.5070372
  45.9103966  50.4170322  41.9190836  47.4160337  51.9049501  42.3983526
  47.3705339  52.9119205  41.7024088  48.6200762  51.5430498  42.7712870
  49.3310595  52.1457958  42.3823118  48.7772894  50.8063459  43.4440851
  43.8033581  49.8179674  44.4964361  44.3928099  48.7374640  44.1626024
  43.2503319  49.9775982  45.6780910  42.8623343  50.8917475  45.8621883
  43.1130695  48.9094019  46.6678762  43.8037491  48.0833435  46.4984894
  43.1177664  49.5414543  48.0869102  42.3196173  50.2472210  48.3170271
  42.9324150  48.7555790  48.8191223  44.4451761  50.1750326  48.5324144
  45.6247902  50.0581312  47.7990294  45.7386637  49.6188259  46.8190050
  46.7912722  50.6085110  48.2770872  47.7038097  50.5559683  47.7018356
  46.8247557  51.3080549  49.4711733  47.7845955  51.7152739  49.7527647
  45.6792736  51.4157248  50.2486753  45.6472111  51.8610477  51.2320662
  44.4858742  50.8884954  49.7602272  43.5588217  51.0257816  50.2970123
  41.8252468  48.0922556  46.4176130  41.5331078  47.2258854  47.2065401
  40.8979177  48.4358358  45.5120802  41.1010933  49.2389393  44.9342871
  39.5594287  47.8912640  45.4680681  39.2095518  47.9958153  46.4950800
  38.7501884  48.8077068  44.5925331  37.6808286  48.5992908  44.6263409
  38.8698816  49.8679590  44.8153305  38.9917088  48.5952902  43.5510683
  39.4531274  46.4478493  45.0471115  38.5386372  45.7555103  45.5075693
  40.3701353  45.9353924  44.2043591  41.0011148  46.6287804  43.8286304
  40.2956295  44.7441626  43.4794188  39.3630028  44.7443771  42.9152298
  41.4871025  44.6867371  42.5542593  41.2454796  43.9445543  41.7934132
  41.5674114  45.6095552  41.9797611  42.7917051  44.3911219  43.2309055
  43.7018585  45.2947044  43.5703039  43.6051369  46.3584805  43.4108543
  44.7218227  44.6532202  44.3325710  45.3383064  45.1531363  44.9571705
  44.6379995  43.3054066  44.2294073  45.3620243  42.2518539  44.7587585
  46.2222147  42.5333929  45.3480005  45.0056410  40.9430885  44.3438768
  45.5515242  40.0936794  44.7271824  43.8683987  40.7333469  43.5685492
  43.4672499  39.7346640  43.4784508  43.0111980  41.8357515  43.2634068
  42.0650768  41.6462231  42.7782965  43.4459162  43.1277275  43.4901333
  40.2017546  43.4343767  44.3296385  39.5571256  42.4968529  43.8159275
  40.5901337  43.3424616  45.6118345  41.6781998  44.0214014  46.2111616
  41.4126635  44.7549486  46.9724083  42.3584700  44.5304775  45.5283880
  42.5158262  43.0085135  46.9930029  43.2045221  43.4490538  47.7139187
  43.1413651  42.3792791  46.3598585  41.3815832  42.1353722  47.5525808
  41.0444689  42.6154757  48.4712553  41.8190861  41.1437368  47.6680851
  40.3097868  42.1513367  46.4474058  40.4061127  41.2215328  45.8867884
  38.9747739  42.2030544  47.2363853  38.4856772  41.1729097  47.7692080
  38.3256912  43.3692932  47.3312664  38.8242245  44.1618872  46.9526386
  36.9888425  43.5541582  47.8874016  36.7281556  42.6370430  48.4156466
  36.9433022  44.6478891  48.9357424  36.8827105  45.6562948  48.5264158
  36.0144877  44.5290375  49.4936705  38.2586670  44.7854567  49.7855186
  39.3041253  45.6941843  49.4088745  39.2511344  46.3212919  48.5311890
  40.4927063  45.7108498  50.1731968  41.3346386  46.1287880  49.6413374
  40.5857515  45.0033283  51.3990784  41.4178181  45.2048683  52.0574474
  39.4787192  44.2209959  51.7980385  39.4803476  43.6549902  52.7178431
  38.3297634  44.0306377  50.9793425  37.5016737  43.3738089  51.2012863
  35.9446812  43.8706446  46.7738295  34.7530031  43.9399385  47.1520090
  36.2467432  43.9613152  45.4730177  37.2082353  43.8054085  45.2059460
  35.3135872  44.0998507  44.3618202  34.6359873  44.9484491  44.4558668
  36.0459733  44.3068790  42.9849386  37.0340133  43.8470888  42.9632711
  35.4829717  43.9189148  42.1360493  36.1620617  45.8027935  42.5779963
  35.1665139  46.1795473  42.3433971  36.4336491  46.4115667  43.4404039
  37.0883393  46.1127901  41.4532137  37.7938724  45.2324772  40.8666182
  37.1954226  47.3742056  41.1231184  37.9502678  47.5917482  40.4883099
  36.5741372  48.1071663  41.4343596  34.3445683  42.8847027  44.2498159
  33.3730054  42.8434658  43.4276819  34.6849895  41.8272448  44.8905945
  35.4816604  41.8349934  45.5113697  34.0065885  40.4998827  44.8945379
  32.9428482  40.7368517  44.8744249  34.4848776  39.6730256  43.6681652
  33.8948512  38.7676835  43.5255957  34.3446255  40.3332376  42.8122711
  35.9350491  39.2007542  43.6755657  36.1661792  38.6825991  44.6062613
  35.9641409  38.4684825  42.8687000  36.9591928  40.3576565  43.4774113
  36.7982435  41.2098408  42.5750828  38.1233287  40.2336168  44.0850878
  38.7653828  40.9772444  43.8508224  38.3332396  39.6096778  44.8510790
  34.3078685  39.7460651  46.2035704  35.1813459  40.1507950  46.9301844
  33.5192037  38.7070203  46.6104460  32.3743367  38.1665945  45.8588934
  32.8087258  37.5415230  45.0787067  31.7932057  38.9992595  45.4625893
  31.5544724  37.3444772  46.8792439  31.0413742  36.5756297  46.3015699
  30.9249425  37.9577494  47.5239801  32.8093648  36.7335606  47.5741386
  33.2736945  35.9407592  46.9876528  32.4197674  36.2922454  48.4915018
  33.7586641  37.8624582  47.8213978  33.4894609  38.5060263  48.6589241
  35.2060747  37.3984003  48.0069304  35.9873128  37.3177028  47.0493507
  35.5608773  37.0545435  49.2582989  34.9513793  37.2783613  50.0319433
  36.7887640  36.3215756  49.6113586  37.6425242  36.9118071  49.2784595
  37.0228076  36.2870264  51.1129665  36.1501861  35.7659173  51.5067625
  38.2375622  35.4674959  51.5159273  38.3412385  35.5553699  52.5974274
  38.0118275  34.4058251  51.4159060  39.1194773  35.7430959  50.9376764
  37.1244407  37.6764941  51.6874170  36.3682652  38.3534074  51.2898016
  37.1661472  37.6162720  52.7749538  38.1089473  38.0524349  51.4090061
  36.8103933  34.9183178  48.9989233  35.8838224  34.1398692  49.2835426
  37.8867126  34.5235467  48.2738590  38.6730313  35.0951338  47.9998302
  37.9780555  33.2273555  47.6528502  36.9479108  32.9113722  47.4883604
  38.4910107  33.2948828  46.2859774  37.9775953  34.0995693  45.7596827
  39.5700788  33.4481525  46.2710476  38.3894563  32.0235419  45.3787756
  37.7304339  31.0088491  45.8311987  38.7463713  32.1030951  44.1541862
  38.5444880  32.1518064  48.6091995  39.5982766  31.5301824  48.4009027
  37.8432393  32.0132422  49.7191286  37.1706867  32.7550387  49.8514748
  38.2655549  31.2202740  50.8100700  39.1564608  31.6903996  51.2264538
  37.1898055  31.3933969  51.8977833  37.2851706  32.3782611  52.3549986
  36.2234807  31.1767125  51.4424038  37.2175002  30.6377864  52.6828861
  38.6006308  29.7146320  50.5246639  39.5881891  29.2580032  51.0618591
  37.8042006  28.9856362  49.7242117  37.0292926  29.4894171  49.3169975
  38.0437636  27.6415396  49.1656256  38.1758189  27.0020103  50.0383615
  36.7692947  27.1737504  48.4037447  36.6207647  27.8218222  47.5400066
  36.9277120  25.6982827  47.9166126  36.9453382  25.1081634  48.8328743
  36.0364079  25.3195286  47.4163914  37.8032064  25.5264235  47.2904491
  35.5384994  27.2491646  49.3586206  35.4012513  28.2664347  49.7252560
  34.6606469  26.9020104  48.8136816  35.7405734  26.6455245  50.2434349
  39.3920445  27.5830245  48.3928680  40.2216959  26.7106318  48.5908985
  39.5975971  28.5690975  47.4677992  38.8965583  29.2934799  47.4052477
  40.8406305  28.6412525  46.7220545  40.8828640  27.6444054  46.2831783
  40.7500172  29.6685123  45.6732988  39.7219777  29.6931958  45.3118801
  41.0655975  30.6728101  45.9559584  41.7130184  29.2345476  44.5573664
  42.7415085  29.3541193  44.8979807  41.4619207  28.2162666  44.2604637
  41.5685701  30.0949287  43.2144737  41.7204952  31.1708117  43.3010483
  42.3106956  29.7640753  42.4879074  40.1588058  29.9286580  42.6129198
  39.4791508  30.0835109  43.4508896  39.9455953  30.6750846  41.8477488
  39.9326348  28.5544205  41.9930077  40.7500935  28.3622289  41.4318228
  39.9000788  27.7888036  42.6509333  39.1345501  28.4648108  41.3805199
  42.0113516  28.9012551  47.5772524  42.9434681  28.1826973  47.4462223
  41.8271685  29.7437406  48.6110735  40.9180832  30.1724076  48.7106371
  42.9085398  30.2253556  49.5578241  43.7740231  30.4779911  48.9452696
  42.4507570  31.5017176  50.2659512  41.4375734  31.3054061  50.6166935
  43.1144714  31.7888403  51.0815239  42.4548817  32.6846862  49.2650509
  41.8531990  32.4240232  48.3943367  41.8230724  33.8550401  50.0338411
  42.5329208  34.3123460  50.7231092  41.6086340  34.6433115  49.3122149
  40.9016991  33.6256194  50.5691338  43.8523340  32.8777170  48.6658001
  44.6124744  33.0196619  49.4340038  44.1832638  32.1433330  47.9314470
  43.7939072  33.8849926  48.2533932  43.3583593  29.1762114  50.6106806
  44.4758654  29.2535543  51.0758066  42.4712515  28.2028103  50.9125376
  41.5983582  28.2579756  50.4074478  42.7281952  27.2098446  52.0070505
  41.8390989  26.5826249  51.9421816  43.9798832  26.4205384  51.6575146
  44.0897942  26.3246989  50.5773163  44.8199940  26.9083190  52.1518755
  43.9492464  25.0024772  52.1868801  43.0034208  24.5556235  52.8561878
  44.9864864  24.3155718  51.8028784  45.0303078  23.3858037  52.1949434
  45.7144117  24.7717166  51.2716961  42.6729488  27.8726149  53.4208059
  43.3049822  27.5213242  54.4326115  41.9096518  28.9643526  53.4847641
  41.2890196  29.2067075  52.7256966  41.7704773  29.6950889  54.8050165
  42.7305984  29.9459124  55.2559662  41.0127401  31.0454011  54.6878147
  40.0074100  30.8559632  54.3116093  40.7341433  31.3844228  55.6855869
  41.6542196  32.2269654  53.9790106  41.9829130  31.8416476  53.0138206
  40.6324196  33.3755302  53.8071346  41.0911798  34.1445398  53.1856346
  39.8272991  32.9001856  53.2468319  40.2880669  33.7454867  54.7728777
  42.8776073  32.8053236  54.6568108  42.6282597  32.8336573  55.7175303
  43.7694216  32.1828866  54.5837831  43.1527758  33.8047934  54.3200016
  41.0713387  28.7156725  55.8062696  40.0436878  28.1555462  55.3894901
  41.5017319  28.4445477  56.9992495  42.7030611  28.9448643  57.5783443
  42.4064398  29.7910905  58.1980371  43.4365034  29.1300917  56.7935801
  43.2089472  27.8495407  58.5174274  43.8916731  28.1937432  59.2942905
  43.7771845  27.1692538  57.8830624  42.0312548  27.1122646  59.0020847
  41.7338085  27.4531674  59.9937534  42.2781038  26.0586357  59.1326141
  41.0108042  27.3886752  57.8878403  40.8532906  26.4513350  57.3542738
  39.6183658  27.6179671  58.5923004  38.8729072  26.6889381  58.9049482
  39.2681003  28.9007521  58.7667322  39.9661946  29.5798612  58.4991789
  38.1743622  29.3282461  59.5982313  37.3573017  28.6099887  59.5302534
  38.7785220  29.4370055  61.0386848  38.0421853  29.7023177  61.7973137
  39.1732550  28.4524894  61.2897158  39.9194145  30.5510569  61.0773039
  40.4075909  30.9974647  59.9975586  40.5187035  30.7583332  62.1219587
  37.5859952  30.6915617  59.2023849  36.8765950  31.3527465  60.0146198
  37.6531982  31.1665511  57.9270124  38.0432820  30.5883813  57.1964979
  37.0140815  32.4455786  57.5351238  37.4065280  33.2358932  58.1750345
  37.2114182  32.6731133  55.9919786  38.2844281  32.6837468  55.8005762
  36.8131638  31.8500996  55.3985643  36.5995502  33.9531159  55.5163383
  36.9330168  35.1427364  56.1192560  37.7877069  35.1283193  56.7793322
  36.3409829  36.3217378  55.6762457  36.5097570  37.2948599  56.1132240
  35.3931260  36.3216758  54.6157742  34.8715544  37.4687839  54.2708874
  34.3213415  37.3400474  53.4948111  35.0012112  35.1421189  53.9732218
  34.2382908  35.2129102  53.2120752  35.6362629  33.9685774  54.5109940
  35.3531027  33.0201387  54.0789127  35.5090928  32.5193405  57.8610182
  35.1437926  33.4004045  58.6206102  34.7719741  31.5058565  57.3977327
  35.2306366  30.7620335  56.8913174  33.3295608  31.5819430  57.6979399
  32.8839731  32.5680161  57.5667524  32.6227450  30.5611062  56.7702866
  32.8719306  29.5252013  57.0003176  31.5581727  30.7113838  56.9497395
  32.7904391  30.9248900  55.3228283  32.3521209  32.2036886  54.9440861
  31.8573260  32.8340149  55.6681490  32.4038815  32.6172996  53.6281586
  31.9987822  33.6062574  53.4723997  32.9506588  31.7974734  52.6201534
  33.0564475  32.1972919  51.3107157  33.6085105  31.6279578  50.7697105
  33.4968495  30.5803370  53.0129910  33.9395952  29.9277997  52.2750378
  33.4809351  30.1468349  54.3770504  33.9277101  29.1964221  54.6290541
  33.0365634  31.2853527  59.1912985  31.8762898  31.3795662  59.6131849
  34.0318727  30.8261895  59.9670076  34.9481201  30.9677768  59.5663309
  33.8350248  30.4445052  61.3743162  32.8403020  30.0391483  61.5595722
  34.8721695  29.4491053  61.9552898  35.8856368  29.6626115  61.6155815
  34.7836614  29.3823791  63.0396366  34.7259784  28.0295062  61.3730335
  34.6175838  28.0945396  60.2903891  35.6133080  27.4204874  61.5457773
  33.5782433  27.1472025  61.7951822  33.5378194  27.0635271  62.8812122
  32.6594973  27.7198720  61.6684675  33.3031797  25.8037639  61.1307144
  32.3891640  25.4335141  61.5950298  33.0608606  26.0121846  60.0886297
  34.5339155  25.0044012  61.2830257  35.3935790  25.4096293  60.9411669
  34.7184014  24.9647737  62.2752428  34.5691490  24.0707088  60.8995247
  33.8934040  31.6629791  62.2860956  32.8425384  31.9752550  62.9445028
  35.0465465  32.3354435  62.1701241  35.6542182  31.9384885  61.4678001
  35.3468347  33.6301994  62.8053427  35.1722741  33.4804487  63.8708067
  36.8208671  33.9676714  62.4337101  36.9410110  33.9886975  61.3505554
  37.1458459  35.3216004  62.9648781  38.2107186  35.4878831  63.1276608
  36.7356515  36.1026144  62.3246765  36.6990280  35.4259777  63.9535952
  37.7427793  32.8280139  62.8848791  37.3772430  31.9093466  62.4260378
  38.7689042  32.9111958  62.5267601  37.8728485  32.6081872  64.3471241
  38.1423998  33.5083628  64.8995066  36.9053149  32.2619963  64.7106266
  38.5694647  31.8372130  64.6764040  34.3632841  34.6933270  62.3353910
  33.7902379  35.4248047  63.1317425  34.0815568  34.8078465  61.0172224
  34.4768858  34.1493559  60.3613186  33.1514406  35.8123851  60.4260015
  33.0844259  36.6280675  61.1459160  33.7586761  36.4577174  59.1083384
  33.6458397  35.7713747  58.2691097  32.8928423  37.6277018  58.7187672
  31.8734503  37.3411918  58.4602070  32.8442240  38.2473016  59.6142197
  33.3146238  38.2431650  57.9241610  35.2713823  36.8986487  59.3343496
  35.9925938  36.1067867  59.5366049  35.5414271  37.3673129  58.3880281
  35.3384018  38.0423927  60.3608704  36.3755655  38.2852077  60.5920219
  34.8824215  38.9832306  60.0526333  34.9569249  37.6694798  61.3114023
  31.7698836  35.2507663  60.2516222  31.4243817  34.4242072  59.3521214
  30.8135676  35.6810641  61.1373663  31.0140944  36.4338398  61.7801905
  29.3642068  35.3393412  60.9773111  29.3439698  34.2522120  60.9008884
  28.6528921  35.8379316  62.2303629  29.0016437  35.2981734  63.1107807
  28.8141823  36.9106436  62.3370171  27.1270585  35.7052231  62.1512651
  26.7777133  36.1117601  61.2021685  26.8749809  34.6478581  62.0704031
  26.4372921  36.1664963  63.4105730  27.1330929  35.9578228  64.2232323
  26.2840891  37.2455740  63.3956814  25.1652622  35.3366947  63.7073231
  25.2960014  34.2617941  63.5824442  24.9177384  35.6020093  64.7351599
  24.0989304  35.8924532  62.9105282  24.3022704  35.6331801  61.9557905
  23.2136798  35.4986882  63.1958008  24.0674806  36.8966985  63.0134678
  28.8874149  35.8423424  59.6204090  28.2308841  35.0739098  58.8814068
  29.1467142  37.1276903  59.2982388  29.7442222  37.6483870  59.9243021
  28.5908246  37.9437995  58.1503487  27.9579401  37.2313094  57.6212788
  27.6442814  39.0305734  58.6365366  28.1955194  39.8401642  59.1148663
  26.8336511  39.5803833  57.4824810  26.3293767  40.5007076  57.7771235
  27.5926113  39.9917912  56.8170261  26.3027906  38.7481618  57.0202065
  26.7650056  38.4599090  59.6048594  27.1369076  38.6177945  60.4757023
  29.7330809  38.4815240  57.2312975  30.0035810  39.7078228  57.2191000
  30.1721621  37.7099872  56.2368393  30.0048757  36.2808871  56.1605835
  29.0142560  36.1587167  55.7225800  30.0299048  35.8804798  57.1740723
  31.1687756  35.7870412  55.2761269  30.8911371  34.8063111  54.8898792
  32.0418978  35.7766366  55.9285450  31.4229226  36.9937634  54.3256044
  30.8519125  36.9591570  53.3977842  32.4935246  37.0587134  54.1314411
  31.0221267  38.1843829  55.1897717  31.9509840  38.5938311  55.5868578
  30.3900552  39.3060279  54.3221521  29.2664909  39.2636681  53.8709927
  31.1360192  40.3809547  53.9423752  32.1235824  40.4085302  54.1522789
  30.6008816  41.4432192  53.0304384  29.7956896  40.9822798  52.4583387
  29.8709130  42.5339651  53.8790751  29.2116022  42.0406055  54.5932245
  30.6697226  43.0391216  54.4220591  29.1197634  43.5990286  53.0068779
  28.6905003  44.3849850  53.6282539  29.8887634  44.0995741  52.4184895
  27.7758694  42.9053307  51.9730043  26.5682340  42.4656677  53.3285522
  27.0404887  41.7385960  53.9891911  26.1533117  43.1912088  54.0282154
  25.7187581  41.9132996  52.9268312  31.6317749  42.1824837  52.0963478
  32.8185296  42.2890806  52.5015163  31.2489390  42.4362326  50.8809471
  30.3364182  42.0618916  50.6634951  32.1115637  42.9032421  49.7502422
  33.0715799  43.3466291  50.0145864  32.5513029  41.6652632  48.8747978
  33.3361101  42.0676327  48.2342625  32.9132843  40.8451653  49.4948816
  31.4504099  41.1474562  47.9341459  30.5572820  40.5121660  48.4734058
  31.4423919  41.5888977  46.7573595  31.3616538  43.9967442  48.8367224
  30.1462173  43.9648199  48.6807919  32.1696758  44.8372650  48.1620216
  33.1738114  44.7292757  48.1744289  31.6396570  45.8335018  47.1939564
  31.0113072  46.6053247  47.6384449  32.8218532  46.4325476  46.4455557
  33.3432031  45.6596088  45.8808708  32.3355651  47.0016193  45.6532288
  33.9656878  47.1254110  47.2052908  33.5049295  47.6797676  48.0229044
  34.6192527  46.3822126  47.6620293  35.0992370  48.1457758  46.1573553
  36.0200810  48.9907074  47.4988747  36.8966675  49.5228100  47.1293259
  35.3229094  49.6255064  48.0457687  36.2000513  48.2127810  48.2408571
  30.7460475  45.1714468  46.1074495  29.7538781  45.8663511  45.8569002
  31.0564423  44.0396118  45.5249119  31.8533611  43.4832382  45.7996464
  30.0328708  43.5342169  44.5182037  30.0009489  44.0916634  43.5820723
  30.4186916  42.5464249  44.2661905  28.5903931  43.2963705  45.1343298
  27.6285839  43.5688162  44.4649076  28.5812473  42.7044201  46.3681412
  29.4954181  42.3934555  46.6642666  27.3425508  42.5212622  47.1981955
  26.5059352  41.9948006  46.7388296  27.5293541  41.7175293  48.5316849
  28.3418250  42.1583271  49.1093493  26.2421155  41.5543222  49.3818665
  26.4779925  40.8341408  50.1653194  26.0006499  42.5354195  49.7908306
  25.3955841  41.1540699  48.8239384  27.9694080  40.5062103  48.1001854
  28.9059806  40.4641676  48.3067322  26.6748452  43.8821125  47.4725580
  25.4943919  43.9906359  47.1799421  27.4132609  44.9289799  47.8703976
  28.3698368  44.6651745  48.0587339  26.7983365  46.2882853  48.1264114
  25.9100103  46.1920071  48.7506771  27.8423262  47.2231770  48.7866879
  28.7670755  47.2623491  48.2110023  27.2774911  48.6351538  48.9383507
  26.2581658  48.5895824  49.3217611  27.7801633  49.2403460  49.6927834
  27.3141193  49.1944408  48.0034924  28.1456661  46.6647577  50.2425623
  27.3893905  46.9782257  50.9622049  27.9866171  45.5864620  50.2519321
  29.4744349  47.0129395  50.8974934  30.2156615  46.3547087  50.4442644
  29.7126341  48.0487871  50.6558657  29.4426394  46.8424320  51.9736052
  26.1681795  46.8692446  46.8532944  24.9844718  47.3063469  46.8047523
  26.8725395  46.6656351  45.6997633  27.7860713  46.2431574  45.6156254
  26.4253950  47.0970821  44.3695974  26.2311053  48.1669140  44.4458103
  27.5771737  46.8598938  43.3850908  28.5345650  47.2288179  43.7530613
  27.7447295  45.7830667  43.3634138  27.2249174  47.3476505  41.9656277
  26.3622022  46.7588425  41.6539717  26.8147540  48.3465147  41.8168545
  28.2296729  47.0567131  40.8774137  29.2404532  47.3603916  41.1498260
  28.3473492  45.9831667  40.7299423  27.9471040  47.7382231  39.5538068
  27.6748419  48.7847757  39.6905327  28.8694644  47.7048206  38.9739513
  26.9532180  47.0073414  38.7634325  26.0552645  46.9531965  39.2226148
  26.8742824  47.3833418  37.8293586  27.3032498  46.0726738  38.6085939
  25.0858045  46.3830042  43.9739084  24.0387654  47.1000814  43.7245893
  25.0666785  45.0518990  44.1114092  25.8895659  44.5508528  44.4145679
  23.8279963  44.2874002  43.8662148  23.4809518  44.4775152  42.8505802
  23.9558315  42.8034973  44.0369368  24.9207425  42.4958181  43.6339712
  24.0401864  42.5036049  45.0814676  22.8847718  41.9512272  43.3065510
  21.9215989  42.2026300  43.7506199  22.7998567  42.2313452  42.2565842
  22.9603624  40.4038429  43.4884357  22.1819329  39.8895478  42.9248333
  23.9061737  39.9845433  43.1453133  22.7575254  40.0328732  44.9912643
  23.6863542  40.2651834  45.5122375  21.9675636  40.6304598  45.4461765
  22.4561024  38.5953951  45.0838566  21.8340397  38.2586884  44.3629026
  23.2632232  37.9907298  45.0287437  22.0690179  38.4748816  46.0089207
  22.6861191  44.6991730  44.7904634  21.5929985  44.9920177  44.3181181
  22.9747605  44.8384428  46.1148834  23.8974667  44.6632051  46.4863729
  21.9410896  45.3203821  47.0999718  21.0525966  44.6930218  47.1713734
  22.6355743  45.3120661  48.4720516  23.6389184  45.7260180  48.3718252
  22.0312071  45.8771133  49.1816711  22.8137183  43.9531565  49.1042423
  21.8097925  43.5287666  49.1156387  23.4444928  43.3493090  48.4518719
  23.4104037  44.0255642  50.5569601  24.4900441  44.1462946  50.4680777
  22.9144812  44.8439074  51.0789537  23.0956435  42.7526283  51.3121414
  22.9851055  41.8681002  50.8372688  23.2732272  42.5271177  52.6034403
  23.5293508  43.4519291  53.5075951  23.6562777  44.4276857  53.2797956
  23.7471151  43.1627321  54.4504881  23.1116438  41.2922239  52.9821062
  22.9419827  40.5674934  52.2994041  23.3244514  40.9998322  53.9251471
  21.2934685  46.5793848  46.7034340  20.0759578  46.6000986  46.5227652
  22.0894480  47.6026297  46.4962339  23.0757523  47.4253702  46.6222715
  21.6644621  48.9893103  46.0729361  20.9802866  49.3102551  46.8584299
  22.8639555  49.9332476  46.0435295  23.7012672  49.5750284  45.4446220
  22.6157451  50.8766174  45.5571604  23.4355807  50.2726269  47.4522829
  23.5627913  49.3791008  48.0634594  24.8758531  50.8240509  47.3035383
  24.9146891  51.7252684  46.6916609  25.2452087  50.9132338  48.3251667
  25.4161739  50.0569439  46.7488241  22.5043440  51.3584471  48.0856752
  21.5037894  51.1965942  47.6846838  22.4863768  51.1845493  49.1615629
  22.9886723  52.2928572  47.8021097  20.8429170  48.8685226  44.7929478
  19.6987212  49.3654919  44.6894979  21.3690495  48.1816196  43.7822866
  22.2374868  47.7478600  44.0611649  20.7826686  48.1772280  42.4514151
  20.5562925  49.2058325  42.1706486  21.6827273  47.5920820  41.3441420
  22.0642233  46.6060257  41.6091824  21.1149311  47.5058222  40.4177141
  22.8022909  48.5898495  40.9740162  22.3367405  49.4835043  40.5583906
  23.4011221  48.8276243  41.8531990  23.7534451  48.0477762  39.8664069
  23.2451820  47.2923756  38.9760208  24.9527359  48.4045839  39.8534083
  19.3987989  47.4991226  42.3823452  18.6574364  47.9084969  41.4876127
  19.0959609  46.5313864  43.2105494  19.7304690  46.2565851  43.9467430
  17.7917039  45.8348417  43.2723427  17.2732604  46.0246420  42.3325062
  18.0586553  44.3482304  43.1889009  18.5977316  43.9780951  44.0609646
  17.1519017  43.7642908  43.0310535  18.8984585  44.0573549  41.9269037
  18.4328759  43.9723063  40.7828999  20.1945329  43.8974524  42.1838856
  20.8372450  43.6628532  41.4409256  20.6176853  44.1337729  43.0699968
  16.9256186  46.2772989  44.4462442  15.9617066  45.5820847  44.7885752
  17.2836876  47.4231625  45.0828648  17.9343069  48.0424023  44.6209812
  16.4053178  48.1049538  46.0418701  16.9154096  49.0325022  46.3018179
  15.0954998  48.4773159  45.3772068  14.5739293  47.5335312  45.2180243
  14.5359862  49.0717602  46.0994816  15.2827203  49.3108320  44.1097021
  16.3662183  49.6945286  43.6226797  14.1726720  49.7804737  43.5900879
  14.1812921  50.0649977  42.6210308  13.3134866  49.6250582  44.0977764
  16.2603116  47.4149513  47.4158812  15.1394510  47.4363947  48.0129528
  17.3314357  46.8013954  47.8698206  18.0530250  46.6958332  47.1710539
  17.4791944  46.0233450  49.1428185  16.8043375  45.1701498  49.0740728
  18.8931489  45.4820967  49.1559362  19.0750086  44.8470354  48.2889128
  19.6257520  46.2873554  49.2102432  19.1150022  44.7196913  50.4423666
  18.6305642  43.4215641  50.4904556  18.1086504  43.0116320  49.6384192
  18.9519024  42.6119184  51.6040707  18.6933482  41.5714025  51.7340040
  19.6486664  43.1870413  52.7269602  19.9076903  42.4498272  53.8815403
  19.9171877  41.5194035  53.6452770  20.0484371  44.5247841  52.6978779
  20.5297709  44.9484205  53.5669279  19.8992336  45.2734470  51.4935493
  20.2880669  46.2761402  51.3944578  17.1519017  46.7769527  50.4109812
  16.4952791  46.2342119  51.2464666  17.5741696  48.0398655  50.4919958
  17.9234231  48.5371208  49.6852350  17.3779428  48.8566542  51.7065525
  17.2515655  48.2221413  52.5837803  18.6680603  49.7043324  51.8993568
  18.7254643  50.4719877  51.1276627  18.6308205  50.1105404  52.9101515
  20.0400019  49.1214991  51.7531681  20.7569242  48.5474634  52.7907467
  20.3500724  48.5092402  53.7904501  21.9129372  47.8066349  52.4465418
  22.4987149  47.3040724  53.2019854  22.4406171  47.8842115  51.1633730
  23.6594248  47.3050499  50.8367252  24.0940070  46.7296886  51.4705276
  21.7626143  48.5112000  50.1071358  22.1991992  48.5285044  49.1194582
  20.5201292  49.1220951  50.4273176  19.9884832  49.5448399  49.5876503
  16.1807823  49.7726583  51.7086887  15.7632840  50.2388382  50.6299257
  15.6054854  50.0908899  52.9193640  15.9457219  49.6363974  53.7546921
  14.5870817  51.2008095  53.1219101  14.0907776  51.4051914  52.1732187
  13.5170817  50.7718229  54.2115211  13.0529380  49.8281097  53.9250231
  13.9856076  50.5179977  55.1623964  12.3915803  51.7519188  54.6172333
  12.1661031  52.2521353  55.8025885  12.8401041  52.0518923  56.6223621
  11.1656678  53.1911802  55.7812977  10.8346498  53.6060667  56.6406012
  10.6204760  53.2958174  54.5208216   9.5691538  54.0732098  54.0493345
   9.0189296  54.6763325  54.7563696   9.2619568  53.9862823  52.6389742
   8.4330124  54.5274067  52.2071791  10.0839460  53.2024145  51.8041849
   9.9321914  53.3151627  50.7408571  11.1029613  52.4492741  52.3282337
  11.7334104  51.8387222  51.6988230  11.4532077  52.4655056  53.7262487
  15.2780330  52.5550079  53.5497713  14.7238600  53.6730385  53.4974670
  16.4822876  52.4579144  54.0765715  16.8141425  51.5378237  54.3283939
  17.2410917  53.6167097  54.6959877  17.0203519  54.5030022  54.1011238
  16.7412937  53.8188076  56.1596203  15.6597817  53.9403009  56.2202311
  17.0055580  52.9068995  56.6950655  17.3585832  54.9766684  56.8399334
  18.2993019  54.8974752  57.6145363  16.8588924  56.1822176  56.6300774
  17.2172499  56.9653797  57.1576548  16.0539734  56.3416672  56.0411978
  18.7836337  53.4252024  54.6822262  19.2297375  52.3359728  54.9866009
  19.4999778  54.5367765  54.5750427  19.0100062  55.3713703  54.2861128
  20.9911895  54.6213961  54.4485140  21.3998175  54.1840267  53.5375643
  21.3589072  56.1942625  54.4069672  22.4216652  56.4002037  54.2795324
  20.7880068  56.7106009  53.6352348  21.2350655  56.6524076  55.3882217
  21.7131805  54.0519667  55.6752777  22.6760459  53.2998705  55.4965162
  21.1258411  54.0832186  56.9378614  20.2236152  54.5064449  57.1020842
  21.8162036  53.3770037  58.0948639  22.8095412  53.8151407  58.1919289
  21.1027813  53.6622334  59.3854952  20.0793982  53.4243870  59.0952873
  21.4960837  52.9958105  60.1531506  21.1409473  55.1547146  59.8162794
  20.6239295  55.8638239  59.1697836  20.7039237  55.1456785  60.8147955
  22.5670934  55.6204271  59.9839306  23.1542921  56.4217997  59.2148733
  23.2996559  54.9996996  60.9202099  24.2788792  55.2438688  60.8801460
  22.9016495  54.3519020  61.5850782  21.9186354  51.8109512  57.9973984
  22.6898742  51.2389660  58.7244940  21.0383153  51.2755299  57.1049547
  20.4351807  51.8837976  56.5698433  21.0722971  49.8594332  56.7410374
  21.2289023  49.2818642  57.6520729  19.7784865  49.4717455  56.2416458
  19.6266663  49.8358202  55.2255297  19.6712947  48.3871508  56.2252569
  18.5342896  49.9131536  57.0879555  18.5997248  49.7098160  58.1568193
  18.4560943  51.0002947  57.0985651  17.2674584  49.1440344  56.6085577
  16.5372503  48.6066055  57.4720097  16.9616497  49.1880798  55.3791428
  22.2199726  49.6215963  55.7637882  22.9649186  48.6793947  56.0235548
  22.3529339  50.4304600  54.6891689  21.7546415  51.2283516  54.5293903
  23.5777020  50.3527164  53.8602114  23.6538911  49.3525362  53.4336567
  23.2591343  51.1750126  52.5481892  22.2526217  50.9768248  52.1797371
  23.3726454  52.2078133  52.8776360  24.4805574  50.9827137  51.1934757
  24.4026804  49.6508026  51.1238670  24.8849058  50.7070589  54.4696903
  25.9457469  50.1555538  54.0838146  24.8542452  51.5870380  55.4423046
  23.9716458  52.0540094  55.5941391  26.0952544  52.0587969  56.1242342
  26.9080043  52.3283720  55.4497957  25.7540774  53.3350706  56.9642210
  24.8253512  53.2460594  57.5278234  26.8697023  53.5497713  58.0458403
  27.0093012  52.6716280  58.6763000  27.8344035  53.8580799  57.6428556
  26.6832590  54.4176006  58.6784649  25.6530571  54.5713997  56.0504913
  26.6572762  54.8409939  55.7234335  25.0449038  54.3110943  55.1841784
  24.9546790  55.7374382  56.7053223  25.2841520  55.9079647  57.7302408
  25.0765562  56.6293526  56.0907221  23.9037752  55.4488134  56.6854906
  26.7045665  50.8868980  56.9680405  27.9420567  50.7882452  57.0325041
  25.8465362  50.0149775  57.5371742  24.8706532  50.2678728  57.4755144
  26.1590195  48.8082790  58.1743574  26.6047502  48.9932871  59.1517019
  24.8841000  48.1737709  58.6949730  24.3173075  48.9433956  59.2189312
  24.3110061  47.7750492  57.8579044  25.0891638  47.0580101  59.8132515
  25.4289794  46.1269903  59.3595695  25.9891105  47.2875214  60.3837967
  23.8149691  46.6653347  60.5518723  22.7110386  47.2773218  60.4614973
  23.8756061  45.6394291  61.3203907  22.9972553  45.3922462  61.7534113
  24.7094870  45.0982857  61.4990187  27.0353341  47.8917265  57.2971487
  28.0437922  47.3905277  57.7526045  26.6811895  47.7896070  55.9975481
  25.8862567  48.2508516  55.5786896  27.3667026  46.8806410  55.0784397
  27.1860981  45.8619738  55.4216576  26.5487146  46.7856216  53.7389421
  26.2661624  47.7363062  53.2867670  27.2267389  46.3188934  53.0244112
  25.2598071  45.9955931  53.8935471  24.8733926  45.5168343  54.9370384
  24.5017362  45.9721756  52.8875875  28.9059424  47.1344423  54.8313475
  29.7611713  46.2231731  54.7296143  29.1512299  48.4256506  54.7084427
  28.3312559  49.0016603  54.8347664  30.4490232  49.0253830  54.4253159
  30.9399843  48.3596277  53.7155104  30.4192042  50.4684639  53.9237928
  29.8825669  51.0809422  54.6483564  31.4663506  50.7397366  54.0579224
  30.0876570  50.8626032  52.4972963  31.0448909  51.0172129  51.5263224
  32.0713806  50.7985592  51.7811012  30.6439090  51.3136005  50.2572632
  31.3594437  51.4089251  49.4539404  29.3536115  51.6439486  49.9088430
  29.0682173  51.8988848  48.8989115  28.3609986  51.6111469  50.8980417
  27.3129392  51.8403053  50.7737017  28.7690520  51.2278557  52.1662092
  27.9866362  51.0815907  52.8961658  31.3222957  48.8836193  55.6917858
  32.3974466  48.2420444  55.7040739  30.7260823  49.3740225  56.8175983
  29.8117232  49.8020935  56.7892838  31.2966228  49.1257763  58.1252623
  32.3116589  49.5192671  58.0707693  30.6931925  49.9026346  59.2773628
  29.6597171  49.5674229  59.3649054  31.1212754  49.7002697  60.2591419
  30.8345222  51.3821316  59.1721964  31.8508458  51.9354773  59.5662022
  29.9101043  52.0124388  58.5649395  29.9753785  53.0174446  58.4887743
  29.1819549  51.4492083  58.1493998  31.5986133  47.6909494  58.4792423
  32.6035190  47.4429035  59.1174746  30.6378651  46.7822599  58.1050634
  29.8367834  47.1548700  57.6156425  30.6832194  45.3386450  58.4734917
  30.9790373  45.2990341  59.5218325  29.4463563  44.5599031  58.0995226
  29.1639447  44.7865200  57.0714235  29.5350266  43.0256701  58.2902193
  30.2104807  42.6562023  57.5186253  30.0388837  42.8513288  59.2409229
  28.5933447  42.4786568  58.2442236  28.4188676  44.9476862  58.9371729
  28.4601831  45.9059000  58.8957644  31.9457197  44.7524738  57.8029156
  32.7449059  44.0803242  58.4646368  32.0055437  44.9698544  56.4617825
  31.2142754  45.4715538  56.0845613  33.1992531  44.7409058  55.6211042
  33.3169460  43.6687613  55.4637337  32.9584360  45.2416039  54.1457367
  32.1251035  44.6493578  53.7677145  32.4927354  46.2224436  54.2415619
  34.0813041  45.3228426  53.1927681  34.9109769  45.9633493  53.4919119
  34.4718337  44.3323898  52.9591274  33.4821391  46.1457396  51.7114830
  33.4493756  47.8820086  52.1442986  32.8381109  48.4012270  51.4061451
  33.0025029  47.9902840  53.1325674  34.4653487  48.2768011  52.1382618
  34.5265675  45.2118587  56.2275934  35.3677607  44.4221592  56.5908670
  34.7011900  46.5377283  56.4659643  33.9568520  47.2049904  56.3216734
  35.8116579  47.0694494  57.2351265  36.6898155  47.0317554  56.5905190
  35.5189443  48.5265970  57.6458216  34.7477484  48.5644770  58.4151888
  36.4844751  48.8690519  58.0180836  35.4262567  49.4907331  56.4804411
  36.0500216  49.2644739  55.2071333  36.7210531  48.4195042  55.1608372
  35.8033752  50.0919485  54.1351652  36.2709069  49.8953056  53.1816626
  35.0209808  51.2752676  54.3164825  34.8541856  51.8763876  53.4348726
  34.3287015  51.5107346  55.5277777  33.6544299  52.3414421  55.6750250
  34.5870328  50.6266975  56.5882492  34.1827440  50.7960749  57.5752974
  36.1507845  46.3059187  58.5032511  37.3246479  45.9329796  58.7524033
  35.1463866  46.0108995  59.3713474  34.1907382  46.2477922  59.1461420
  35.4100251  45.4514837  60.7091188  36.2877345  45.9112978  61.1633205
  34.2781997  45.6324482  61.6689968  33.4321976  44.9963951  61.4085865
  34.5551705  45.3556824  63.1010103  34.7404599  44.3242693  63.4009266
  35.4366112  45.8968353  63.4449863  33.6898804  45.6444216  63.6976767
  33.8002253  46.9717836  61.5965986  33.4282017  47.0622873  60.7162523
  35.6724668  43.9559841  60.6233263  36.5968060  43.5443258  61.3214684
  35.1432848  43.2388496  59.5699358  34.4078398  43.6161375  58.9895296
  35.5402422  41.8304062  59.2862129  35.4046464  41.2344837  60.1887655
  34.8275590  41.2161684  58.0777121  34.9726081  41.7720699  57.1514082
  35.1895905  40.2200747  57.8230953  33.2560802  41.0708475  58.3898926
  32.7359796  40.7257414  59.4375467  32.5120091  41.0870838  57.2856617
  31.5447164  40.8028889  57.3463249  33.0164814  41.0960531  56.4107180
  36.9823337  41.7450047  58.9507437  37.6703143  40.8156776  59.3180275
  37.4791956  42.7527523  58.2144117  36.9080257  43.4737921  57.7973175
  38.8939881  42.7981520  57.8478527  39.2388225  41.8280029  57.4900770
  39.1215110  43.7653017  56.6778040  39.0162396  44.8159695  56.9482374
  40.1737499  43.6054325  56.4425802  38.1200528  43.2999468  55.2587366
  36.9394970  43.8010359  55.6330299  39.7969866  42.9959249  59.0530586
  40.9425497  42.5323105  59.1312647  39.3816447  43.8024998  60.0521994
  38.5170412  44.3240786  60.0748110  40.1442957  44.0657997  61.2288332
  41.1995554  44.0698624  60.9558487  39.7499275  45.4143906  61.8534613
  38.8346148  45.3311491  62.4394464  40.5830097  45.5969858  62.5322342
  39.5947838  46.5652800  60.8680058  40.5443525  46.6785383  59.8496675
  41.2907267  45.9224987  59.6554232  40.5197191  47.8483200  58.9691734
  41.1895514  47.9470301  58.1277561  39.5958185  48.8693714  59.2175484
  39.5483351  49.9680948  58.3699036  38.8167000  50.5413294  58.6101341
  38.7709427  48.8344479  60.3913116  38.0741477  49.6575499  60.4495430
  38.7357783  47.6745319  61.1855555  37.9620361  47.5633430  61.9307804
  40.0163984  42.9894733  62.3579407  40.8780003  42.8680325  63.2414055
  39.0497303  42.1778250  62.3150158  38.3863974  42.5814581  61.6691208
  38.8077044  41.0459185  63.0644512  39.1283393  41.2488508  64.0862703
  37.2933698  40.7065105  63.2136583  36.8256712  40.9925795  62.2715759
  37.0854020  39.1523790  63.3772278  36.0185361  38.9600992  63.2635498
  37.4757123  38.6255813  62.5064564  37.3980856  38.8044119  64.3617344
  36.5825009  41.4784527  64.3440771  37.0380640  41.2868643  65.3155994
  36.8249941  42.5281143  64.1782236  35.0809169  41.4905787  64.3751764
  34.6885490  41.6896105  63.3779144  34.7405887  40.4935026  64.6546507
  34.6996212  42.2092819  65.1005650  39.6781063  39.9070406  62.5366211
  40.5475473  39.3716335  63.2249022  39.4342279  39.5916057  61.2977934
  38.6733341  40.0394297  60.8072901  40.0898075  38.3663988  60.6899261
  39.8442531  37.6016903  61.4268303  39.3098307  37.9657698  59.4255018
  38.2454395  38.0012679  59.6576881  39.5685530  38.6609244  58.6268044
  39.5621467  36.5102530  58.9797020  39.0340590  35.4358935  59.7906399
  38.3496475  35.6552005  60.5967951  39.3763924  34.0881753  59.4636250
  38.9416742  33.2806301  60.0339651  40.1346350  33.8106632  58.3237314
  40.4043579  32.5730658  57.9933548  40.3731918  32.0638156  58.8065529
  40.7871580  34.8701715  57.5845051  41.5225697  34.6973038  56.8126965
  40.4033899  36.1417603  57.9057074  40.8779573  36.8998814  57.3003674
  41.5768385  38.3703256  60.4796410  42.2373629  37.3062611  60.3369427
  42.1527719  39.5642614  60.3765297  41.6392279  40.4323292  60.4297733
  43.5068655  39.7551227  60.1279354  43.9455223  38.7573051  60.1348877
  43.6187887  40.3704739  58.7158632  43.4332085  41.4445162  58.7057590
  44.6043825  40.2557421  58.2647038  42.6926708  39.8175430  57.6805782
  42.9677725  38.8081193  56.9917631  41.6225147  40.4354239  57.3652983
  40.9737396  40.0758553  56.6798067  41.4311838  41.3044024  57.8431845
  44.2714500  40.5150318  61.2260199  43.7365007  41.4178753  61.8766737
  45.4710531  40.0771713  61.5307808  45.8187389  39.3230963  60.9558153
  46.5022230  40.7996178  62.3652792  46.3232136  40.7655859  63.4399414
  47.8503036  40.1739740  62.1626329  48.1695795  40.4313946  61.1527348
  48.5185575  40.5897856  62.9167223  47.8415251  38.6822677  62.2145033
  47.4065447  38.3264017  63.1484509  47.1964264  38.3162522  61.4157677
  49.1812038  37.8820896  62.1320152  49.8290110  38.1742811  62.9584932
  48.9338827  36.8230104  62.2047329  50.0310564  37.9693127  60.9018755
  50.3611374  38.9760423  60.6456661  50.8096170  37.2251153  61.0695601
  49.3313646  37.4552655  59.7097206  48.5336542  38.0094957  59.4329739
  49.9597979  37.5852656  58.9297962  49.1431332  36.4636064  59.6738958
  46.5980721  42.3119307  62.0798540  46.5464687  42.6638460  60.8604336
  46.7522001  43.2394934  63.0098438  47.1097755  43.0230999  64.4545889
  48.0859470  42.5485706  64.5546246  46.3447571  42.4758577  65.0053883
  46.9603395  44.4567251  65.0563955  47.5650644  44.6262741  65.9472752
  45.8875895  44.5306158  65.2348757  47.3529816  45.4350138  63.9378738
  48.4068823  45.6951666  64.0364408  46.6941643  46.3016272  63.8826847
  47.2207785  44.5714283  62.6601076  46.4830399  45.0254393  61.9985008
  48.5364866  44.5415592  61.9661045  49.3618965  43.6411524  62.2935343
  48.6508894  45.4050589  60.9658527  47.8876209  46.0591459  60.8673763
  49.7741222  45.4990768  60.0395107  49.7953606  46.4715815  59.5476866
  50.7359791  45.5361462  60.5509377  49.7936153  44.4610596  58.9455652
  50.7554102  44.4696093  58.1835842  48.7744904  43.5875654  58.8259506
  48.1185961  43.6731100  59.5892239  48.5191870  42.7031422  57.6580858
  49.4854355  42.2913027  57.3667955  47.4772835  41.6193533  57.9141665
  46.5686560  41.9933605  58.3859921  47.1386766  41.2536240  56.9447947
  48.0495405  40.4677391  58.6814547  47.3739386  39.4066978  58.8402796
  49.2878294  40.4534483  59.0515041  48.2266998  43.5526323  56.4491510
  47.3975945  44.4357538  56.5619373  48.7867165  43.3691502  55.2562380
  49.4213724  42.6237583  55.0078487  48.5502338  44.2293310  54.0849257
  48.9697123  45.1730919  54.4334269  49.3380213  43.7309504  52.8211594
  49.2081881  42.6620674  52.6516628  48.9006329  44.2094851  51.9449186
  50.8792067  43.9697886  52.7993202  51.3872433  43.5503244  51.7375135
  51.5781498  44.4859982  53.7042713  47.0442581  44.4528008  53.7925291
  46.5582228  45.5860710  53.5804224  46.2819624  43.3580256  53.6976051
  46.6393900  42.4606419  53.9926529  44.7939634  43.4401846  53.5004330
  44.6375084  43.8449001  52.5005150  44.2027903  42.0421028  53.6660337
  44.8375320  41.4677811  52.9912281  44.2923212  41.4435673  55.1138401
  45.2803326  41.5927553  55.5493450  43.5059929  41.8776178  55.7314110
  44.1681528  40.3625679  55.0496054  42.7518559  42.0302773  52.9811621
  42.3913383  41.0232830  53.1911278  42.0618200  42.7507067  53.4204006
  42.7665424  42.0669222  51.4455748  41.7364264  42.0172262  51.0927343
  43.0555582  43.0887938  51.1998892  43.4228945  41.3335371  50.9771252
  44.1492224  44.4464397  54.5033121  43.3525705  45.2423286  54.0765572
  44.5154333  44.5031118  55.7962465  45.2197838  43.8498354  56.1080551
  44.0602493  45.5743217  56.6737366  42.9709148  45.5806971  56.7112970
  44.5446110  45.2831316  58.0931950  45.6111240  45.0621033  58.0507994
  44.2471361  46.4280224  59.1055965  44.6829176  46.2010479  60.0785732
  44.6904325  47.3772907  58.8047886  43.1840181  46.6605711  59.1672516
  43.8314390  44.0607786  58.6919117  44.3814516  43.6550236  59.5409966
  42.8336143  44.3732166  58.9998579  43.9125681  43.2916737  57.9237986
  44.4850206  46.9633627  56.1922073  43.6632681  47.9089832  56.2347937
  45.7129288  47.1311617  55.7232285  46.2593985  46.2910080  55.8481789
  46.1970091  48.4324455  55.2717018  46.1054468  49.1019440  56.1269808
  47.6755667  48.3589220  55.0989199  47.7630329  47.7057076  54.2307281
  48.0793905  49.2849874  54.6897221  48.5545731  47.8713751  56.3187647
  48.3530569  46.8146706  56.4944744  50.0541544  48.0542803  56.0107327
  50.2259731  49.0988016  55.7508230  50.5666161  47.7969837  56.9377089
  50.4127264  47.3904133  55.2240896  48.1828022  48.6765385  57.5510740
  48.2608032  49.7365189  57.3092842  47.2213125  48.3704758  57.9633427
  48.8127518  48.4113359  58.4001493  45.4743671  48.9814138  54.0874863
  45.4172134  50.2002192  53.9680195  44.8638916  48.0596685  53.3083725
  45.1192093  47.0961428  53.4712410  43.9469767  48.4653854  52.2335958
  44.3626595  49.3164873  51.6942120  43.6880827  47.2709990  51.3168430
  43.1655598  46.4996243  51.8825722  42.9634571  47.4760628  50.5288219
  45.0438929  46.7987490  50.6933117  45.4369926  47.5908375  50.0559998
  45.6813765  46.5913105  51.5527821  45.1303720  45.3602886  49.5930195
  44.5386648  46.0755682  48.0512524  44.2968225  45.2134705  47.4296522
  43.6293411  46.6029787  48.3394814  45.3624964  46.7096138  47.7235556
  42.5457048  48.8999414  52.7253532  42.1535397  49.9858618  52.4085951
  41.8811846  48.0654669  53.5943794  42.3490667  47.2461557  53.9548111
  40.6087971  48.3872604  54.1764402  39.9707103  48.4735346  53.2969475
  40.1731539  47.1936941  55.0250483  40.8888292  46.8897629  55.7889414
  39.2491007  47.5349426  55.4917192  40.0313997  46.3171768  54.3928099
  40.6366777  49.6929646  54.9201488  39.7877645  50.5571508  54.5674515
  41.6660023  49.9307442  55.7413340  42.2753620  49.1323566  55.8479309
  41.9132662  51.1228466  56.4585114  41.0556555  51.3153744  57.1031380
  43.1823921  50.8356905  57.3245764  42.8587055  50.0719595  58.0317116
  43.9375067  50.3865862  56.6794300  43.7314558  52.0085573  58.0847836
  44.6925735  51.6421366  58.4454727  44.0718126  52.7906513  57.4061203
  42.8085661  52.5359392  59.2144585  42.3124647  51.6849041  59.9745464
  42.6805210  53.7555838  59.3766069  41.9620562  52.3899603  55.5620813
  41.3977432  53.4295130  55.9812355  42.5057268  52.2778034  54.3128586
  42.7528524  51.3889742  53.9017439  42.4362373  53.4147692  53.3736992
  42.5013018  54.2861176  54.0253258  43.6254549  53.3651400  52.3858738
  44.4412041  52.9201794  52.9556608  43.4491014  52.6973963  51.5425920
  43.7540245  54.3677092  51.9779253  41.1803532  53.6212063  52.6306248
  40.7095480  54.7508144  52.4456406  40.4823160  52.5340891  52.2346640
  40.8513737  51.6173601  52.4432325  39.0651441  52.5279140  51.8330526
  38.9125133  53.1688643  50.9647322  38.6949062  51.1521816  51.2655020
  38.8649440  50.4044056  52.0401096  37.6287246  51.0901690  51.0475302
  39.4012141  50.5936480  50.0017405  40.4827690  50.5733824  50.1356506
  39.0898204  49.0798807  49.7355270  39.4742846  48.3945656  50.4909277
  38.0170465  48.8959360  49.7940159  39.3404865  48.6814833  48.7523937
  39.0585947  51.4345121  48.8294029  39.5713234  52.3894739  48.9446020
  39.5126700  51.0289860  47.9252672  37.9917789  51.4928770  48.6135435
  38.0630898  53.0619287  52.8929377  37.1078920  53.7112331  52.5246096
  38.2991552  52.8801155  54.1625786  39.0312123  52.2282171  54.4059467
  37.4161696  53.4259558  55.2422762  36.3698411  53.2877636  54.9698782
  37.6399755  52.7480030  56.5578938  37.5761509  51.6634846  56.4692926
  38.6415696  53.0676794  56.8454981  36.6313457  53.2240343  57.5954342
  36.8178964  54.2568493  57.8897142  35.6364131  53.1654453  57.1541023
  36.5988946  52.4579525  58.9333010  35.6170464  52.5631618  59.7017336
  37.6146173  51.7668533  59.2110586  37.6755548  54.9238539  55.3204679
  36.7045689  55.6654930  55.2700520  38.9238787  55.4118109  55.3993750
  39.7528362  54.8366880  55.3528500  39.1306877  56.8503332  55.2829075
  38.5488272  57.3007011  56.0870886  40.5787230  57.2402763  55.6715679
  41.3469172  56.5160084  55.4006195  40.8867216  58.1757259  55.2044868
  40.6610489  57.5274897  57.2147274  41.7101479  57.8060913  57.3140717
  40.0940037  58.3794451  57.5898695  40.4708958  56.3523579  58.1471825
  39.3997669  56.3432503  58.3489275  40.7816696  55.4249096  57.6661777
  41.2465286  56.6424131  59.4474888  42.3058033  56.7081976  59.1990757
  40.8191156  57.5478458  59.8783112  41.1368370  55.5783272  60.5090570
  40.1532984  55.4079962  60.6631374  41.6055584  54.7665548  60.1329899
  41.4967680  55.9572840  61.3733149  38.5357070  57.5742245  54.1273785
  37.9809308  58.6788607  54.3783951  38.4411693  56.8650150  52.9784632
  39.0539837  56.0644627  52.9177999  37.7453518  57.3053312  51.7813873
  37.8733706  58.3848906  51.7022657  38.2108617  56.5285301  50.5212593
  39.2989111  56.5881777  50.4948330  38.0488873  55.4914570  50.8151054
  37.4493790  56.9162893  49.2552567  36.3866806  56.6928005  49.3491840
  37.7275133  58.3155966  48.8135624  37.1443033  59.1266584  49.2496204
  38.7640715  58.5866117  49.0140581  37.5797272  58.4031439  47.7371836
  37.9203534  55.8900833  48.1776285  37.8788781  54.9227667  48.6783075
  37.1987820  55.9247541  47.3613977  38.9274001  56.1201096  47.8297091
  36.2114692  57.1798038  51.9803238  35.5092001  58.1538153  51.5563917
  35.6970382  56.2111473  52.7149773  36.3585281  55.5775547  53.1405210
  34.3096018  56.1521626  53.1007242  33.7343454  56.3097954  52.1883965
  33.9821196  54.7756195  53.6540079  34.1644049  53.9992762  52.9109287
  34.6138811  54.5801020  54.5204639  32.5785470  54.5582294  54.0685987
  32.2497129  54.7165966  55.4293585  33.0029964  55.0124454  56.1445093
  30.9721613  54.3400335  55.9854412  30.7036090  54.4204426  57.0284224
  30.0204754  53.8314438  55.1142550  29.0083313  53.6200523  55.4261494
  30.2763653  53.8532448  53.7013769  29.4367266  53.6795044  53.0447054
  31.5586972  54.1801548  53.1888008  31.7081332  54.2766523  52.1235514
  33.8375425  57.3155165  53.9497519  33.0533218  58.1075001  53.5027504
  34.6015406  57.5178432  55.0489902  35.3093767  56.8384075  55.2886391
  34.3504429  58.5903406  55.9985018  33.3405948  58.5413361  56.4058161
  35.2773905  58.4783268  57.1850824  36.2921190  58.4350634  56.7894077
  35.2397108  59.3984842  57.7681684  35.2204275  57.2741985  58.1155682
  35.0779438  56.3350868  57.5809002  36.5484881  57.0908260  58.7805748
  36.9105983  57.9664183  59.3193865  36.4732790  56.2247515  59.4381189
  37.2637820  56.9790316  57.9657412  34.1574335  57.3351383  59.1600132
  34.1901422  56.3720083  59.6693373  34.4811392  58.1315660  59.8301077
  33.1576872  57.4121428  58.7326050  34.3517637  59.9708700  55.3576279
  33.4286785  60.7267380  55.5457354  35.3324366  60.2872324  54.4852304
  36.0542440  59.5823336  54.4382286  35.4034662  61.4463425  53.6369181
  35.5436516  62.3332691  54.2548227  36.4963031  61.2731695  52.5627851
  37.4195147  61.1027861  53.1166363  36.3866067  60.4104137  51.9057322
  36.7125583  62.5116539  51.6135597  35.7113218  62.6359224  51.2010241
  37.0264864  63.3788919  52.1944618  37.6319814  62.2166491  50.4117441
  38.3090878  61.2254190  50.3725433  37.6091886  63.0205250  49.3688488
  38.3688569  62.9106760  48.7123871  36.9602251  63.7944412  49.3714046
  34.1046071  61.7111063  52.9336166  33.5717392  62.8313303  52.9905605
  33.5593271  60.7416010  52.2540379  34.0041089  59.8628569  52.4778318
  32.2551322  60.8432770  51.5214157  32.1982312  61.8551636  51.1202335
  32.3420167  59.8859692  50.2962685  32.4087524  58.8770962  50.7034874
  31.4215899  59.8831367  49.7123957  33.5748649  59.9733782  49.3595552
  34.4602633  59.7214508  49.9432468  33.5322070  59.1734266  48.6203957
  33.7203050  61.3569450  48.6361074  32.7791119  61.4649010  48.0970335
  33.8741231  62.0890903  49.4288301  35.0235581  61.4010191  47.8473902
  35.9047031  61.3657045  48.4880400  34.9844050  60.4781818  47.2686481
  35.0384164  62.5372028  46.8822861  35.1808739  63.4449387  47.3016024
  35.7931256  62.2918558  46.2575245  34.2254448  62.6165628  46.2882519
  30.9724188  60.6025600  52.3236656  29.8880768  61.0128736  51.8532228
  31.1334777  60.1589680  53.5646343  32.0142365  59.7059155  53.7623835
  30.0583458  60.2190733  54.5778799  29.1447234  60.1211309  53.9915323
  30.1343012  59.0702820  55.6077385  31.1308479  59.1288853  56.0454130
  29.2555714  59.2126274  56.8602991  28.2054543  59.3322325  56.5937567
  29.2937541  58.3052158  57.4630022  29.5391488  60.0287485  57.5248528
  29.9545097  57.6382542  55.0225115  30.5805659  57.5412750  54.1355228
  30.2610588  56.9772100  55.8331585  28.4260392  57.1753120  54.7753000
  28.0362916  57.8918743  54.0522957  28.4447002  56.1539745  54.3950081
  27.8947163  57.0840979  55.7226515  29.8429799  61.6151810  55.2402592
  28.7020612  62.0114279  55.5826044  30.9383893  62.3984528  55.2842712
  31.8251586  62.0154905  54.9891758  30.8422589  63.8119507  55.6973410
  30.4154134  63.8856888  56.6975784  32.1592093  64.4424248  55.7603455
  32.8022456  64.3715382  54.8830891  32.0022273  65.5117893  55.9015083
  33.0715442  63.9685249  56.8644428  32.6423454  63.8230610  58.0314493
  34.3288589  63.6126518  56.5526915  34.9069691  63.3890200  57.3501110
  34.7196126  63.5401011  55.6241703  29.9829054  64.5954323  54.7059011
  29.3573308  65.5877018  55.0637054  29.9985552  64.1599894  53.4993696
  30.6986046  63.4331369  53.4578609  29.3385959  64.5233440  52.2668505
  28.9967179  65.5582142  52.2830009  30.2943516  64.4038677  51.1019230
  30.4349208  63.3267879  51.0111523  29.7342944  64.7866106  50.2487230
  31.6877747  65.0096369  51.3117838  32.2446084  64.4187641  52.0390415
  32.2353148  64.9976444  50.3693628  31.7371941  66.4888859  51.7930508
  30.9056020  67.3082542  51.2767220  32.4906564  66.7594957  52.7679014
  28.0385661  63.7950277  51.9684505  27.4521804  64.0717125  50.9430742
  27.5264382  62.9311705  52.8508234  28.0296540  62.7890778  53.7149334
  26.2562108  62.2545624  52.7353382  26.2461591  61.7036343  51.7948675
  26.0791636  61.1597109  53.8526726  26.8843555  60.4250622  53.8452053
  26.1537981  61.6239548  54.8360395  24.7017598  60.5306721  53.7302446
  23.9575744  61.3151121  53.5926008  24.7440171  59.5298386  52.5984001
  23.7484717  59.1199541  52.4281263  25.1214981  59.8602438  51.6307020
  25.3633666  58.6528158  52.7863789  24.4746518  59.6850586  55.0081253
  25.4063249  59.2173815  55.3265142  24.2879391  60.3676414  55.8371735
  23.7390304  58.9012384  54.8276186  25.1344061  63.3273411  52.7910233
  24.9415779  64.0461397  53.8276291  24.3459010  63.5442019  51.7055511
  24.4342875  62.8717232  50.4705286  24.3219733  61.7970228  50.6137562
  25.2840829  63.1414795  49.8434877  23.2225084  63.2851696  49.6702528
  22.4970865  62.5163126  49.9361944  23.3805633  63.3949327  48.5973740
  22.7022815  64.5758915  50.2550650  21.6188526  64.6573305  50.3425360
  22.9460812  65.4022789  49.5874262  23.3464003  64.6507406  51.5810585
  23.9186311  65.5769968  51.6330433  22.3374462  64.6631002  52.6616240
  21.9655800  63.5970116  53.1570435  21.9750214  65.8505678  53.1657553
  22.1988058  66.7191172  52.7013826  21.2538171  65.9514618  54.4814539
  20.9388518  64.9459600  54.7605133  22.1679115  66.3523149  55.6723547
  22.9516554  65.6015778  55.7735634  22.7907872  67.7189589  55.4712200
  23.5684705  67.6587629  54.7098446  21.9931793  68.4127331  55.2055168
  23.2207561  68.0282211  56.4238882  21.4357114  66.2644434  56.8729830
  21.3684249  65.3243256  57.0553350  19.8711705  66.6714811  54.3992043
  18.8727963  66.0220337  54.7886562  19.7335100  67.6990747  53.7220955
  35.1923728  34.6945691  10.0461137  35.6163669  33.8159347  10.3075171
  34.3354559  34.5705414   9.5261025  34.9622154  35.0700879  10.9550214
  36.1894870  35.5367136   9.3492299  36.6011071  34.9754047   8.5104191
  35.5270839  36.8520975   8.8952059  34.5373464  36.7319489   8.4546572
  35.3499293  37.6396060   9.6276987  36.5818596  37.4242663   7.9458594
  37.4030232  37.9066181   8.4760720  37.0574212  36.6158366   7.3905391
  36.0237098  38.4283781   6.8998951  35.3680539  37.8646660   6.2362331
  35.4937983  39.1974330   7.4618959  37.1597457  39.0740561   6.2086344
  36.6444397  39.5114398   5.3534997  37.6171732  39.9132633   6.7326587
  38.2907200  38.2412863   5.7662868  37.8581977  37.4806094   5.2619141
  38.9579391  38.7193108   5.1777160  38.8144851  37.9268384   6.5705836
  37.4083447  35.7655430  10.1786780  37.4904943  36.6175199  10.9704638
  38.5172439  35.0440598   9.9585736  38.5628366  34.4431949   9.1480303
  39.6536398  34.9370265  10.8117533  39.2608953  34.5847535  11.7655659
  40.6032801  33.8070226  10.2765167  40.9973192  34.1377020   9.3155330
  41.7034340  33.7150908  11.2788904  41.2757254  33.5825682  12.2726762
  42.1964169  32.7504086  11.1586523  42.4239922  34.5328641  11.2671244
  39.9496841  32.4626350  10.0687051  39.1431093  32.4672842   9.3355489
  40.7150841  31.7990112   9.6663803  39.4692183  32.1126604  10.9823608
  40.3660536  36.2533140  11.1375976  40.8283138  36.4227629  12.3091662
  40.3586483  37.2018051  10.2327824  39.9597573  37.0228934   9.3222988
  40.8376837  38.5438871  10.4763770  41.8223047  38.4056759  10.9230602
  40.8206606  39.4052267   9.1286904  40.9935331  40.4765987   9.2305541
  41.4795780  38.9560437   8.3856165  39.5835948  39.3202209   8.5445088
  39.3812156  40.2047348   8.2310182  39.9553704  39.3779540  11.5040302
  40.5349731  40.0859499  12.3436773  38.6252403  39.2425585  11.5439951
  38.3011150  38.5202217  10.9168780  37.6702189  39.8178768  12.5382555
  37.9309988  40.8594608  12.7258515  36.2982202  39.7882009  11.9519436
  36.0332155  38.7591529  11.7091823  35.5875587  40.2734709  12.6209533
  36.1555433  40.6179285  10.7056344  36.7809725  40.2333641   9.9000013
  35.0788546  40.5076981  10.5764270  36.4813042  42.0594120  10.8818030
  36.3862491  42.5559950  11.9924021  36.9320321  42.7844238   9.9340743
  37.8809595  39.0619540  13.8811767  37.7119517  39.6250582  15.0049353
  38.2616639  37.7870989  13.8095129  38.3001065  37.3458505  12.9018092
  38.5447550  37.0358968  15.0398338  37.7567887  37.1151114  15.7887900
  38.7515545  35.5501795  14.8432267  39.6340013  35.3623199  14.2315924
  38.8462162  35.1357484  15.8469117  37.6465797  34.6967530  14.2611289
  36.7723846  34.9010921  14.8792946  37.4506259  34.8311830  13.1973469
  37.8281260  33.1788278  14.3688703  38.1484175  32.6805902  15.4273880
  37.7318048  32.4459171  13.2902980  38.1709170  31.5427327  13.1828570
  37.0989180  32.7894568  12.5821078  39.8616123  37.6820230  15.6317794
  39.9286032  37.9069185  16.8357730  40.8069229  38.0594325  14.7833860
  40.8265686  37.7516508  13.8216233  42.0964909  38.5655212  15.3205073
  42.4320507  38.0239272  16.2049162  43.1795740  38.5984921  14.1977882
  42.6497507  38.8665009  13.2836986  44.0284538  39.2612815  14.3657637
  43.7837076  37.1725297  13.9669824  43.0370331  36.4179587  14.2143655
  44.3480062  37.0249677  12.5580418  43.5666943  37.3498702  11.8709588
  45.2583027  37.6046276  12.4048817  44.6555185  36.0103583  12.3048437
  44.7409725  36.8144727  15.0862265  44.4417334  36.9517922  16.1253119
  45.0751400  35.7772160  15.1093531  45.6215572  37.4478912  14.9792135
  41.9936562  40.0556946  15.7751715  42.5533342  40.6150532  16.7010093
  41.1527729  40.7430840  15.0584602  40.8479071  40.4159975  14.1528285
  40.5801630  42.0705223  15.5188370  41.3809395  42.8004694  15.6373155
  39.7046065  42.6862478  14.4106269  40.2280092  42.6697111  13.4546578
  38.7528110  42.1653986  14.3061805  39.4053316  44.1961479  14.7560465
  38.9059663  44.1428471  15.7234645  40.3503942  44.7364569  14.8110902
  38.5106373  44.8168516  13.6758506  37.5297260  44.3514156  13.5794997
  38.2224679  45.8310032  13.9525390  39.1018677  44.8467541  12.2937775
  39.7960758  45.6869364  12.3100698  39.6891212  43.9627266  12.0453262
  38.0331230  45.1724720  11.2342775  37.4590421  44.3729258  11.0078728
  37.4322605  45.9018946  11.5906560  38.5272384  45.5233145  10.4262793
  39.8545837  41.9824696  16.8656683  40.1945496  42.7404070  17.8441513
  39.0474796  40.9418154  17.0753944  38.9299107  40.2316713  16.3668919
  38.5495639  40.6911802  18.4334612  38.0717754  41.6005278  18.7980294
  37.5427985  39.5089412  18.5155630  36.8062067  39.7135758  17.7386069
  38.0292344  38.5342789  18.4766459  36.5880299  39.7041512  20.0295353
  36.6051435  41.0393953  19.9879825  39.6517205  40.3619242  19.4717920
  39.5688438  40.8413506  20.6323647  40.6839752  39.6000910  19.0565038
  40.7544470  39.2339826  18.1178355  41.7392874  39.3715811  20.0231028
  41.3063669  38.9787579  20.9430861  42.6639414  38.3826637  19.3381572
  42.9998112  38.7886739  18.3839834  43.4452963  38.2325888  20.0831819
  41.9117069  36.7743468  18.9351916  40.7690525  37.2586036  18.4404719
  42.5012302  40.6786871  20.4072261  43.0162382  40.7033634  21.5526223
  42.6048422  41.6171408  19.5035875  42.1719265  41.3488722  18.6313975
  43.1190825  42.9432106  19.7792423  44.0689468  42.7512932  20.2782655
  43.5616446  43.6704206  18.5311782  44.2982912  43.1591272  17.9114723
  42.7430153  43.6793709  17.8115487  44.0244150  45.0012636  18.8295376
  44.9075651  45.0373936  19.2041624  42.2678137  43.8182497  20.6725812
  42.8434753  44.5049381  21.5243888  40.9319544  43.9526892  20.5403233
  40.4448700  43.5716295  19.7418022  40.1162291  44.7783709  21.4153242
  40.5059958  45.7933855  21.4923286  39.1306901  44.7576904  20.9501553
  39.7488308  44.1220140  22.7642059  39.5345473  44.8977137  23.6731076
  39.8228288  42.7982092  22.9360843  39.9195623  42.2236586  22.1110797
  39.8646188  42.1168756  24.2745829  39.0095925  42.3806047  24.8970628
  39.7394037  40.5402756  24.0811872  40.5097389  40.2345657  23.3732152
  39.9858594  39.7087646  25.3715229  40.9431839  39.9625969  25.8267140
  39.2634225  39.9016523  26.1646056  40.0540113  38.6371398  25.1842332
  38.2870483  40.2022743  23.5763216  37.5648546  40.4806089  24.3438292
  38.1180072  40.7740402  22.6638484  38.0234194  38.7723780  23.1726480
  37.0062351  38.5622525  22.8420615  38.6124420  38.6052322  22.2708607
  38.2031298  38.1597400  24.0560937  41.2373972  42.4739456  24.8905730
  41.1765909  43.0719137  25.9884000  42.3771381  42.3314476  24.2119884
  42.3610544  41.8838644  23.3067203  43.7064266  42.7723408  24.7797012
  43.8235903  42.2422409  25.7248831  44.9831533  42.4142790  23.8924003
  45.0113869  41.3893938  23.5223842  44.9514246  43.0483198  23.0063438
  46.3800335  42.5529909  24.5912910  46.5327787  43.4606552  25.1751661
  46.6431570  41.4431429  25.5615902  47.5743437  41.5959549  26.1071539
  45.7950926  41.3819933  26.2436199  46.7053318  40.4425335  25.1337862
  47.4750614  42.6220274  23.5356641  47.2713375  41.8901920  22.7539968
  47.4988651  43.6418629  23.1516480  48.4857035  42.5419569  23.9360285
  43.6890888  44.2832565  25.1115704  44.2979670  44.6223640  26.1335063
  43.1217146  45.1555634  24.2559099  42.9450941  44.7403383  23.3523083
  42.9404259  46.5433311  24.5561695  43.9728546  46.8715191  24.6765089
  42.4033308  47.2018719  23.3091331  43.0963993  46.8812513  22.5313425
  41.4683533  46.6814137  23.1016493  42.2470856  48.7287474  23.3703756
  41.5279388  49.0518761  24.1230559  43.2582760  49.1019440  23.5325861
  41.6428995  49.1844225  22.0474267  42.2598171  48.8458061  21.2150478
  40.6139755  48.8391876  21.9463086  41.7496681  50.7830763  21.9424915
  41.4139032  51.2011337  22.8914857  42.7798605  51.0382080  21.6940713
  40.9566641  51.3499022  20.7850218  40.0183868  51.0105181  20.9417224
  40.9430599  52.3532104  20.9002995  41.3673544  50.9947205  19.9333870
  42.1222210  46.7989635  25.8116961  42.5896120  47.5902462  26.6369796
  41.0303307  46.0502195  26.0350323  40.6817436  45.3691959  25.3756452
  40.1215410  46.3182259  27.1531677  39.7264004  47.3340750  27.1575427
  38.9134574  45.3439665  26.9768667  38.3266830  45.8590794  26.2163043
  39.3620420  44.4359016  26.5739965  38.0329728  45.0956440  28.1993198
  37.0660090  44.6853685  27.9081893  38.5447192  44.3958759  28.8600373
  37.7169633  46.4016342  28.8975668  37.4630618  47.4266672  28.2180381
  37.7176094  46.4257002  30.1426268  40.8369970  46.0035467  28.4650350
  40.7605076  46.7783880  29.4405460  41.6531277  44.9712420  28.4497643
  41.6170979  44.4009638  27.6169443  42.6004457  44.6714497  29.4854879
  42.0659876  44.5291138  30.4247403  43.2806206  43.2871056  29.2458415
  43.7486410  43.2979488  28.2614923  44.0666056  43.1633329  29.9908304
  42.3131514  42.0947361  29.2242742  41.8844271  41.9244146  30.2118421
  41.4414120  42.3867702  28.6387062  42.9235983  40.5143881  28.4743047
  44.2281008  39.9975634  29.7386384  45.0117397  40.7530451  29.7956061
  43.6626387  39.9812269  30.6703496  44.5812750  39.0103722  29.4405985
  43.8201523  45.6220627  29.7131467  44.3889761  45.7288599  30.7982421
  44.2121029  46.3983393  28.7183762  43.7653828  46.2618732  27.8228784
  45.2046156  47.4146605  28.7917972  45.9826374  47.0027113  29.4345117
  45.8687735  47.8002357  27.4570918  45.1524734  47.6505041  26.6492605
  46.0525084  48.8640070  27.3063183  47.1569967  47.1436214  27.1423841
  47.2191668  46.2553740  26.0163808  46.2917614  46.0247517  25.5132604
  48.3935261  45.6785107  25.6342840  48.3742142  44.9376440  24.8486948
  49.5509863  45.9218121  26.4439607  50.4638958  45.4259443  26.1487985
  49.5397472  46.7815447  27.5700450  50.4600763  47.0103693  28.0867982
  48.3216524  47.4800682  27.8649139  48.2993698  48.0408669  28.7876320
  44.6505833  48.6423159  29.4462729  45.4826641  49.5320511  29.7677612
  43.3267212  48.8590908  29.4184637  42.7411699  48.0980778  29.1052723
  42.6970625  50.0049925  29.9425840  43.0449343  50.8656836  29.3713665
  41.1875296  49.9063778  29.7353673  40.7877016  50.9119272  29.8662257
  40.9875965  49.6834373  28.6873078  40.8955765  49.0834522  30.3877926
  43.1051064  50.2435160  31.4666724  43.1565857  49.3218517  32.3206019
  43.3025026  51.5000248  31.8742585  43.2804012  52.1352339  31.0893250
  43.7781143  52.0547676  33.1461644  44.8178577  51.7610502  33.2902575
  43.8125658  53.6225557  33.0374169  44.4560623  53.9740086  32.2308850
  42.8645325  53.9806652  32.6360536  43.8786888  54.5086622  34.3537879
  43.7583733  55.5296278  33.9914918  43.0382204  54.1439486  34.9442935
  45.2146006  54.3711042  35.0997949  45.1032686  54.6361494  36.1512017
  45.4405069  53.3048296  35.0885415  46.3596773  55.1947832  34.4353390
  46.6760969  54.6850061  33.5253358  45.9798193  56.1585617  34.0963054
  47.5092030  55.3360510  35.4323101  48.3213997  55.8456850  35.1149559
  47.2053576  55.8716631  36.2328696  47.7308702  54.3707943  35.6304169
  43.0426025  51.6311502  34.4066191  43.6721706  51.4037704  35.4365277
  41.7189503  51.1966610  34.2413259  41.2753534  51.3774395  33.3521461
  40.8317900  50.5464315  35.1588392  40.7510710  51.2353516  35.9996605
  39.3779492  50.3073406  34.4808984  38.8177609  49.6460629  35.1419592
  38.7852550  51.2218571  34.5027184  39.2861676  49.8021460  33.0834460
  39.6061969  50.6047058  32.4189305  39.9483299  48.9366722  33.1076694
  37.9279041  49.3806219  32.6568913  37.7482224  48.4074497  33.1137848
  37.2266102  50.0738573  33.1213379  37.8540182  49.2632818  31.1106968
  38.1468940  50.2023506  30.6411529  38.4836912  48.4633684  30.7211304
  36.5062046  48.9713240  30.6728435  35.9784865  48.5353422  31.4154959
  35.9307361  49.7818661  30.4940987  36.4370346  48.3073950  29.9148798
  41.4633083  49.2524052  35.7065177  41.3159609  48.9732885  36.8974900
  42.2023726  48.5291290  34.8465919  42.2650862  48.7867975  33.8720274
  42.8754139  47.2567225  35.2988052  42.2826910  46.9071293  36.1441255
  42.8800011  46.2346458  34.1655612  43.6400461  46.4264393  33.4081626
  43.2120275  45.3470039  34.7040296  41.5283442  46.0751247  33.5628080
  40.4175806  45.5417824  34.1814470  39.3647385  45.7399511  33.2931352
  38.3772063  45.3408289  33.4716868  39.8425245  46.3273573  32.1720934
  39.2774916  46.5047789  31.3539481  41.1481142  46.6610098  32.3890734
  41.8768167  46.9936752  31.6646886  44.2610884  47.4580956  35.8860159
  44.7300243  46.5120459  36.4606881  44.8290920  48.5970306  35.7676244
  44.3240786  49.3310261  35.2918863  46.2612391  48.7958050  36.0747409
  46.8525887  48.1694651  35.4068232  46.6852522  50.2130938  35.7845402
  46.2772942  50.8444595  36.5738726  47.7631664  50.3680849  35.7378840
  46.3059187  50.5229998  34.8108029  46.6821051  48.3424377  37.4803996
  47.8158855  48.0068922  37.6997423  45.7707071  48.3899975  38.4872222
  44.8853827  48.8001442  38.2262921  45.9573412  47.8474522  39.8680711
  46.6554642  48.5095501  40.3802776  44.6368837  47.9794884  40.6386757
  44.8352718  47.5805807  41.6334724  44.4881535  49.0545893  40.7393646
  43.7533808  47.4957466  40.2221346  46.4716291  46.4964628  39.9898505
  47.3296404  46.1991453  40.7942486  45.9941530  45.5944967  39.1097331
  45.3201389  45.9632635  38.4541273  46.3834953  44.1212273  39.1332841
  47.1504641  43.9383984  39.8859048  45.0963545  43.3225489  39.5467424
  45.3385448  42.2600603  39.5230341  44.8803997  43.5769796  40.5844021
  43.8422775  43.6861610  38.7122273  43.5742426  43.1232786  37.4214220
  44.2297840  42.3688412  37.0121694  42.3794508  43.4113598  36.7573452
  42.0583534  42.9425097  35.8389354  41.4113474  44.2636395  37.3588824
  40.1514101  44.4080973  36.9283175  40.1306868  44.6824837  36.0085988
  41.7059422  44.8297644  38.6260891  40.8941936  45.4329252  39.0051293
  42.9183674  44.5785475  39.3153286  43.1609726  45.0984573  40.2303314
  47.1108484  43.6633682  37.8194094  47.8125238  42.6885223  37.8220510
  46.9992590  44.4125891  36.7561221  46.3424826  45.1786184  36.8002987
  47.7066994  44.1348410  35.4943895  47.7478218  43.0536795  35.3621125
  46.9409323  44.6420431  34.2962074  46.6172743  45.6517649  34.5488143
  47.6316690  44.6587276  33.4531713  46.0936928  43.9623642  34.2049932
  49.1372967  44.6077538  35.3114772  49.9180746  44.0955496  34.5113921
  49.5817757  45.4858971  36.1917329  48.9492607  45.9758520  36.8081427
  50.9325361  46.0150051  36.2071276  51.1239815  46.6138601  35.3167200
  51.1096907  46.9817829  37.3949456  51.9716072  47.5907421  37.1222234
  50.2667236  47.6720047  37.3615956  51.2942743  46.3692141  38.7965322
  50.3497982  46.3221407  39.7280765  49.3440437  46.6884851  39.5843720
  50.8904505  45.5802870  40.7758427  50.3542233  45.3258038  41.5930319
  52.1738482  45.1709604  40.5921412  53.1009960  44.5917511  41.4574623
  52.7404404  44.3295527  42.4411535  54.4652748  44.6014166  41.1326170
  55.1950788  44.3690634  41.8940592  54.8311901  45.3431749  39.9355245
  55.8830595  45.4998398  39.7472906  53.8472557  45.9253883  39.1008306
  54.1783714  46.6097260  38.3337283  52.5163269  45.8539152  39.4094539
  52.0852947  45.0190544  36.1918807  53.1037569  45.3796387  35.5940533
  51.9917440  43.7804985  36.8110466  50.8910561  43.1400490  37.5012231
  50.3680229  42.5596380  36.7411780  50.3273821  43.8110638  38.1493807
  51.4571238  42.0533752  38.4436822  50.7573128  41.2210274  38.5182333
  51.6620111  42.5659466  39.3835735  52.7203989  41.6163683  37.7550220
  52.6625633  40.5811644  37.4187088  53.5283709  41.7617559  38.4720635
  53.0086231  42.6927090  36.6426992  53.9656019  43.1296444  36.9279766
  53.0958843  42.0564079  35.2182841  53.9647627  41.2094021  34.9614120
  52.1168041  42.2676659  34.3150258  51.4853430  43.0494833  34.4156671
  51.9395733  41.5174723  33.0824018  52.8418541  40.9162474  32.9705071
  50.6840611  40.6889153  33.1346631  49.8063135  41.3351679  33.1390047
  50.7460785  40.0109291  32.2834373  50.6506586  39.8766565  34.4204330
  51.3404655  38.6673021  34.5643520  51.9274998  38.2916069  33.7393403
  51.2937927  37.8913307  35.7446480  51.8555164  36.9693732  35.7739854
  50.4565859  38.3540750  36.7902136  50.2293634  37.7700281  37.6697946
  49.6616697  39.4824505  36.5638828  49.0235186  39.7909474  37.3787403
  49.7633934  40.2252436  35.3810453  49.1461372  41.1041546  35.2674222
  52.0409632  42.4241686  31.8746877  52.2437143  41.8959332  30.7807922
  51.8337154  43.6968422  31.9203520  51.3159895  44.0061665  32.7305198
  51.8928862  44.6051550  30.7635784  51.0859013  44.2382002  30.1293755
  51.5772581  46.1339569  31.1189365  52.4124527  46.4265490  31.7552853
  51.7564726  46.8081665  30.2814245  50.2189970  46.4999294  31.6850519
  49.1024828  46.0332394  31.0247993  49.2434120  45.5107689  30.0901532
  47.8239632  46.5510273  31.4099264  46.9880867  46.1601400  30.8487535
  47.7291203  47.4545431  32.4717093  46.4867496  47.9233170  32.8134727
  45.7288218  47.4438381  32.4710608  48.8742161  47.7764273  33.2602549
  48.8228989  48.4640980  34.0914416  50.1376867  47.2788954  32.8311253
  51.0244703  47.6154280  33.3476138  53.1851530  44.3224573  29.9502039
  53.1183386  44.3238688  28.6926317  54.3032646  43.9789963  30.6465793
  54.2164326  43.8405991  31.6432810  55.6991768  44.0583086  30.0409889
  55.6951714  43.8605499  28.9690852  56.2433624  45.4824734  30.1317620
  57.1194553  45.5898952  29.4922113  55.4165363  46.1179161  29.8144674
  56.5496159  45.8664560  31.6140413  55.6186342  45.7799530  32.1743035
  57.3477602  45.2292442  31.9948578  56.9688034  47.3228121  31.6323400
  57.7890444  47.5563955  30.9535575  56.1047220  47.8380537  31.2128329
  57.2356749  48.1201363  32.9618025  57.5426435  49.1043901  32.6080847
  56.2835121  48.1465340  33.4916949  58.3544588  47.6332474  33.8011980
  59.2233896  47.8457642  33.3322740  58.5103035  48.1847286  34.6328712
  58.4149933  46.6541672  34.0417027  56.6321325  43.0300951  30.6307697
  56.3347721  42.4160576  31.6413832  57.8539705  42.6994085  30.0590587
  58.4229803  43.1984425  28.8706064  58.8719225  44.1778135  29.0361214
  57.7250767  43.2825232  28.0375600  59.4151449  42.1530533  28.4213114
  60.1469994  42.7076626  27.8340292  58.8556814  41.4470339  27.8076029
  59.8720932  41.5494919  29.7379875  60.6923580  42.1509981  30.1297164
  60.0994110  40.5102873  29.5003533  58.6754656  41.6175747  30.6435084
  58.1217194  40.6805134  30.5854058  59.0949869  41.8335819  32.1519852
  59.0388155  42.9490852  32.6382589  59.5301771  40.7245922  32.7646351
  59.6751165  39.8987937  32.2014761  59.8827982  40.5547428  34.2267609
  59.4433355  41.3914633  34.7697830  59.2958975  39.2633414  34.8686314
  59.5728636  38.4173250  34.2396235  59.6299696  38.9207840  36.3121986
  58.8843155  38.3111835  36.8225789  60.5793238  38.3993840  36.1898494
  59.7105789  39.7791815  36.9790912  57.7824545  39.4284463  34.8299456
  57.3366547  38.4939218  35.1705837  57.6105452  40.3481150  35.3891897
  57.4494600  39.5295382  33.7969875  61.3964796  40.6363440  34.2369294
  62.0749474  39.7602081  33.6133647  61.9240427  41.5242147  35.0496912
  61.3219023  42.0405483  35.6749344  63.4069729  41.8882179  35.1441002
  64.0265512  41.3244772  34.4466639  63.7265921  43.3613443  35.0168514
  63.2629156  43.8638496  35.8657289  64.8056269  43.5142756  34.9970388
  63.1976891  43.8312006  33.6990523  62.6691628  44.9933720  33.7320280
  63.3646536  43.1835699  32.6702476  63.9604044  41.2405920  36.3743496
  64.0446901  41.8086576  37.4699688  64.4404125  40.0037193  36.1711168
  64.4485617  39.7001529  35.2078509  64.7348356  39.0588903  37.2561240
  63.8403893  39.0564489  37.8790665  64.9897909  37.6180530  36.8560982
  65.2770233  37.0982957  37.7701283  63.7005615  36.9945812  36.2493682
  62.9162741  37.4976897  36.8149471  63.5510063  37.1814728  35.1859760
  63.7806988  35.9078622  36.2761855  66.1273146  37.3970532  35.8513427
  66.2892485  36.3194537  35.8769846  65.8345985  37.7591300  34.8657870
  67.0376873  37.9099751  36.1615658  66.0296249  39.5291185  37.9700446
  66.1931229  39.1839767  39.1374516  66.8823099  40.3367043  37.2918940
  66.6609669  40.7869816  36.4153337  68.0732584  40.8139896  38.0372071
  68.4250927  39.9659681  38.6247230  69.2458534  41.2021542  37.0973039
  70.1442194  41.2431955  37.7132201  69.4519186  40.3907824  36.3992214
  69.1444778  42.4621058  36.2025690  69.3654203  43.3934927  36.7239165
  69.9532986  42.3381376  35.4824686  67.9265833  42.6889706  35.2909446
  67.2012615  41.7593575  34.9458575  67.7845573  43.9038181  34.8833394
  67.8411818  42.0059729  38.9884567  68.5908079  42.1829891  39.9196577
  66.7814255  42.7453756  38.7480545  66.3025904  42.4772120  37.9001689
  66.2296152  43.9563179  39.5060563  67.0054483  44.4057274  40.1259089
  65.6020117  44.8492241  38.4844089  65.1348448  44.2168856  37.7294230
  64.8404646  45.4865837  38.9337611  66.3566923  45.4842854  38.0204558
  65.2892590  43.4111786  40.5991793  65.1165199  44.1624069  41.5498877
  64.8038483  42.1662617  40.5259371  64.9749994  41.6613340  39.6681166
  63.8548136  41.4541340  41.4972019  63.2785797  42.1324539  42.1264410
  62.7519512  40.7729912  40.6519556  63.2337284  40.2186298  39.8465514
  62.3264551  39.9744153  41.2596798  61.7980433  41.9217968  40.0714064
  62.4241638  42.7055740  39.6450496  60.8887005  41.3575315  38.9570951
  60.0712872  40.7005358  39.2542410  60.4831123  42.2535181  38.4871888
  61.4293051  40.8145237  38.1818604  60.7993746  42.4849129  41.0278606
  60.3763485  43.3614349  40.5370808  60.0576210  41.7858553  41.4141512
  61.2791824  42.9873037  41.8677902  64.6961594  40.4266500  42.3346996
  64.1679716  39.9987769  43.3809090  65.8678770  40.0182533  41.9340801
  66.2020254  40.3557587  41.0427141  66.6441393  38.9057183  42.5213432
  67.6404905  38.8677812  42.0809603  66.7811203  38.9818215  43.6000204
  65.9624052  37.5688100  42.3377848  65.9635925  36.8282509  43.3631229
  65.4066944  37.2768092  41.1464977  65.5348444  37.8997374  40.3618717
  64.8442125  35.9104562  40.8297205  64.5507336  35.4317880  41.7639875
  63.6004257  35.9743357  39.9506617  63.8054705  36.3207555  38.9377213
  63.2283401  34.9676967  39.7600508  62.4574327  36.9244504  40.3719378
  62.7474308  37.9382873  40.0960064  61.1262131  36.6337347  39.6455121
  60.8236408  35.5903196  39.7340250  60.2960253  37.2268796  40.0290108
  61.1208677  36.7443681  38.5611558  62.1344852  36.8363643  41.8597651
  61.3353729  37.5558090  42.0384407  61.7727375  35.8460021  42.1362209
  62.9675579  37.0032096  42.5425911  65.9700489  35.1162434  40.1861000
  66.4877653  35.4586577  39.1343689  66.3724804  34.0213442  40.7194710
  65.9602690  33.7658286  41.6054153  67.5040627  33.1878734  40.2344275
  68.0314255  33.6597967  39.4054055  68.4682322  33.1461835  41.4285469
  68.0013227  32.6281047  42.2662163  69.3179131  32.5517249  41.0927439
  68.9721870  34.4634128  41.8926573  69.6896982  34.6265602  43.0254221
  69.9776697  35.9083271  43.0815697  70.4926682  36.2342715  43.9731646
  69.5283890  36.5673566  42.0385933  69.6652269  37.5081849  41.6976881
  69.0221024  35.6080818  41.1685562  68.7416029  35.7661438  40.1376629
  67.0944118  31.8392682  39.7512555  67.8680325  31.1795139  39.0092421
  65.8827591  31.3588214  40.0410795  65.2300835  31.9525981  40.5325556
  65.3666973  30.1125669  39.4825244  66.0984707  29.6472263  38.8221669
  65.2012205  29.1386199  40.6627750  64.8948812  28.1579185  40.2987957
  66.2107706  29.0351343  41.0605192  64.2477036  29.4202924  41.7363977
  63.5009480  30.3987598  41.6307735  64.1117048  28.7360024  42.8039169
  64.0626955  30.2808571  38.6436868  63.4253120  29.2997050  38.2276344
  63.6108494  31.5467358  38.4492183  64.1534185  32.2768092  38.8882065
  62.4129963  31.8323207  37.6327038  61.5372467  31.3139439  38.0231524
  62.0749140  33.3284664  37.6061320  61.8488216  33.5492754  38.6493134
  62.8890610  34.0248942  37.4054956  60.8502817  33.5936332  36.6840839
  59.5557404  33.2729650  37.0808530  59.3751955  32.7693105  38.0190110
  58.4516335  33.6925769  36.2976766  57.4824047  33.5433578  36.7501497
  58.6717033  34.2993474  35.0388789  57.6496553  34.8308063  34.2704654
  57.9168749  35.6608391  33.8689184  60.0139904  34.5621824  34.5468998
  60.2037048  35.1408029  33.6549306  61.0874176  34.2812705  35.4374957
  62.0909834  34.5578241  35.1497793  62.5364017  31.2437868  36.2187266
  61.7906427  30.3761482  35.7583547  63.7118340  31.5338397  35.5698371
  64.3552685  32.2281718  35.9219694  64.0184832  31.0430288  34.2158175
  63.0951786  31.0987139  33.6391735  65.0260592  32.0442963  33.6265111
  65.7818174  32.3868465  34.3333340  65.3829288  31.7175770  32.6497841
  64.1978788  33.5495806  33.1003237  64.0701342  33.3295083  31.7887759
  64.5393515  29.6048737  34.1998243  64.8163080  29.1181159  33.1226563
  64.6138763  28.8870025  35.3869724  64.4324446  29.3670726  36.2568665
  65.0180531  27.4954367  35.4496908  65.4998350  27.3008561  34.4915009
  65.9922266  27.4147630  36.7044997  65.5276108  27.7761817  37.6218915
  66.1741972  26.3760495  36.9802928  67.3007536  28.0917311  36.5340662
  67.3587227  29.0725136  35.8163524  68.3034515  27.6172948  37.0368743
  63.7961149  26.6619468  35.5536437  63.9013910  25.4944205  35.3523707
  62.5532293  27.2007799  35.7642817  62.5511169  28.2003856  35.9087992
  61.2826157  26.5017271  36.0937262  61.4862394  25.4324579  36.0362744
  60.7905102  26.7898440  37.5862241  60.9353065  27.8151393  37.9266763
  59.3165970  26.6160607  37.8044820  59.0760994  25.5577993  37.7027655
  58.9966011  27.0045161  38.7713361  58.7917614  27.2805047  37.1180630
  61.7267895  26.0546207  38.5692406  61.6794395  25.0225377  38.2218719
  62.7539349  26.3405418  38.3427024  61.6376591  26.1710691  40.0246716
  60.6259871  25.8759737  40.3031349  62.4336433  25.5801082  40.4777384
  61.7199183  27.2144175  40.3292370  60.2571201  26.8676734  35.0306034
  59.3689489  26.1451197  34.7141838  60.3253365  28.0567241  34.4060469
  61.0199308  28.6943245  34.7681451  59.5064831  28.4956598  33.2151365
  58.5440540  27.9889846  33.2866645  59.2868710  30.1029444  33.3648515
  60.2444267  30.5979681  33.2031655  58.3746624  30.6503773  32.1927953
  57.4048138  30.1530671  32.2057700  58.2154465  31.7152905  32.3622322
  58.8981533  30.4483366  31.2583280  58.6451864  30.5420518  34.6420884
  59.4465113  30.3546715  35.3568363  58.4816885  31.6178107  34.7061968
  57.4334002  29.6969271  35.1627445  56.8964624  30.2745247  35.9151912
  56.7526293  29.5380950  34.3264270  57.8495550  28.8274264  35.6715536
  60.1914454  28.1266260  31.8958688  61.3906670  28.4279680  31.6554332
  59.4080544  27.4543762  30.9884119  58.4406281  27.4590278  31.2785292
  59.7731209  27.0266318  29.6741486  60.7075739  26.4731216  29.7664690
  58.7626123  26.0321522  29.1233754  58.5999584  25.3563952  29.9630141
  57.8572845  26.5877938  28.8789558  59.1858864  25.3167081  27.8025389
  59.1124725  26.0069227  26.9621134  60.1404238  24.7975779  27.8889632
  58.1456041  24.3352580  27.3335814  58.0423784  23.5471368  28.0794430
  57.1544218  24.7625852  27.1817732  58.5833597  23.5823965  26.0360694
  58.8831282  24.2782187  25.2524424  59.5091820  23.0547500  26.2652946
  57.5112629  22.5690389  25.6724644  57.8167486  21.8842816  24.9957895
  57.1485853  22.0610213  26.4664960  56.7391396  23.0617237  25.2468038
  59.9942112  28.2590866  28.7919140  60.9168911  28.2313967  27.9412723
  59.0430164  29.1830850  28.8973188  58.2816505  29.0063429  29.5369911
  59.0409374  30.3458881  28.0309463  60.0783730  30.6501198  27.8921008
  58.3883238  29.9194121  26.6989303  58.9022207  29.0352106  26.3218403
  57.3519373  29.5972991  26.8001556  58.6639500  30.9838581  25.6925154
  59.8327017  30.9905648  24.9323797  59.6928167  32.0941925  24.1306353
  60.4233503  32.3692203  23.3842540  58.5256624  32.6678634  24.2552137
  58.1061363  33.4327388  23.7462306  57.8221798  32.0035052  25.2492309
  56.7766380  32.0929170  25.5046797  58.2625771  31.4580202  28.6230969
  56.9811583  31.4248443  28.5909557  58.9054251  32.5267196  29.1392279
  60.3131199  32.6038885  29.3134689  60.9148693  32.2544241  28.4744978
  60.6668091  32.0357633  30.1738429  60.6181812  34.0964317  29.5867181
  60.6480312  34.7180462  28.6918426  61.5065289  34.1486359  30.2161765
  59.3509102  34.5229745  30.3671169  59.1127062  35.5761528  30.2181888
  59.3353033  34.1950798  31.4065123  58.2690048  33.7311649  29.7340989
  57.5000048  33.4406352  30.4498696  57.4417686  34.5237875  28.6896944
  57.6582479  34.3915105  27.5275826  56.3091564  35.1177859  29.1300368
  56.1772156  35.1662087  30.1302099  55.3917980  35.7790494  28.2869744
  55.9981108  36.2823200  27.5338459  54.4275808  34.7614121  27.6511002
  54.9737740  34.0768743  27.0021105  53.7960672  34.3325233  28.4291363
  53.4685469  35.4428458  26.7497849  52.7551699  34.6862292  26.4231014
  52.7331066  36.0457754  27.2824240  54.1234636  36.3432813  25.3293729
  54.8590565  34.9634385  24.4983292  55.6438446  34.5995331  25.1614881
  54.0502787  34.2465115  24.3569207  55.3868866  35.3035927  23.6073780
  54.6531868  36.9496703  28.9942861  54.4048071  36.9227362  30.1796532
  54.4094419  38.0524611  28.2102370  54.6231890  38.0186415  27.2236919
  53.8920975  39.3608904  28.6355138  53.4698868  39.0761304  29.5992351
  54.9310684  40.4520130  28.8572478  54.4418049  41.3921452  29.1119528
  55.5596113  40.1987553  29.7110009  55.8257723  40.7264662  27.6838017
  56.6447735  39.8450971  27.2994471  55.6621790  41.8533945  27.1705508
  52.8681946  39.8896861  27.6346660  52.9633141  39.6573591  26.4237499
  51.9682884  40.7861185  28.1275821  52.0287609  41.0876465  29.0896249
  50.9544468  41.4657402  27.2518468  50.4488468  40.6105423  26.8033981
  49.9669743  42.3668242  28.0999064  50.4893780  43.1245613  28.6838841
  49.3158436  42.8800488  27.3922825  49.0799665  41.5355635  29.0364408
  48.4348440  40.8962679  28.4337616  49.6832180  40.9405136  29.7220850
  47.9784536  42.4256563  30.1709080  46.7283201  43.3233643  29.1306496
  47.1854353  44.0748930  28.4869432  46.1854458  42.5607491  28.5722446
  46.0277414  43.7806082  29.8293734  51.6614437  42.1758318  26.1447859
  51.2026262  42.1801043  25.0358486  52.7858973  42.9444170  26.2920022
  53.1960297  42.9073238  27.2142363  53.4618807  43.7250185  25.1686192
  52.6541376  44.3785095  24.8390818  54.5419025  44.6284294  25.7418585
  55.2925444  44.0019894  26.2237358  55.1359463  45.0711298  24.9423385
  54.0536880  45.5783892  26.6296935  53.7583208  45.0963593  27.4055862
  54.1612244  42.9659557  24.0368152  53.9638042  43.3198690  22.8646803
  54.6908617  41.7842293  24.3236399  55.0113916  41.6122007  25.2658582
  55.0114727  40.7580566  23.3080959  55.6547451  41.2053919  22.5503397
  55.7895279  39.6404505  23.9961147  55.1054668  39.1268635  24.6716809
  56.2066603  38.5794091  22.9381371  56.6560602  37.7643394  23.5054159
  55.3485250  38.0689931  22.5008893  56.8078852  38.9732909  22.1186948
  56.9466782  40.0480461  24.5772862  56.7728329  39.8848844  25.5072093
  53.7719154  40.1787519  22.6265788  53.8137007  40.0531483  21.4141035
  52.5993204  40.0054359  23.2946324  52.5746536  40.1482153  24.2941880
  51.3299656  39.5764399  22.6043630  51.5823698  38.7315202  21.9636559
  50.2714205  39.1084719  23.6445165  49.9577332  40.0080252  24.1741395
  48.9849567  38.6895347  22.8917718  48.5072470  39.6106124  22.5578499
  49.2478323  37.9059410  22.1811509  48.3539724  38.2000780  23.6336589
  50.8118725  38.0447531  24.5170426  51.2084389  37.1997595  23.9541745
  51.7337751  38.3496070  25.0122762  49.8714304  37.5009370  25.6003523
  50.3970671  37.1855855  26.5016627  49.2624187  38.3769798  25.8234119
  49.2106056  36.7503285  25.1667619  50.7796431  40.6039715  21.7487073
  50.3936768  40.4128027  20.6052542  50.7455587  41.8681431  22.1957088
  51.0261154  41.9099617  23.1650615  50.4681158  43.1003761  21.4746785
  49.4560575  43.1132507  21.0701227  50.5766344  44.2597008  22.4755383
  49.8515034  44.1584730  23.2830310  51.5945435  44.2845488  22.8645658
  50.2945662  45.5962944  21.8438435  50.7619047  45.5885887  20.8591390
  49.2102909  45.6821823  21.7726231  50.8737278  46.8107986  22.5971961
  50.6019211  46.7319202  23.6498141  51.9557905  46.7923784  22.4672174
  50.3711081  48.2232523  22.1396780  49.2828941  48.2856178  22.1414518
  50.7774496  48.9648151  22.8274751  50.7845163  48.5691023  20.7597423
  50.6164455  49.5345020  20.5150723  51.7814207  48.4661150  20.6345510
  50.2441072  48.0813646  20.0596213  51.3698816  43.2015800  20.1993847
  50.8040667  43.4650612  19.0950060  52.6906204  42.9021597  20.3874397
  53.0491829  42.8526402  21.3303518  53.5641003  42.8579283  19.1694915
  53.4485388  43.7917423  18.6192822  54.9946833  42.7063227  19.7353172
  55.2563620  41.7181969  20.1137853  55.6045914  42.9769802  18.8734257
  55.3483772  43.7399864  20.6389880  54.7691631  43.5372972  21.3772488
  53.2015848  41.7229939  18.2135642  53.1752110  41.9430256  16.9940579
  52.8476858  40.5216455  18.6641228  52.8188610  40.1724243  19.6113896
  52.5068903  39.4834399  17.7845061  53.3020115  39.5273638  17.0402277
  52.7400780  38.2187247  18.5485673  52.0875788  38.2089996  19.4216371
  52.2929382  37.3891258  18.0009031  54.2569256  37.9116893  18.7857413
  54.7614050  37.8304505  17.8229320  54.7175884  38.6946797  19.3880820
  54.3691349  36.6345358  19.5922530  55.4295015  36.4077950  19.7032273
  53.8872099  36.8347788  20.5492020  53.7960958  35.4365134  18.8220441
  52.7755928  35.7386589  18.5867214  54.3443441  35.3627753  17.8828478
  53.7909365  34.1085458  19.5911229  53.2446241  33.3665323  19.1775274
  54.6709633  33.6433625  19.7621536  53.5085821  34.1825485  20.5580258
  51.1655235  39.6890593  17.1185350  51.0716963  39.4855380  15.8845627
  50.2141809  40.2305746  17.8601992  50.3050613  40.4814243  18.8343227
  49.0232372  40.7439613  17.1247447  48.4437656  39.9039483  16.7417455
  47.9971313  41.2944984  18.0855608  48.4987926  41.9629049  18.7853241
  47.3974228  41.9555902  17.4599349  47.0923948  40.3289747  18.8481700
  47.6425266  39.5819402  19.4203556  46.3215113  41.2100601  19.8005474
  45.4195881  40.7752514  20.2313399  47.0235634  41.5555239  20.5594110
  46.0979509  42.1573114  19.3097973  46.1493158  39.4420719  17.9871333
  46.7738056  38.8508439  17.3173892  45.5836725  38.7006545  18.5514426
  45.4892683  40.1360655  17.4667287  49.3549156  41.7535210  15.9849298
  48.8470745  41.5119839  14.9003792  50.1354551  42.7898169  16.2643158
  50.4519606  42.8520203  17.2214246  50.4610920  43.9740944  15.3652000
  49.5278454  44.4231367  15.0253427  51.1206579  45.0629568  16.2415135
  51.6949129  44.6731234  17.0819712  51.9183254  45.6069660  15.7356608
  49.9262714  45.9013987  16.7059982  49.5567751  46.4114618  15.8163857
  49.0542650  45.3102064  16.9856405  50.2533531  46.9661283  17.8784299
  51.2440205  47.7007914  17.7793181  49.3854904  47.1463060  18.7934446
  51.2881279  43.5421085  14.1491354  50.9851933  43.9754295  13.0584455
  52.1623373  42.6143217  14.3184066  52.1820021  42.1495676  15.2149093
  52.8437567  41.8530035  13.2923055  53.3104801  42.5302219  12.5770080
  53.8222170  40.8982325  13.9985883  54.4318724  41.5783834  14.5934081
  53.2416582  40.2551365  14.6600151  54.4914198  40.3184128  13.3629191
  51.9589853  40.9750032  12.3451793  52.3094893  40.7236814  11.1747122
  50.8976507  40.3621101  12.9701602  50.7402849  40.6621981  13.9216232
  50.1156044  39.1633534  12.4749327  49.5157146  38.8496256  13.3292210
  49.1593218  39.4158459  11.3412023  49.6868086  39.7287512  10.4401195
  48.6123037  38.4799886  11.2269998  48.1296015  40.5616951  11.7294085
  48.5923052  41.3741541  12.2896898  47.8472424  40.9618235  10.7556140
  46.8957520  40.0356340  12.4610174  46.4578342  39.2010880  11.9134152
  47.1616697  39.6545339  13.4469998  45.8305502  41.0306072  12.4496555
  45.1813269  40.9585238  11.6793215  45.5679655  41.9907665  13.3222210
  46.2978172  42.2988272  14.2610276  47.2348118  41.9272995  14.3250918
  45.9453011  43.0447817  14.8435974  44.5060778  42.7530336  13.1710756
  43.8611984  42.6194954  12.4053085  44.4173050  43.6083984  13.7007713
  51.1232758  38.0106878  12.3335898  51.0939026  37.2986245  11.3336122
  51.7633915  37.7493501  13.4752607  51.6229248  38.3249688  14.2932057
  52.5490522  36.4929485  13.6078286  53.0784225  36.3646579  12.6636851
  53.6585855  36.6574144  14.6446180  54.4110060  37.3363566  14.2433643
  53.2562685  37.0210171  15.5901504  54.3371773  35.2693701  14.8599362
  55.1235723  35.4210949  15.5993044  53.7336159  34.5023847  15.3452754
  55.0711060  34.7840214  13.6411917  55.2276421  33.5580659  13.6064398
  55.4417515  35.4970717  12.7069438  51.5830278  35.3389812  13.9080274
  51.8022776  34.2890930  13.3395672  50.5324411  35.4894710  14.7482979
  50.3832626  36.3697362  15.2205074  49.3521595  34.5759630  14.7483754
  49.7450972  33.5710573  14.9028516  48.3433437  34.9925256  15.9181809
  47.8472424  35.8966541  15.5652785  47.6876974  34.1396141  16.0935974
  49.0969801  35.4265761  17.1086073  49.8547268  34.4463992  17.8770852
  49.6953773  33.4071207  17.6302922  50.4295540  34.7140217  19.1175687
  51.0036421  33.9678788  19.6468067  50.4213333  36.0433149  19.6037185
  51.1076880  36.3232112  20.7447481  51.5087271  35.5415630  21.1317801
  49.6257973  37.0238280  18.9078259  49.4274139  37.9727125  19.3839192
  48.9207792  36.6866255  17.6983249  48.1887722  37.3280072  17.2301447
  48.6202383  34.5414615  13.3654344  48.3953476  35.6422305  12.7888179
  48.1054926  33.3605766  12.9370046  48.4340239  32.5513697  13.4443033
  47.1712828  33.1878138  11.8270671  47.0220852  34.1748357  11.3893080
  47.8556633  32.3147464  10.6757021  48.8174152  32.8276277  10.6847751
  47.8768587  31.2846327  11.0314035  47.2227287  32.4096727   9.2444384
  46.1936903  32.0529652   9.2885178  47.1661949  33.4616232   8.9646000
  47.9500246  31.4795351   8.2134265  48.8347864  32.0821595   8.0081433
  48.3598566  30.5608130   8.6330700  47.1607256  31.1938190   6.9645208
  46.1862803  31.4590859   6.9508427  47.5454473  30.6032014   5.8177739
  48.7465286  30.0519061   5.7376623  49.3158627  30.0267673   6.5715253
  49.0045214  29.3727350   5.0360447  46.7976189  30.7047367   4.7320458
  45.8809185  31.1263347   4.7769019  47.1971989  30.3689051   3.8673773
  45.8092546  32.6008224  12.3273337  44.8219681  32.5615263  11.5805948
  45.7949734  32.2007918  13.5964525  46.5288305  32.6155925  14.1527772
  44.6996593  31.4918661  14.3238199  43.8245583  31.4280367  13.6771095
  45.1174831  30.0876713  14.6430004  45.8013344  30.1791120  15.4868531
  44.2375374  29.5356846  14.9733317  45.8205795  29.3656135  13.4281039
  45.0936985  29.0646434  12.4144042  47.0363188  29.1145325  13.4387612
  44.3126488  32.3268843  15.5999398  45.2905369  32.7141047  16.2979114
  43.0795002  32.6195836  15.8632147  42.2906971  32.2552705  15.3482723
  42.6849651  33.4671116  17.0135856  43.3829927  34.2906332  17.1641552
  41.2464905  33.9924741  16.7292523  41.1264515  34.5156264  15.7805669
  40.6426430  33.0942082  16.6004443  40.7779598  34.5772862  17.5208151
  42.8566742  32.6590538  18.3460045  43.0001450  33.3774447  19.3641400
  42.7074718  31.3536739  18.3488619  42.3661995  30.9176183  17.5041783
  42.9948568  30.5259657  19.5464349  42.5312519  30.9901190  20.4169154
  42.4958420  29.1320252  19.4750261  42.9691505  28.7631512  18.5650718
  42.9523039  28.6017179  20.3108001  40.8982229  29.0825224  19.3241048
  40.6363869  29.4748712  18.3414531  40.5581760  28.0472207  19.3489361
  40.2315569  29.7963238  20.4732537  40.6204271  29.7064328  21.5810657
  39.2072272  30.5227065  20.1747346  38.7307692  31.0113716  20.9192443
  39.0072680  30.6551957  19.1936350  44.4903421  30.5483174  19.8095083
  44.9405766  30.3906369  20.9678411  45.3376865  30.7692361  18.8196361
  44.9506330  30.9814858  17.9112089  46.7708397  30.9426546  19.0029407
  47.0811558  30.1717043  19.7082353  47.5446415  30.6526017  17.7359796
  47.2223377  31.3408566  16.9546187  48.5866499  30.9226251  17.9074919
  47.3589182  29.1362047  17.3303354  46.4005709  28.7467670  16.9868064
  47.8160191  29.1599512  16.3410962  48.2836437  28.2171011  18.1036508
  47.7387428  27.3663187  18.8411450  49.5499849  28.3257031  18.0405974
  47.2485495  32.2705364  19.6860301  48.2273483  32.2681642  20.4659867
  46.5202618  33.3731341  19.4973230  45.8213234  33.3255434  18.7697804
  46.6084099  34.5776892  20.4012799  47.6625490  34.8538852  20.3766465
  45.7273817  35.7316589  19.8199308  46.3418388  36.3099647  19.1299260
  44.9886465  35.2787805  19.1586673  45.0889349  36.5907764  20.9173656
  43.8026953  36.4361525  21.4790273  43.1766891  35.6913090  21.0102820
  43.2611418  37.2642207  22.4378991  42.2151375  37.2491908  22.7063227
  44.1177607  38.3180666  22.8831291  43.7713194  39.0673828  23.5794806
  45.3906107  38.5245657  22.3449492  45.9449911  39.4048476  22.6350760
  45.8758354  37.6247430  21.3985705  46.8157959  37.8134727  20.9013271
  46.2209558  34.2257428  21.8235111  46.8707561  34.5963836  22.7906489
  45.0829220  33.5658622  22.0456076  44.5716810  33.3012676  21.2157154
  44.5657301  33.0856562  23.3285141  44.1985178  33.8508511  24.0124226
  43.7657690  32.3820496  23.0980754  45.5543613  32.2354436  24.1096878
  45.6586361  32.3812556  25.2883482  46.3702965  31.4946651  23.3522296
  45.9731722  31.1751318  22.4802828  47.4285936  30.6420851  23.8723421
  46.9671774  30.1725364  24.7410893  47.8766155  29.5671535  22.8668404
  48.2992172  30.0912094  22.0095873  48.6339951  28.8585043  23.2019424
  47.0250750  29.0460491  22.4293208  48.7108707  31.2686110  24.4053555
  49.3660975  30.7748199  25.3544950  49.0144014  32.4706817  23.9748359
  48.5070610  32.7868295  23.1607366  49.9712563  33.3733296  24.6514106
  50.7099581  32.7476621  25.1523662  50.7775736  34.3099737  23.7210560
  50.1763630  35.0935030  23.2598376  51.4068842  34.9561000  24.3330956
  51.6584778  33.5466647  22.7161980  51.8814230  32.3322320  22.8693461
  52.1834421  34.1636086  21.7533088  49.3591309  34.0717959  25.8963609
  50.0202465  34.2966127  26.9632363  48.0291605  34.3274641  25.9243226
  47.4640751  34.1048217  25.1173472  47.4502277  34.8377728  27.1423888
  48.2066917  35.5593371  27.4509430  46.0583162  35.3997374  26.8527055
  45.4020214  34.5785260  26.5646172  45.4766178  36.0865068  28.0785942
  44.5072937  36.5087175  27.8135490  45.1345587  35.4028845  28.8556123
  46.1952066  36.8243504  28.4354091  46.1999416  36.5046668  25.7781482
  45.2149630  36.9194770  25.5640531  46.8327808  37.3131061  26.1442709
  46.5795565  36.1052847  24.8376799  47.4601078  33.7378597  28.2244468
  47.9012394  33.9067054  29.3563437  47.0894623  32.5457072  27.8347445
  46.9140673  32.5023794  26.8410349  47.0441914  31.3020134  28.6783528
  46.5560865  31.6162443  29.6009111  46.3148546  30.1417708  27.9478526
  46.7991972  30.0913739  26.9726729  46.4690590  29.1802955  28.4376359
  44.8227596  30.5276060  27.7555251  44.7113276  31.5676999  27.4491167
  44.4138050  29.9237037  26.9454908  44.0469074  30.2862644  29.0125680
  44.1921759  29.2452073  29.3010092  44.4201374  30.9694481  29.7755027
  42.6161385  30.4863954  28.8999915  42.1351385  31.0011315  29.6237254
  41.6980696  29.8607349  28.1762981  42.0538950  28.9041829  27.4959373
  43.0457306  28.7520885  27.3809218  41.4245510  28.3784795  26.9063067
  40.4331303  30.1289272  28.2220459  39.9707508  30.7256031  28.8930798
  39.8513389  29.4909072  27.6980710  48.4786892  30.9929347  29.1690111
  48.6712265  30.6082392  30.3137136  49.4778156  31.1643648  28.2947135
  49.3454123  31.7237544  27.4642587  50.9049797  31.0691047  28.8133359
  51.0478497  30.0795841  29.2475557  51.7309570  31.2886500  27.5263929
  51.4066505  30.6496024  26.7050886  51.6606712  32.3133922  27.1616173
  53.2312679  31.0231233  27.7572274  53.7289953  31.7949224  28.3443332
  53.6347628  29.7330570  28.4217858  53.4197044  28.8591385  27.8068733
  54.6515083  29.9280167  28.7628365  53.1196022  29.6277833  29.3765783
  53.8833094  31.0137844  26.3581944  54.9690437  31.0844707  26.4235973
  53.4815407  30.1378822  25.8488059  53.4115124  31.8620777  25.8623028
  51.2518215  32.0182180  29.9192023  51.9329453  31.5475106  30.8144045
  51.0504103  33.3173800  29.7450209  50.6486464  33.6606359  28.8842893
  51.3596582  34.4041562  30.7117105  52.4341536  34.5484924  30.8245564
  50.6890392  35.6575441  30.1895499  51.0473108  35.8825111  29.1849947
  49.6217966  35.4736137  30.0659633  50.9001350  36.8853545  31.0192299
  50.4208755  36.6412616  31.9672990  51.9606543  37.1149778  31.1225724
  50.1705456  38.3877850  30.4020715  48.4306431  38.2175660  30.6030440
  48.0549717  39.0947962  30.0763154  47.9602671  37.2887015  30.2804613
  48.1095648  38.3346558  31.6380787  50.9388876  34.0209341  32.1683407
  51.6689110  33.9291024  33.1596732  49.6079779  33.6959362  32.2306371
  49.0666676  33.8485742  31.3917160  48.8631535  33.3267331  33.4515762
  48.9239407  34.0673018  34.2490506  47.3345518  33.2618952  33.0854154
  47.2284126  32.6214647  32.2098112  46.8751860  32.7227235  33.9139009
  46.5017605  34.5051122  32.7919030  46.6997957  35.7524943  33.4810233
  47.3412848  35.6976652  34.3481374  45.9595346  36.9587731  33.2372165
  46.1441278  37.8737283  33.7805271  44.9716187  36.9421887  32.1830726
  44.4433880  37.8552032  31.9511747  44.7940588  35.7582855  31.4255047
  44.0305710  35.7986689  30.6627131  45.5886602  34.6084714  31.6939712
  45.4971170  33.7534094  31.0406017  49.4024515  31.9519997  34.0185118
  49.7705221  31.8895388  35.2065706  49.4720459  30.8898354  33.1847048
  49.2216539  30.9950995  32.2119117  50.0696039  29.5617294  33.4090614
  49.5220184  29.1141963  34.2384982  49.8752594  28.6806750  32.1515107
  48.8139009  28.6134648  31.9125509  50.3929949  29.1660452  31.3241839
  50.3577137  27.3434782  32.1713614  51.3024378  27.5028348  32.1104836
  51.5590286  29.6478391  33.9582539  51.8582630  28.9548469  34.9447894
  52.4134731  30.5005360  33.4985948  52.3152161  31.0256147  32.6414275
  53.7082291  30.7885575  34.1178346  54.3373871  29.9299049  34.3523121
  54.5229530  31.7513013  33.2511067  53.9859104  32.6723909  33.0246520
  55.4225111  32.0913529  33.7641954  55.0061035  31.1708713  32.0017600
  54.8681068  29.9605107  31.7333722  55.6984472  31.9397092  31.1928463
  56.0996628  31.5747547  30.3408265  55.8896542  32.9030681  31.4283943
  53.6292505  31.3320279  35.5801845  54.2651892  30.8751225  36.5134239
  52.7896929  32.3681521  35.7774186  52.3313999  32.7455544  34.9603295
  52.4970198  32.9968023  37.0337200  53.4240675  33.4213090  37.4190497
  51.5656519  34.1256356  36.8611979  51.9264126  34.7745275  36.0631418
  50.6097698  33.7043071  36.5499616  51.4033651  35.0664139  38.4294701
  50.6363630  34.1196108  38.9773417  52.0496655  32.0034790  38.1059909
  52.5751686  31.9067788  39.2507195  51.2226963  31.0246229  37.7545261
  50.8048105  31.0414815  36.8351865  50.7873964  29.8712969  38.5510731
  50.4285622  30.1005244  39.5544624  49.5259333  29.2011023  38.0324650
  49.6489573  28.6931586  37.0759320  49.1968393  28.4153748  38.7124920
  48.3532763  30.1052570  37.6841617  48.0424023  31.2573099  38.4233499
  48.6905766  31.5196776  39.2464137  47.0742941  32.1642542  37.9834199
  46.9346428  33.1077456  38.4900999  46.2913036  31.9122148  36.8518090
  45.4374695  32.9047632  36.3973260  44.7509718  32.6268959  35.7864976
  46.5915251  30.7835388  36.0507798  46.1470127  30.6651354  35.0736451
  47.5988722  29.8729086  36.4963627  47.7711296  28.9787817  35.9156179
  51.8157005  28.7771749  38.7466574  51.8797588  28.3141398  39.8454714
  52.7118874  28.4936070  37.7536511  52.5435781  28.9682460  36.8781567
  53.7850618  27.5218439  37.8068900  53.3811951  26.5355945  38.0356026
  54.4725513  27.4437356  36.3915443  53.7180281  27.2325516  35.6337881
  55.1230526  28.2452130  36.0414076  55.3006506  26.0856676  36.5520549
  55.8452845  26.0570931  37.4958014  54.6250629  25.2325916  36.6148949
  56.1725521  25.7479596  35.3901386  55.5071068  25.6276560  34.5352626
  56.8145657  26.6216922  35.2783060  57.0961380  24.5239234  35.6641746
  57.8458166  24.4744802  34.8744655  57.5769186  24.7098351  36.6245842
  56.4641237  23.2117510  35.5822420  55.9867096  23.1859636  34.6925688
  57.0295858  22.3749018  35.5888367  55.7279873  23.1170654  36.2672496
  54.7321463  27.8580689  38.9321017  55.0375938  27.0115447  39.7126150
  55.2169323  29.1222906  38.9430237  55.0809431  29.7146869  38.1363797
  56.3324261  29.6137023  39.8379731  57.0909691  28.8386774  39.7282124
  56.9399738  30.9028673  39.1990805  57.1553755  30.6834674  38.1533432
  56.2558317  31.7400169  39.3377662  58.2563972  31.2813711  39.8790598
  59.4098186  30.5369949  39.6625352  59.4842005  29.7146797  38.9663577
  60.6073380  30.8085942  40.3700590  61.4968395  30.2073908  40.2528381
  60.6836271  32.0200348  41.1122608  61.8696308  32.4381590  41.5913057
  62.4418545  31.6697860  41.5298748  59.5590305  32.9026890  41.1190033
  59.6909237  33.8392735  41.6403627  58.3215475  32.4510908  40.6157827
  57.4281073  33.0078840  40.8569193  56.0490608  29.7988605  41.3389015
  56.9222212  29.7259068  42.2238874  54.8265648  30.0576282  41.6602468
  54.0992594  30.1017642  40.9608364  54.3035030  30.6350589  42.9164982
  55.1354742  30.8804941  43.5765696  53.6660099  32.0047307  42.6531124
  52.8025007  31.9171524  41.9937325  53.4232664  32.3703504  43.6508560
  54.6339989  32.9175067  42.0006323  55.6095171  33.2595944  42.6818562
  54.5415497  33.2316399  40.7358074  55.1204443  33.9478588  40.3210592
  53.7250948  32.9698920  40.2019548  53.2715988  29.7597980  43.7379646
  52.4317074  29.1539669  43.0443335  53.2107306  29.7695470  45.0813580
  54.1571856  30.3662086  46.0239840  54.0338612  31.4288640  46.2329197
  55.2030277  30.2227402  45.7524490  53.9600706  29.6457195  47.3681211
  54.2458630  30.3515339  48.1480265  54.4923401  28.6976957  47.2903633
  52.5082541  29.4329762  47.4574375  52.0814419  30.3897715  47.7582407
  52.2195530  28.5977864  48.0955696  52.2099066  29.0610385  45.9692144
  52.1929884  27.9855180  45.7929420  50.8676434  29.5445275  45.6377506
  50.5920362  30.6472373  45.1804733  49.8860884  28.5907769  45.7415485
  49.9363470  27.2527409  46.2953472  50.4670525  27.3392892  47.2434855
  50.4203892  26.6268253  45.5456591  48.4957886  26.8188524  46.5307903
  48.1657982  27.2757125  47.4637890  48.3930874  25.7375860  46.6225481
  47.8531599  27.4564195  45.3166151  46.7887878  27.6484299  45.4520655
  47.9819393  26.8104744  44.4481277  48.5695076  28.8251448  45.1651716
  48.5952520  29.0526628  44.0994883  47.7035904  29.9550533  45.8633518
  46.6933203  30.4049754  45.2715921  48.0437517  30.3617787  47.0819998
  48.8090611  29.8641992  47.5142288  47.4629307  31.4491105  47.8801346
  46.5541029  31.7824030  47.3790836  47.0169830  30.8807111  49.2670250
  46.3051558  31.5453410  49.7565985  46.3873911  30.0138354  49.0664101
  48.1727219  30.3787613  50.1355648  48.0184174  30.5122733  51.3415241
  49.1801167  29.7474480  49.6574163  48.4595394  32.6272917  47.9230738
  48.3265972  33.4639597  48.8182259  49.4472170  32.6675224  47.0286512
  49.4122839  31.9096780  46.3619089  50.2024078  33.8769698  46.7193317
  50.5302429  34.3054724  47.6664352  51.5615225  33.5705447  46.0027456
  52.0504808  32.7745271  46.5643311  51.3051462  33.2479906  44.9936199
  52.5417948  34.7481942  45.9809351  52.3658371  36.0615134  45.4198647
  53.5260439  36.6374111  45.5609512  53.7061262  37.6896834  45.3975534
  54.3555403  35.7733512  46.1065245  55.3033924  36.0392427  46.3323307
  53.8003159  34.5877481  46.4006138  54.2420435  33.7572622  46.9312477
  49.3064022  35.0348926  46.1693907  48.3109045  34.8224878  45.4686069
  49.5913267  36.2905955  46.5821409  50.3843069  36.4082575  47.1965075
  49.0274143  37.5915098  46.1942053  47.9557037  37.4843216  46.3616657
  49.5021772  38.6921215  47.1720743  50.5106115  39.0184212  46.9177389
  48.8387918  39.5305920  46.9599724  49.2407799  38.3910251  48.6673450
  49.2522573  39.3680096  49.1505337  48.2473564  37.9578233  48.7837029
  50.2531862  37.4507689  49.3759012  51.1489820  36.8469882  48.6442518
  50.0499439  37.1304274  50.5305672  49.1928148  38.0047011  44.7157717
  48.2568789  38.6418557  44.2233849  50.3441668  37.6905966  44.0619230
  50.9619379  37.0316625  44.5138788  50.4686308  37.7812648  42.5907087
  50.0332308  38.7427545  42.3185539  51.9373989  37.8817248  42.1103954
  52.4204063  38.6369205  42.7304602  52.6906157  36.5351200  41.9797421
  52.6135635  35.9995198  42.9259443  52.2104454  35.8732057  41.2590456
  53.7288857  36.6709638  41.6770124  51.8205261  38.5694933  40.7068682
  51.3274002  39.5400310  40.6522655  52.8238344  38.5449219  40.2815771
  51.2152910  37.9538846  40.0414228  49.5937014  36.8378401  41.8537951
  49.0216780  37.1383667  40.8222532  49.3369913  35.6382513  42.4075031
  49.8829937  35.3982925  43.2226133  48.3658218  34.7217894  41.9460535
  48.5151434  34.5111108  40.8870840  48.5464621  33.3344078  42.5860786
  48.5005665  33.4837484  43.6648226  47.5389624  32.2068119  42.3471594
  47.7262926  31.4218283  43.0798340  46.5272522  32.5868130  42.4890947
  47.7488184  31.9114757  41.3191319  49.9768972  32.8310108  42.2411919
  50.0124502  32.6074529  41.1749601  50.7714653  33.5191846  42.5295973
  50.0866604  31.9115114  42.8161430  46.8790388  35.1920748  41.9831467
  46.1378145  34.9610233  41.0193348  46.5622616  35.9071851  43.0517006
  47.2951317  36.1239815  43.7120008  45.3419018  36.7188048  43.0706549
  44.4851542  36.0825801  42.8486156  45.1332998  37.2526097  44.4842625
  46.0284042  37.6058722  44.9962044  44.3341494  37.9938531  44.4885445
  44.7700357  36.3865757  45.0375509  45.3405428  37.8233242  41.9797230
  44.2662096  37.9979157  41.3184977  46.4498520  38.6378646  41.8527365
  47.2022629  38.6657381  42.5259447  46.5285110  39.6387482  40.7244968
  45.7118177  40.3549099  40.8151817  47.8123045  40.4932213  40.8291388
  48.6618710  39.8495603  41.0572720  47.8573179  41.1343336  39.9487686
  47.7279711  41.5732431  41.9259453  46.8404865  42.2021198  41.8553591
  47.7034330  40.9881115  42.8452492  49.1472435  42.6843309  41.9086599
  48.4655094  43.9078331  43.0623007  47.7830029  44.5806980  42.5431204
  47.8197193  43.5110092  43.8456202  49.2685986  44.4764566  43.5311460
  46.3753700  38.9455771  39.3627167  45.6224918  39.4348669  38.5385156
  47.0484781  37.8565836  39.0803981  47.6515293  37.5118470  39.8136020
  46.9584703  37.0244980  37.9146099  47.3921204  37.5903463  37.0900702
  47.7999067  35.8119321  38.1298494  47.3987055  35.0807381  38.8316298
  47.8305483  35.2730036  37.1828961  48.8145971  36.0235500  38.4670758
  45.5656528  36.5972209  37.5297189  44.9783897  36.8736267  36.4691114
  44.8411703  36.0004091  38.4484458  45.3633213  35.8770156  39.3041515
  43.4467506  35.4919291  38.4266591  43.4737301  34.7874475  37.5953460
  43.1200409  34.7003174  39.7141504  43.5914707  35.2094650  40.5547571
  42.0539808  34.5429683  39.8780417  43.7101221  33.2916880  39.5344663
  43.3829260  32.8677988  38.5850668  44.7948265  33.3920336  39.4964242
  43.2911539  32.3294377  40.7336521  43.3503056  32.8138065  41.7083263
  42.2727537  31.9456291  40.6732035  44.1982794  31.1697531  40.6355810
  44.7450399  30.9691167  41.4607477  44.3643475  30.2729082  39.6867847
  43.7005663  30.2466679  38.5358596  43.0199909  30.9642553  38.3309555
  43.7053967  29.4990516  37.8567815  45.2158785  29.3167520  39.7753024
  45.8246183  29.2776418  40.5802917  45.4922295  28.8264227  38.9366674
  42.5017118  36.6540384  38.1081462  41.5875149  36.4774609  37.3020935
  42.6463413  37.8082347  38.8293743  43.3568382  37.7785468  39.5466042
  41.7108393  38.9665413  38.6093712  40.6476736  38.7432957  38.6984491
  41.9473696  40.0864792  39.6213984  41.8361473  39.6794176  40.6264019
  42.9867935  40.3873491  39.4903517  41.1057854  41.3187838  39.4840169
  41.5925884  42.0956564  40.0735807  41.0474920  41.6277790  38.4403563
  39.7046542  41.0585356  40.0004244  39.1924429  40.2582645  39.4662809
  39.6634293  40.8731604  41.0737562  38.9681125  42.3264074  39.6482348
  39.2916512  43.1616831  40.2693129  39.0219879  42.6275730  38.6020517
  37.5815582  42.0654964  39.9585271  36.9717503  42.8692532  39.9115920
  37.0757985  41.4052153  39.3855143  37.3867202  41.7809486  40.9078264
  41.7454147  39.4487810  37.1475220  40.7026005  39.5333600  36.4964557
  42.9236746  39.6606517  36.6155767  43.7008953  39.5879769  37.2564697
  43.1970024  39.8294783  35.2057505  42.6041555  40.7133484  34.9703693
  44.6789360  40.1326799  34.9155378  45.1143408  40.9096861  35.5438566
  45.1975012  39.2137480  35.1889491  44.9869823  40.6097746  33.4834743
  44.7063732  39.8284054  32.7772021  44.1987848  41.9024849  33.2104087
  44.7341394  42.5659275  32.5311899  43.1976652  41.6308975  32.8755927
  44.0179157  42.5116062  34.0960479  46.4719439  40.9294796  33.3704782
  47.0227861  40.0087738  33.5627460  46.7136002  41.2522030  32.3577833
  46.7131090  41.7439127  34.0535903  42.6438046  38.6757755  34.2943764
  42.1455622  39.0166521  33.2052302  42.7595234  37.3853827  34.6921611
  43.1434870  37.1639204  35.5997014  42.1528482  36.3598132  33.7906265
  42.4804544  36.4781761  32.7577806  42.7938700  35.0770664  34.2664218
  43.8281584  35.2222610  33.9545441  42.8023338  34.8439884  35.3311753
  42.0797682  33.9593172  33.5665011  41.0587692  33.9716363  33.9479685
  42.2742939  34.2754459  32.5416493  42.7933073  32.5271010  33.6882448
  43.4189463  32.1464562  34.7116709  42.6077175  31.7007399  32.6433086
  43.1954479  30.8801317  32.6075435  41.8621397  31.7849398  31.9671988
  40.6045914  36.4350271  33.6870360  40.0072479  36.3884377  32.5969005
  39.9655175  36.8020082  34.7850609  40.4916573  36.8805099  35.6436157
  38.5674453  37.2015381  34.9619031  38.0741167  36.2895799  34.6256590
  38.1505609  37.3448420  36.4403939  38.3195305  36.4726949  37.0719886
  38.6635804  38.1930351  36.8936992  36.6424775  37.6425362  36.5973711
  35.7295847  36.8139911  36.2446809  36.2453771  38.7642312  37.0632887
  38.0102801  38.3152127  33.9929485  36.9117951  38.2566428  33.4493351
  38.8150001  39.3684244  33.7696910  39.6371174  39.4778490  34.3461061
  38.6531520  40.2953339  32.6246715  37.7348924  40.8213902  32.8857565
  39.8530889  41.3304043  32.5785470  40.8237123  40.8897734  32.3508763
  39.5256495  42.4348211  31.5690899  38.6690092  43.0523396  31.8391633
  40.3815651  43.0824423  31.3791037  39.2927504  42.0972681  30.5591822
  39.9318504  42.1342707  33.9040089  40.6083107  41.6447878  34.6046638
  40.3876209  43.0716419  33.5850835  38.9403272  42.1784115  34.3546009
  38.6087966  39.6088362  31.2762594  37.7342772  39.7681880  30.4772973
  39.6327019  38.8797116  30.9626937  40.3829670  38.8047910  31.6347027
  39.7681475  38.1935072  29.7490668  39.8048711  38.8857865  28.9079356
  41.1901760  37.4858475  29.7591305  41.8949461  38.3127189  29.8467779
  41.2245750  36.8648291  30.6542563  41.5494776  36.5380573  28.6839414
  41.7260981  37.0193315  27.3610163  41.5446758  38.0581808  27.1280384
  42.1143675  36.1469173  26.3358879  42.1630955  36.5271068  25.3261900
  42.4689531  34.8368144  26.6443014  42.8909826  34.2214108  25.8635497
  42.2578812  34.3012094  27.9526520  42.5357199  33.2896471  28.2094693
  41.7837381  35.1845956  28.9213562  41.6955996  34.9373436  29.9689722
  38.6358213  37.1782041  29.4546151  38.1054091  37.2496438  28.3658624
  38.3720183  36.2104583  30.3469396  38.7505317  36.3349986  31.2750149
  37.8397942  34.8521996  30.0465584  38.3905077  34.3006635  29.2845726
  37.9455614  33.9998031  31.2947583  37.5536537  34.5954132  32.1192336
  37.2209597  33.1879950  31.2313509  39.2567325  33.3462739  31.6689277
  40.1183224  34.0138674  31.6781950  39.2201447  32.8815961  32.6542377
  39.6720171  32.3153138  30.6268930  40.8129454  31.7223358  30.6816912
  38.8627028  32.0052171  29.6840000  36.4049244  34.9278951  29.5560169
  36.0162067  34.2384553  28.6053395  35.5514503  35.6872654  30.2843094
  35.8103013  35.8617687  31.2448525  34.2426133  36.0680699  29.7307086
  33.6906838  35.1288009  29.6953511  33.5654020  37.0030117  30.7518601
  33.1320333  36.4129019  31.5593648  34.2791748  37.6973915  31.1951065
  32.3327208  37.7251792  30.2514052  31.7929006  37.0389867  29.5988441
  31.6572666  37.8256154  31.1009812  32.5445056  39.3111873  29.4609022
  32.3566914  40.3963518  30.8989072  33.0699062  40.0776005  31.6590571
  32.5541377  41.4105797  30.5518293  31.3419008  40.3579521  31.2949228
  34.3200135  36.6845012  28.2920647  33.6654854  36.2496448  27.3731518
  35.2049708  37.6913762  28.0950260  35.6120872  38.1584764  28.8926315
  35.2954721  38.4162879  26.8365574  34.2831039  38.6864924  26.5362191
  36.1401129  39.7297406  26.9858098  37.2113347  39.5512152  27.0791388
  35.9711432  40.2882767  26.0651660  35.5924988  40.5953026  28.1387520
  34.5314050  40.7819939  27.9734421  35.6098366  40.1299715  29.1242790
  36.4295173  41.8236780  28.4024119  37.4129200  41.6071367  28.8196993
  36.5498114  42.2956705  27.4272919  35.7540011  42.8342915  29.1957140
  35.1630998  43.4882402  28.7024760  35.3408265  42.6209402  30.4554582
  35.4797602  41.5893412  31.1897039  36.0435033  40.8402443  30.8139968
  35.5077934  41.8150187  32.1737671  34.5447755  43.4833622  30.9035254
  34.4670582  44.4052076  30.4982376  33.9840961  43.2589149  31.7130709
  35.7784963  37.5496960  25.6889343  35.2647853  37.6173854  24.5834637
  36.7096758  36.6283488  25.9690499  37.0473313  36.7239952  26.9161201
  37.3143864  35.5418372  25.1482797  37.5798869  35.9373546  24.1678834
  38.5638046  35.0066471  25.8151293  39.0521240  35.9292555  26.1288762
  38.4161186  34.4472575  26.7389107  39.4387007  34.2475533  24.8350978
  39.6578789  32.9161024  25.0132370  39.2471218  32.4675751  25.9057093
  40.3236628  32.1142626  24.0380359  40.4209185  31.0422277  24.1257310
  40.6755447  32.6854849  22.8396988  41.2617779  32.1896410  22.0801687
  40.6463194  34.0962172  22.7095819  40.9922457  34.5069861  21.7725635
  39.9375892  34.8865867  23.6868429  39.8192787  35.9423757  23.4926271
  36.2903714  34.4262505  24.8303175  36.1750436  34.0359354  23.6943054
  35.3894448  34.0770292  25.7936263  35.5109644  34.5025182  26.7015338
  34.2481112  33.1858349  25.5085230  34.6624494  32.3536682  24.9393749
  33.6508822  32.6402402  26.7484236  32.6002145  32.4271154  26.5515137
  34.1725159  31.7327189  27.0523977  33.7229514  33.3954334  27.5310969
  33.1710744  33.8413787  24.6105480  32.5742984  33.2290459  23.6723495
  33.0500484  35.1598954  24.7117233  33.5584116  35.6352711  25.4436278
  32.1472073  35.9601855  23.8146162  31.2103343  35.4942560  23.5091996
  31.6805458  37.1638227  24.5051408  32.5339556  37.5943494  25.0290132
  31.2234616  37.9001832  23.8441229  30.7366467  36.7690158  25.6242776
  29.8617697  36.2989450  25.1751351  31.2692118  36.0661674  26.2649608
  30.1625490  37.9248047  26.4075780  30.9409642  38.6349154  26.6867137
  29.3966389  38.4515834  25.8383799  29.4869518  37.2678828  27.6206613
  28.8616180  36.4372158  27.2934747  30.2108097  36.8010926  28.2886696
  28.7081552  38.3587170  28.3231568  27.9543114  38.5971093  27.6946735
  28.3312535  38.1225467  29.2299485  29.2898536  39.1509867  28.5556102
  32.7913928  36.3237143  22.4474955  32.1117687  36.9075584  21.6445160
  34.0127277  35.9167600  22.1181226  34.6569037  35.4588580  22.7469802
  34.6704841  36.3576341  20.8322811  34.6409917  37.4472117  20.8248162
  36.1770272  35.8875370  20.8101726  36.7146349  36.6745043  21.3390994
  36.3170218  34.9973631  21.4234352  36.8519449  35.6646800  19.4031823
  36.6587663  34.6809149  18.9754140  36.3415575  36.4367270  18.8273776
  38.6161375  35.7958889  19.1916418  39.0334272  34.1200638  19.7139001
  40.1041222  33.9191389  19.7506154  38.6679006  34.0119815  20.7350802
  38.5344315  33.4514737  19.0124083  33.9056230  35.7216311  19.6225965
  33.5893202  34.5205784  19.7098935  33.6463356  36.4163065  18.4353948
  33.7120962  37.8702211  18.2197762  34.7105026  38.2731271  18.3899271
  33.0956221  38.3736634  18.9645028  33.1388593  38.1672239  16.7778349
  33.9152217  38.3255696  16.0293114  32.5659227  39.0884471  16.6720450
  32.2016549  36.8907499  16.5979099  31.9879270  36.7470407  15.5387735
  31.2921453  37.1283364  17.1496749  32.9581714  35.7644629  17.2918975
  32.2382188  35.0567913  17.7029634  33.7988925  34.9504304  16.3003719
  35.0472593  35.1664829  16.2730885  33.2535648  34.1141009  15.4143953
  32.2999573  33.8973165  15.6668603  33.9272261  33.2040167  14.4201660
  34.8589373  32.7888513  14.8044229  33.1254601  31.9227743  14.3338776
  33.0500937  31.4350438  15.3057551  32.2056103  32.2695947  13.8630366
  33.5955048  30.7968330  13.3792984  33.0779076  29.6526456  13.4977555
  34.3925786  31.0487509  12.4213338  34.0420842  33.8964033  13.0145204
  33.1395054  33.7565851  12.1573007  35.1015186  34.4454789  12.7694011
  44.7179985  38.9348769  48.6119223  48.4239340  42.0068884  49.2173624
  44.3042374  36.2979531  48.1523037  43.5935307  37.5536203  48.1458044
  45.6517506  38.7000370  49.7053909  56.3988256  38.1987691  42.6299429
  57.5710583  35.8068752  45.2550268  56.5669680  39.6879005  38.1177306
  46.5120745  39.6868420  50.1921225  56.4827108  35.4807448  40.1190042
  59.2347765  37.0027232  44.2026949  44.6613312  40.1865482  48.0462217
  55.8375454  35.4584026  38.8578510  47.5228024  43.2525587  47.5273752
  45.5052567  41.2299967  48.4821939  55.7635260  37.5353742  39.7249699
  42.6812124  37.8653836  47.0071411  46.3482523  40.9304428  49.5508337
  42.6648283  37.0615196  49.4260025  47.2197628  41.9753647  50.0858164
  42.3029661  36.8607092  52.4107933  48.4298515  42.5651121  47.9349661
  39.6734309  38.8536477  55.7939720  49.5701647  42.1520472  47.0277596
  50.8884764  42.3108149  47.4610043  51.8980265  42.0107222  46.6545486
  49.2447758  41.6700411  45.7018948  50.3694820  41.3008356  44.8744535
  51.6920090  41.5632582  45.3063869  52.8357601  41.1062813  44.4554186
  52.8762484  41.2308931  43.0752850  53.9059639  40.7417345  42.3043299
  54.8862648  40.0090790  42.9128218  55.8790016  39.2351389  42.0626736
  57.1640301  37.1988320  41.8936634  57.4232006  35.9956694  42.8575373
  58.1947994  36.3924527  44.1712713  58.2473516  35.8285451  46.4983702
  56.4680910  36.7344451  40.5936623  55.5841494  36.7455196  38.5823417
  54.8386669  37.0368505  37.2848988  56.1567497  38.8509059  39.5906472
  56.2589502  39.5829439  40.7084799  56.7490959  40.9080696  40.3985357
  57.0035791  41.8897247  41.4885569  57.0198107  41.0436249  39.0727472
  57.3926353  42.3134375  38.4378338  54.9827337  39.9374008  44.2736912
  53.9544058  40.4943037  45.0929451  41.8224669  37.8585720  50.1926756
  41.0597277  38.9086699  49.5972490  40.3197479  39.7707295  50.4493761
  40.0971556  39.6217155  51.9008207  39.2704725  40.6142855  52.7607393
  40.7741356  38.4429121  52.3642874  41.6295099  37.6914716  51.5815115
  41.7589998  36.8407845  53.7324238  40.8644438  37.8936768  53.7110424
  40.1534033  38.3631349  54.8200846  45.7087612  37.7506399  50.2295971
  47.1445036  39.5881104  51.0694361  43.9972639  40.4047298  47.2150707
  45.4606819  42.2413111  48.0889130  46.7681456  42.9653406  49.9473095
  47.5916004  41.8210983  51.1061764  49.2129421  41.4286184  49.4804955
  51.1112738  42.5916147  48.4861422  52.9442930  42.1159220  46.9259501
  48.2316065  41.4343500  45.3899193  50.1236725  41.0106897  43.8572073
  52.0916986  41.8084717  42.5954199  53.7851095  40.7304811  41.2251377
  58.1504774  37.5510097  41.5679646  58.0297852  35.1880002  42.4316502
  56.4869690  35.5178332  43.1686544  57.7544594  35.1250410  47.1805191
  59.2981672  35.5623388  46.3306713  58.1621408  36.8080640  46.9846535
  54.3106794  36.1184001  37.0032334  54.1053534  37.8511715  37.2567821
  55.5375242  37.2979164  36.4817214  57.4337673  41.3267565  42.3250198
  57.5922108  42.7789021  41.2345266  56.0845327  42.3288059  41.8938112
  57.6366901  42.1594572  37.3802972  56.5403986  42.9952192  38.5403848
  58.2264471  42.7588511  38.9928269  55.7808018  39.3002057  44.6431065
  54.1113663  40.6253576  46.1595201  43.2817841  36.3512206  49.7988129
  40.8041477  38.9469671  48.5424471  39.6368742  40.4876184  50.0031090
  38.5256457  40.1053047  53.3835030  39.8651433  41.3283062  53.3422899
  38.6535358  41.2543917  52.1194029  43.1426954  36.3898015  52.1071577
  42.0669794  36.3245654  54.6307611  26.3781977  43.9421463  33.8658381
  72.9461809  47.6716043  36.2954977  72.2084423  48.2363309  36.0651472
  72.6319786  46.7842980  36.1217287   2.4204912  30.6110986  17.1670512
   1.6131821  30.5101110  16.6627768   2.9277983  31.2601014  16.6795424
  49.7627779  57.9989351  13.1099013  49.0704056  58.3112253  13.6924198
  49.6139690  58.4671940  12.2884301  22.0865713  73.3059906   1.9403988
  21.6916930  73.2735637   2.8117520  21.8360602  72.4768770   1.5329034
  10.7515036   8.4338083   6.1580876  10.9410774   8.9793148   6.9214466
  11.5658604   7.9576626   5.9957770  71.2473818  58.3452572  12.3930624
  70.8752676  59.1741385  12.6942566  72.1694847  58.3907880  12.6458147
  58.7341591  50.1208879  13.8028220  58.9634462  50.0883915  12.8740576
  59.4925877  49.7453727  14.2500428  62.5553318  72.3028673  35.1974753
  62.0074221  72.7050008  35.8715037  62.8179451  73.0320729  34.6357611
  66.9801613  52.9559912   6.4188126  67.2432467  52.2606076   7.0216921
  67.0489784  53.7591793   6.9349364  15.6688343  17.5015583   9.4306401
  15.0189053  16.8365231   9.2035988  15.6764733  17.5120678  10.3877524
  27.6701012  51.0407187  18.1374338  28.3099499  51.5879275  18.5928324
  27.3690071  51.5814914  17.4072626  79.4827955   6.0916701  25.2899721
  79.9318020   6.8450203  24.9064520  79.4001643   5.4689303  24.5677450
   6.9509946   7.1655073   1.3173798   7.7445995   7.7005091   1.3311985
   6.2403928   7.7943173   1.1914042   3.6349526  70.1876535  14.8795489
   2.6998415  69.9931254  14.8166540   4.0004006  69.4510450  15.3695372
  48.2402774  43.1679209   4.7636870  48.6157008  44.0433420   4.6692065
  48.9123484  42.5805099   4.4179991  71.0455652  37.5748514  12.4674443
  71.0225769  38.5228928  12.5975254  70.2042004  37.2664523  12.8039292
  52.0456696   1.9023539  46.6538525  52.6715946   1.9981094  47.3716831
  51.9564152   0.9563316  46.5384960  61.6510888  53.8000097  29.3615034
  62.2208115  53.2787480  28.7958792  61.1010309  54.2963137  28.7554148
   0.0683605   1.7805209  27.3164442   0.6234394   2.5326624  27.1105173
   0.3860389   1.0839596  26.7418841  50.6628691  26.5701666   1.6196945
  51.5699898  26.2668267   1.5828398  50.4000508  26.6513911   0.7028750
   8.4787359  64.3855108  12.5362852   7.9630699  63.6286034  12.2580603
   7.9478874  65.1418604  12.2865513  11.0689392  57.4566545  27.1466330
  10.7876387  58.2220520  27.6478937  10.3599014  56.8233909  27.2583178
  28.5234247  14.9627676   8.9472082  29.2722498  14.3969431   9.1351870
  28.7122380  15.7743397   9.4183091  28.0162373  66.4339580  42.6157835
  28.9707508  66.3641729  42.6315478  27.8251209  67.2205342  43.1266669
  13.6079584  31.4807310  10.3267458  13.8529955  30.6748095   9.8721293
  14.1668068  31.4968338  11.1037043  42.8928312  65.4840101  60.5530337
  43.3514019  65.4385080  59.7140673  42.3745330  64.6799745  60.5866125
  14.6768366   2.0867863  39.5269278  13.8921105   2.2262039  40.0570181
  15.4036223   2.2173228  40.1360014  74.8931448  25.8427515  61.7116621
  74.6303360  25.4646721  62.5508383  75.5558936  25.2400151  61.3744620
  43.4793268   9.2629090  39.4207648  44.2278706   8.6701431  39.3534163
  43.0433832   9.1956845  38.5712603  65.2710720  68.3869256   5.9501913
  65.5364081  67.5182618   5.6481055  65.4423376  68.9624037   5.2047232
  57.1587106  49.1986527  41.5420035  56.8751689  49.8944093  40.9489134
  57.3542830  49.6491911  42.3635939  66.7372700  37.0708203  53.5002688
  67.5767895  36.6731355  53.2694319  66.3584062  37.3342936  52.6616553
  37.1579889  61.3763105  57.0472622  37.9026512  61.2110220  57.6255274
  36.5147213  61.8145036  57.6044226  42.0644140  49.5121765  61.3370514
  42.2285032  50.2976227  60.8151531  41.2705898  49.1344833  60.9583330
  69.9215933  46.5145065  20.8360365  70.2784439  46.5334638  19.9480418
  69.4331738  47.3338808  20.9154299  17.7093033  66.9803237  56.9243622
  16.9594959  67.4861913  56.6111326  18.1040863  66.6204607  56.1300850
  70.8642384  26.2422134  26.5045050  70.6877848  27.1266653  26.1838129
  70.0204989  25.9348501  26.8359545  15.9269953  11.3171780  59.4651127
  16.5644729  10.9006286  60.0450611  16.3043201  11.2267315  58.5900831
  25.6132852  46.2485321  -0.0213548  26.3545140  45.7551654   0.3299263
  24.8531770  45.9061422   0.4490021  13.3161011  61.0208334  21.3258150
  13.5227814  60.0882210  21.3870791  13.3253756  61.2070383  20.3869417
  77.0788332  50.3801204  10.5671576  77.2013231  49.4716658  10.2915886
  77.9373213  50.7853831  10.4446963   3.3775892  44.6172811  21.3057307
   3.0647936  45.2952589  20.7067850   3.6536541  45.0966187  22.0869139
  10.4761461  72.5751199  59.6513510  10.8244661  72.0739003  60.3886986
   9.8012737  73.1328173  60.0383329  79.2954823  44.4558628  44.9297121
  79.9281355  44.5539607  44.2181185  79.7725721  43.9816202  45.6106833
  39.3328007  23.4248962   4.0932492  39.3783280  23.1277134   5.0020102
  38.4291216  23.7205745   3.9829377  58.5329342   3.7933508  51.9780922
  58.1973028   2.9150486  51.7987347  58.9598131   4.0576732  51.1631441
  73.0843826  28.6704089   6.9250944  72.3346134  28.7423469   6.3344124
  73.4998509  27.8421803   6.6849879   9.2583933  40.5539255  24.5791224
   8.5223618  41.0235246  24.9715021   9.1054621  39.6366139  24.8057917
  75.3682467  50.1922955   1.2049321  75.3154608  50.0286271   2.1465567
  76.0227820  49.5689882   0.8898094  14.3323221  38.5326304  20.8785227
  14.6842852  37.6520675  20.7482794  15.0750914  39.1139780  20.7155588
  73.6312195  24.6729840  14.5306280  72.7137180  24.9209823  14.4169691
  73.8284393  24.8952033  15.4405478  53.7949787  25.5973807  11.6165474
  53.6768948  25.8218994  12.5395230  54.1219078  26.4020481  11.2142399
  48.7167975  30.8076318  14.0986279  47.9318281  30.3420504  13.8100222
  49.2339703  30.1446046  14.5559624  12.2979250  14.6102776   2.9670409
  12.1967735  13.8598122   3.5525301  12.0332756  14.2812504   2.1080092
  57.4545431  31.8727040  62.7429295  57.6754332  31.1020613  62.2199106
  58.0268669  32.5623918  62.4067593  62.2315502  17.1918213  44.1708136
  62.4046326  17.7023625  44.9617720  62.3069048  16.2802315  44.4528723
   8.9105930  51.4924874  17.2992876   8.7247601  52.4209561  17.4394492
   8.6366215  51.0679998  18.1122950  70.2015873  69.3924846  21.6963461
  69.5987555  69.6543349  21.0004595  69.7320410  68.7098469  22.1756819
  78.1471869  63.3241595  30.0288752  78.2313057  64.2769207  29.9914721
  78.4110209  63.0260624  29.1583803  78.9757820  38.2756111  13.5527018
  79.2317053  39.1495738  13.8475302  78.1048723  38.3959986  13.1742123
  31.8747696  58.1429400  29.6475390  31.5415721  57.3787393  29.1772059
  31.4720475  58.0852761  30.5139807  68.1304646  34.8693395  55.6624269
  67.9815102  35.3221989  54.8323870  68.9581347  35.2261233  55.9847593
  65.3957864  35.5272390  11.3224057  64.4699975  35.7550484  11.2372568
  65.6347891  35.1721364  10.4662445  11.7172109   9.2112532   8.6966732
  11.6670023   8.3038511   8.9972380  11.4155160   9.7280588   9.4437483
  38.0291258  28.9899769   3.8878372  38.9178501  29.0771523   3.5431555
  37.7646529  28.1022492   3.6465433   7.0660772  64.0882291  62.9074648
   7.6367083  63.3197154  62.9065588   6.3043537  63.8215627  62.3927859
  27.1728683  27.5571680  50.7348394  26.7793775  28.4025216  50.9511089
  27.1578884  27.0684648  51.5577459  77.4946114  55.7469227  35.6407240
  78.4214684  55.9727253  35.7193449  77.2156616  55.5642153  36.5379599
  76.8804502  30.1318312  64.6408653  77.2482014  30.8441639  65.1639080
  77.5856304  29.4869900  64.5849371  77.8162809  50.0845529  34.8653105
  77.2629686  50.8367445  35.0757483  77.4393173  49.7274234  34.0612009
  74.3089386  47.7984573  24.3913439  74.2659804  47.1565910  25.1001433
  74.9658390  48.4315469  24.6810129  65.0254675  64.9819245  11.2515143
  65.3275152  64.0873517  11.0942343  65.0764080  65.0883950  12.2014120
  45.2388191  13.0796599  46.2835312  44.5257521  13.1172502  45.6460714
  45.1719618  13.9033508  46.7665386  48.1224652  63.8388933  32.4552992
  47.5535008  64.2237367  31.7886618  48.7416931  63.3020200  31.9607714
  23.2737099   0.7660141  13.2777527  23.3082806   0.0810709  13.9455012
  24.1275393   1.1954346  13.3306912  12.6282893   1.5865698   1.0434368
  13.1396614   2.1652498   0.4778746  12.1691524   2.1784868   1.6393069
   3.6043396  68.0218090  24.1943529   3.5692730  68.1047048  25.1473120
   3.7817516  68.9094319  23.8830927  79.1574808  40.3901239  19.1024664
  79.0289208  39.5269364  19.4956759  79.3335482  40.2089293  18.1792143
  29.4932294  24.6639347  48.3528757  29.2256856  25.1565504  49.1287518
  29.2614746  25.2310395  47.6174116   4.0785268  14.0313113  60.4101181
   3.5995880  14.5068014  59.7313261   4.9779555  14.3505156  60.3368521
  72.5642582  54.2477752  17.2752646  72.3016211  55.1311340  17.0165518
  72.2240111  54.1474570  18.1643084  33.4180342  21.6495457  16.8368796
  33.1664358  21.3503161  15.9631613  34.3053709  21.9912138  16.7267397
  12.1785747   1.4806929  14.0310934  12.8623282   0.9188857  14.3959025
  11.4175235   1.3258472  14.5906094  33.5001888  63.5252728  31.9769171
  34.2700329  63.1540431  32.4079207  33.7888661  63.7019290  31.0815409
  72.2826525  44.7944279  29.2343691  72.4202963  45.5906584  28.7212351
  72.7749392  44.9418308  30.0419310   3.8120590   1.9806423   3.5486630
   3.7516938   1.0310569   3.4443835   4.6520911   2.1206846   3.9856556
   9.9885045   1.6632858   3.4246805  10.2036034   1.8335357   4.3417290
  10.0844513   0.7158175   3.3280733  16.4334955  27.8102185   6.6412619
  16.1619702  27.0524956   6.1232260  16.7137709  28.4558578   5.9925488
   8.4587135  58.0089869  17.8347853   7.5337258  58.2512058  17.7905730
   8.4723177  57.2108473  18.3630064  27.2440039  18.0817738  26.6972998
  27.1460043  17.5061169  27.4557570  27.0265900  18.9531985  27.0283392
  73.4316584  65.5664958   9.9743012  72.7892634  64.8758306   9.8113945
  74.2601439  65.1008953  10.0886038  10.0005304  27.9593172  15.7846907
   9.3814884  27.8927174  15.0576571  10.4704152  28.7778082  15.6249598
   8.9017617   3.7187853   5.9815577   9.0058123   4.6663704   5.8950404
   8.1008254   3.5204878   5.4963663  20.6761017  35.3063205   7.9841736
  21.4570418  35.8273764   8.1708983  19.9565687  35.8069204   8.3687523
  79.6039673  46.0833551  10.4924467  79.8729750  46.8398704   9.9713448
  78.7759730  45.8050980  10.1010063  14.3695154  69.3491425  53.1156424
  13.6230889  69.5283283  52.5438288  15.1250496  69.3416633  52.5279787
  71.2291857  32.1164246  39.2697695  71.7167469  32.7317079  39.8174456
  71.8327185  31.3858642  39.1346243  44.2776442  34.7723413  57.6507092
  44.8204231  35.4455686  58.0610561  43.9558458  35.1810193  56.8471766
  45.9964820  53.2999624   2.8776959  46.9010445  53.2043316   2.5796154
  45.6072994  52.4358846   2.7430180  54.2442036   7.0338005  48.9565849
  54.5716190   7.2718334  49.8239803  54.8974133   7.3825294  48.3500099
  21.7110447  74.9524583  52.4157763  22.6552538  74.9114219  52.2640467
  21.5540508  74.3233836  53.1199408  63.6686321  58.9206590   9.6776512
  63.4260555  58.7125839   8.7753800  63.2854792  58.2142486  10.1976612
  56.7654749  28.1938388   0.4536751  56.5410801  27.3641886   0.8750513
  57.7201553  28.1776680   0.3861550   6.8750440   9.2337551  15.2087286
   6.5370690  10.1253691  15.1248911   6.2809264   8.7016525  14.6794585
  54.9164530  59.0527238  15.0216463  54.0435811  59.3466725  15.2822569
  55.5087277  59.7137846  15.3800371  74.6647068   8.8994803  46.5109804
  75.1515242   9.7229161  46.5455321  75.3149458   8.2476224  46.2492445
  17.8229513  19.3052735  50.9463671  18.7467280  19.0968932  51.0858229
  17.4973908  19.5432104  51.8144873  51.5537377  73.0215134   9.8822048
  52.2609922  72.9171981   9.2456988  50.8837196  73.5214414   9.4159725
  46.9499149  56.3897540  44.5171622  47.3189297  56.1260094  43.6742476
  47.7126923  56.5658583  45.0679663   8.8710915   1.9336906  19.5319441
   8.6649691   2.7222243  19.0299872   9.1755854   1.3055935  18.8769511
  43.3614016  31.4113283  60.3920984  42.4930525  31.1347771  60.0993156
  43.3878040  32.3506021  60.2096224  52.7076074  49.8792578  40.5671290
  52.8916665  50.6134297  41.1530855  53.2137796  49.1516508  40.9285239
  15.4832258  71.3869991  19.0496996  15.5218401  71.7394723  19.9388007
  15.1499262  72.1108069  18.5193709  73.6679360  58.5804142  30.0015810
  73.9856669  59.0264429  30.7866553  73.6974856  59.2493428  29.3175581
  10.4595815  17.6308813   3.4047631  11.0602604  18.3234110   3.1294087
  11.0308324  16.9181290   3.6909226  73.6589810  65.0328316  18.6586550
  73.9300057  65.5664291  17.9116228  74.0557524  64.1766872  18.4979609
  17.0828775  70.7213794  57.1775627  17.6264862  71.3338708  56.6820049
  16.5343574  70.2990534  56.5165043   3.6287918  60.5482616  30.5789355
   3.8718071  60.2456464  29.7039488   2.7386894  60.2203764  30.7071379
  73.2802960  32.2900565  20.2745417  72.9141852  31.7882098  19.5462874
  74.0920159  32.6593794  19.9267748   7.9355762  64.9433266  55.7094049
   7.7553413  65.2863704  56.5846586   7.1925495  65.2339434  55.1805592
  76.2940403  39.5297124  18.6938265  75.9737583  39.9734508  19.4791582
  76.2354847  38.5978352  18.9045599   7.4944105  28.2414945  30.5594900
   8.3011856  28.1861033  30.0473574   7.2296753  29.1587944  30.4908923
   3.1524414  39.1328263  62.9567099   2.2075218  39.2654371  63.0327082
   3.4103340  39.6706867  62.2080946  21.2821903  25.6911828  49.9627188
  21.6711130  25.5534066  50.8264235  20.5112209  25.1239433  49.9539545
  31.2590750  55.9888114  21.9022539  30.8380254  56.8323209  21.7365912
  32.1690818  56.1188544  21.6353968  52.3717117  14.8755693  48.8652658
  53.2384396  15.0869763  48.5183907  51.7620182  15.2198827  48.2126141
  41.3133036   2.2941938   8.6681822  40.5223404   2.8054180   8.4971455
  41.2707888   1.5707460   8.0428437   8.3275823  68.6458330  65.2371931
   8.4165624  67.8420960  64.7250175   8.1748012  69.3296992  64.5851040
  75.1821899  23.2047057  24.4405818  75.3059864  23.1243229  25.3863335
  76.0095119  22.9043365  24.0643501  59.3828773  39.5709801  63.8605165
  59.8470783  39.6789956  63.0304098  58.4567547  39.5694375  63.6186028
  52.4630257  70.1700391  16.9206599  51.8929192  70.6116928  16.2912539
  52.2342511  69.2438926  16.8422488  56.8497610  17.8413844  58.0787897
  57.1619654  17.1492732  58.6616659  56.3771152  17.3774266  57.3877192
  15.2292910  70.9339489  31.7506102  14.6733418  70.3816404  32.3002508
  15.1306620  70.5719747  30.8700064  47.5739041  67.5138773  44.7485331
  47.0308438  67.0671763  45.3979758  47.9723873  66.8061842  44.2419604
  29.8422228  10.2288094  13.8368395  30.5773722   9.7434750  14.2113236
  30.2117287  10.6712666  13.0726889  71.3809586  53.9131594  52.4788523
  70.8265018  53.7118149  51.7250156  71.7415857  54.7787189  52.2865438
   6.9837990  73.9733876   4.4078806   7.8137055  73.6664643   4.0427998
   6.3288727  73.3729185   4.0518788  67.8221747  66.2251367  25.0418261
  67.9424950  67.0199312  24.5221499  67.0664974  66.4146818  25.5979231
  69.8766752  59.6675934  20.3356818  69.6138474  59.7570767  21.2517336
  69.1339871  60.0107516  19.8388079  53.1210872  66.6739454   1.4441374
  53.9173385  66.8226423   1.9541481  53.4360214  66.3980855   0.5833557
  76.0318136   8.0695993  60.3535986  76.3339266   7.7682436  59.4967747
  76.4701786   8.9111161  60.4797602  14.7340670  72.7785052  14.1742638
  14.8983278  72.7147211  13.2334212  14.4694462  73.6883225  14.3100622
   0.2791634  68.4538593   8.5459593   0.6726065  69.2583098   8.8840321
   0.8614626  68.1822337   7.8364733  16.2814179  55.5182864   3.9919833
  17.1924772  55.3420366   3.7571600  16.1383000  56.4278425   3.7303427
  36.3412319   4.0089932   5.9010294  36.0315691   4.8091307   5.4766205
  36.0770642   3.3056441   5.3079489  45.8707428   6.7097461  32.0376182
  46.6910028   7.0470005  31.6775322  45.4233170   7.4836266  32.3798895
  17.1692267  51.4004137  16.4827708  17.4815645  51.2272407  15.5946902
  17.9334250  51.7491807  16.9416788   3.8082781  75.0214853  32.0370272
   4.0353289  75.5112542  32.8274706   4.6468487  74.7015490  31.7043475
   4.3662940  18.0506745  12.5510338   4.0829216  18.1335345  13.4615687
   3.9719473  18.8020506  12.1081427  18.5517492  70.5268563  14.2901972
  18.1704321  69.6845831  14.5380047  19.4950953  70.4027142  14.3946913
  11.7512169  69.0507640  56.7639998  12.1590605  69.6699347  57.3694113
  12.2450581  68.2393946  56.8824366  72.4188935  12.1613446  19.4445113
  71.8510853  12.7170506  18.9106539  72.7523075  12.7445355  20.1263884
  18.4526959  61.1219157  39.1667441  18.3104315  61.5365185  38.3158091
  17.6753082  61.3492145  39.6768740  33.7891236  70.7300319  15.7301977
  33.8551273  70.4463019  14.8184088  33.9525547  69.9367465  16.2403181
   3.0725616  34.7104478  53.3729553   3.2998318  33.7834334  53.4452486
   2.6832241  34.7944260  52.5025606   4.2184204  26.1563826  55.1525259
   4.5531601  25.4725885  54.5723486   4.7809547  26.1110568  55.9256601
  49.2615032  35.2611685  53.9157438  48.8519192  35.2555656  53.0506229
  48.5273981  35.2192831  54.5285797  39.7394167  18.2721701  20.8541754
  39.5955120  17.4599972  20.3684882  40.0608908  18.8901081  20.1976374
  68.4441853  68.5746479  59.4427967  68.2387495  67.9567671  60.1444006
  68.3713722  69.4362068  59.8534584  45.7559096   1.3441839   5.1489189
  45.7207810   1.1646261   6.0884741  45.5484663   2.2757211   5.0751808
  56.7191172  34.1931605  57.0851707  57.0668745  34.7873998  56.4202023
  55.9979200  33.7403131  56.6480970  14.4726025  60.2988281  27.9245833
  13.5815178  60.1314392  27.6177004  15.0302254  59.8107472  27.3187140
  54.4561100  21.7748141  45.8335876  54.6025991  22.2320127  46.6616821
  54.5481539  20.8475208  46.0524178  79.1332817  64.5174122  60.4628229
  79.0467453  64.2401505  61.3748932  79.0301752  63.7115335  59.9566984
  17.4932426  42.0118046  64.9904680  16.8349594  41.5201712  65.4815769
  17.2015041  42.9219055  65.0436640  38.5084950   2.8098002   7.7749756
  38.2239186   3.3706942   8.4965351  38.0430161   3.1486311   7.0102814
   1.2702087  70.6713187  61.8599415   1.2502030  71.0345699  62.7453136
   0.4199723  70.9034776  61.4865351  52.9177510  28.6356774   2.5208119
  53.3596884  27.7877512   2.4767330  52.6780020  28.8282194   1.6143444
   9.0552150  27.1009770  19.2825201   8.3455859  26.4733114  19.1457823
   8.6831366  27.9436102  19.0222147  13.0852646  40.1756382  35.9820509
  14.0233368  39.9950790  36.0424781  12.7789253  39.6152115  35.2690935
  56.0172387  73.3816804  23.2707384  55.0658604  73.3225979  23.1834391
  56.3282367  73.5643138  22.3840884  26.8623676  59.6336736  18.1711081
  26.9052448  60.0166406  17.2949007  27.6508846  59.0949001  18.2358626
  40.7333943  44.1480561   7.0226410  40.6412049  44.6388067   6.2060049
  41.2819942  44.7042824   7.5757054  75.8371925  34.4047642  55.3042030
  76.6752481  33.9607501  55.1747847  75.1942873  33.6966181  55.3420782
   7.3091307  67.6299752   3.3599022   7.2867575  68.0822911   4.2031935
   7.5162926  68.3161511   2.7254895  20.0725502  47.0882463  59.6018267
  20.1900143  46.4947414  58.8600874  20.9039825  47.0484209  60.0744486
  10.9643879  56.5394630  39.9908808  10.0944319  56.3741841  39.6274451
  10.8615389  57.3414792  40.5031565  15.1021137  59.1551794  40.1295069
  14.3404093  59.5484223  39.7035864  14.9713411  59.3285693  41.0617426
  56.0395813  37.1603227  61.7103767  56.2630129  37.5801945  62.5410509
  56.1519051  37.8496003  61.0557699  66.0377999  68.1745614  21.9723872
  65.2590057  67.6240505  21.8908480  65.6980797  69.0353860  22.2169379
  78.1074520   0.2641130  56.9658995  78.6661955   0.1687122  56.1945772
  78.5700794  -0.2099585  57.6568890  15.1769863  10.8921805   2.6878432
  14.5702111  10.1922026   2.9288510  15.9259592  10.4376879   2.3022202
   3.5612192  63.2636131  44.1018656   4.0923157  63.4004153  43.3173540
   2.6718464  63.4924902  43.8319281   2.9644245  21.3039112  58.1441307
   3.6366791  20.6558371  58.3546257   3.4313816  21.9846964  57.6596594
  11.9879097  20.0718904  62.9058504  12.8538937  20.3756905  63.1778860
  12.1304840  19.1711009  62.6151943  39.0510917  47.7702808  64.7505856
  38.4915614  48.0806637  64.0386724  39.8881912  48.2117939  64.6071911
  53.0116796  21.9868684  49.9835300  53.5267830  22.3174214  49.2475748
  52.9249907  21.0489583  49.8131132  77.2257423  20.0025129  60.3438044
  77.0223761  20.7058001  60.9604597  76.7574310  19.2410588  60.6860113
  10.2615796  23.9641705  34.4457796  10.5901681  23.8716402  33.5515192
   9.4791733  24.5086184  34.3583277  11.8077793   6.8871094  42.7372074
  12.4408045   6.9128872  43.4547377  12.2861424   6.4889599  42.0099688
  32.5725161  13.5725155  17.0965460  32.6348912  14.5181933  16.9622687
  33.3314072  13.2146158  16.6358641  63.8064071  47.4381663  18.9521578
  64.6935602  47.6278003  19.2574957  63.5081335  46.7219354  19.5127657
  29.5138016  64.3114032   9.7095755  29.7143498  64.1575398  10.6327990
  29.0300694  63.5318984   9.4364193  16.3292351  74.1148867  29.1572455
  16.7645636  73.2699765  29.2706183  17.0200100  74.7615399  29.3018320
  16.5803042  69.6693601  46.4457587  17.2806969  69.6785511  45.7933787
  15.9507980  69.0299978  46.1123255  79.4934273  63.4945774  50.4983139
  80.2077293  62.9348707  50.8028460  79.8096848  63.8576841  49.6710491
  36.8709412  63.1601538  29.1589049  36.4347973  63.9226140  28.7785509
  36.1560097  62.5726713  29.4037798  75.6594801  70.2654171  61.2425900
  75.2332878  69.4083595  61.2494898  75.8842993  70.4137278  60.3240633
  46.1676298  18.6144819   2.5739744  47.0402085  18.4439173   2.2193602
  46.2245404  19.4991627   2.9349926  19.6504774  38.8136493  39.4143084
  20.2594700  39.1091006  38.7375048  20.1219597  38.1189720  39.8740462
  50.6517887  74.5991087  63.7562418  50.4885530  74.0820932  64.5450878
  49.9118471  75.2045107  63.7092781  19.6364151  12.6356449  17.6108149
  19.4851576  13.5715237  17.4785879  19.9757992  12.3268357  16.7707613
  12.2285782  44.2546787  17.2461966  11.6632949  44.9249497  16.8622187
  11.8153058  43.4257546  17.0047072  22.7810898  49.5302941   7.1562556
  21.8375721  49.5848324   7.3080328  22.8613224  49.1553094   6.2792281
  51.0478102  21.0676661  10.1730946  51.8534981  21.4958563  10.4624966
  50.5872380  21.7390576   9.6697644  54.8689114  28.7231865   6.0631255
  55.4843460  27.9937020   6.1361388  54.0454994  28.3158770   5.7941845
  51.2678576  63.1763363  60.8558464  51.9779253  62.8670216  61.4183044
  50.5664253  63.4116745  61.4631748  21.5182924  32.3374200  61.6661215
  22.4568343  32.2583628  61.4954662  21.4395618  33.1175590  62.2151375
  15.1964430  72.1739136  58.8091040  15.7502464  71.5831589  58.2986784
  14.3184427  72.0506155  58.4483433  64.2232581  60.8596458  24.6370486
  64.6990701  60.0315394  24.5732001  63.6418863  60.8610763  23.8766268
  33.5904064  50.7511749   7.0414666  34.1407623  50.0210239   7.3246935
  34.1689911  51.2932481   6.5051630  12.8902477  13.0976832  37.6068115
  12.3117870  13.8580132  37.5475860  12.7796597  12.7818739  38.5036206
  77.4449488  74.8589553  20.2586821  77.0892903  74.0551867  20.6377581
  77.8569313  74.5767559  19.4420603  31.4352074  71.5269889  35.1551417
  31.8903103  71.2946381  34.3457392  31.2653389  70.6881060  35.5836848
  60.1403570  32.1842694  58.9540005  60.7552481  32.4731874  58.2797098
  59.3650341  32.7295351  58.8206196   6.0548725  37.2325745  44.7339514
   6.7862263  37.0813671  45.3326872   6.2564554  36.6939460  43.9687899
   2.3958149  74.3555369   9.3305662   2.5069943  74.4549813   8.3850602
   1.5207663  73.9807119   9.4307259   9.3764387  20.5911341  30.7972411
   8.4514390  20.5596485  30.5530814   9.5023643  19.8255816  31.3578776
  36.9238809  70.9233387  34.7603202  37.0586017  71.7604860  34.3161726
  36.7614130  71.1600800  35.6734419  35.1704884  27.5232887  36.2649441
  35.3139043  27.9928279  35.4432392  34.2424679  27.6564074  36.4580441
  28.5281693  33.3024206   4.9298218  29.0188109  33.9714709   4.4524697
  27.7628790  33.1297055   4.3814257  63.4482609   2.7182379  18.4394911
  63.0274426   2.7381029  17.5799826  63.5949169   1.7883792  18.6129263
  73.7437725  32.9973531  53.0187607  73.3461475  33.8112259  53.3281755
  74.1321278  32.6076126  53.8020325  30.7898651   5.5065670  13.1860569
  30.4107939   5.3725901  12.3173884  30.1353346   5.1553526  13.7897757
   4.9409734  12.8370371  40.7927016   5.3114234  13.5841933  41.2625483
   4.2857157  13.2213202  40.2102927  25.6187187  23.0457106  25.5060747
  26.5435826  23.2690420  25.6108645  25.1975619  23.8729038  25.2723864
  24.0725082  40.5432129  55.7807064  24.2317051  41.3971758  56.1827564
  24.0240139  39.9361205  56.5191650  20.1282158  53.7763299   9.5887545
  20.9272518  53.9985992   9.1108731  20.4030409  53.7251951  10.5042246
   1.9720787  36.5881109  44.2070627   2.0641274  36.8606877  45.1200008
   2.5451321  37.1811318  43.7210941  10.4728137   3.0936756  21.5894297
   9.8989855   2.8615179  20.8593157  11.3575088   3.0204430  21.2313917
  75.1764723  32.7164422  18.3588007  75.7414051  32.4360265  17.6387575
  74.8787399  33.5896169  18.1035498  44.1561400  23.3832159  23.1754950
  44.6795355  22.6810255  23.5617903  44.7715842  24.1080656  23.0657366
  11.6898786   6.3999167  20.4200342  10.7425033   6.5346613  20.4436282
  11.7957889   5.4492369  20.3850916  69.3087288  38.1000403   4.7754267
  70.1492211  37.8564885   5.1633576  69.5387169  38.6844148   4.0530375
  16.4207367  73.5318035  55.9538889  16.0292152  73.6631184  56.8174267
  15.9107784  74.0948976  55.3715611  33.6649838  63.8104071  35.5881193
  33.1617870  63.3230032  36.2403944  34.0910378  63.1348671  35.0605276
  18.4336602  32.7758494   4.1051749  17.8069578  33.4991255   4.0865496
  18.4476172  32.4945250   5.0199917  78.3252331  69.1855110   4.7085455
  78.0658671  69.4467820   5.5921200  79.2385574  68.9132489   4.7976807
  52.4482819  50.7915844  12.1850375  53.2217189  50.7387842  11.6235760
  52.7981659  50.7849290  13.0759743  65.7550021   5.1487614  61.3781357
  65.0322481   5.7512356  61.5538597  65.3931185   4.2812992  61.5591860
  70.1048084  58.8447131   9.0755299  69.4407030  58.7873902   9.7624853
  70.5373236  57.9909028   9.0886763  62.1390473  12.3113718  26.1493758
  61.8235718  11.7922154  25.4096583  63.0241619  11.9847718  26.3110426
   0.3905148  20.9228301  57.6567602   0.0288433  20.2485347  58.2318735
   1.3219112  20.9501052  57.8758287  23.9690962  55.0830390  23.3326701
  24.0105286  54.2319431  23.7687281  23.0346289  55.2341809  23.1906966
  42.5675621  50.0290944  15.2128962  43.5050335  50.0413706  15.4058054
  42.3074188  49.1176869  15.3466585  14.8312798  71.7478599   4.1815070
  14.3396654  72.2460665   3.5285643  14.3298521  71.8526305   4.9900988
   1.6857224  17.0931807  21.2734774   2.6090031  17.3408404  21.2240961
   1.2263089  17.9147854  21.4470652  67.5229406  24.1901255  48.4408903
  67.6063442  24.5192170  47.5459194  67.2820139  24.9591637  48.9573860
  66.2829911  18.6160364  21.9128016  67.1334683  18.9790240  22.1600989
  66.0663258  19.0531578  21.0892657  77.4699640  46.9424582  60.6061649
  77.0221043  46.7017412  61.4171553  76.7883635  46.9027567  59.9352837
  57.8222691  11.2312021  29.9803904  57.6963745  12.1735993  30.0911692
  58.7274395  11.1439743  29.6815852   8.2484161  13.6200323   3.8559798
   8.8695275  13.6226835   4.5842961   7.5165640  14.1549435   4.1633824
  45.7770430  12.7000084   6.1370400  45.8797299  13.6190834   6.3839987
  46.3951908  12.2309103   6.6974572  32.5986611  21.7814245   2.8045061
  32.1848904  21.8900337   3.6607912  32.7505432  22.6750078   2.4968127
  30.1522433   5.7816305  -0.0985166  30.2939068   6.5758887   0.4165676
  30.0981747   5.0810757   0.5515126  35.4272118  70.5359616   0.7011679
  35.5688992  69.9179687  -0.0159380  35.3740349  69.9869670   1.4834765
  42.4648415  17.2950926  12.9147557  42.6827799  18.2174673  12.7807501
  42.6467930  16.8809834  12.0711735  78.7279129  28.2710528  64.0933084
  79.2434740  27.9137516  63.3702850  77.9453707  27.7206874  64.1243696
  56.5073910  66.7720451   6.8485001  55.8507481  67.3855581   7.1781376
  57.0523110  66.5725650   7.6097468  14.9161377  21.0199787   1.4860371
  14.2816534  21.6875960   1.7467097  15.5689802  21.0237004   2.1860531
  66.6441536  61.7108870  63.2461214  67.1053553  62.1624422  62.5392771
  67.3274565  61.5026188  63.8832617  78.0938812  59.5733537   0.8833292
  78.0078741  60.3355207   0.3106716  78.5319706  58.9159192   0.3428725
   1.0156765  61.4734759   6.1529997   0.9592190  61.8437924   7.0338610
   1.4645090  60.6366338   6.2733105  40.0656319   9.2131609  48.0447960
  39.3959522   9.3262976  48.7193012  39.6824145   8.5882932  47.4292326
  58.0386706  63.2713713  16.5563658  57.9230782  64.0868129  17.0441321
  58.9790317  63.0978502  16.5992812  23.9825463   7.4860805  61.6184425
  23.0256701   7.4638432  61.6294718  24.2025924   7.9178315  60.7929707
   1.2985271  22.8237820  41.6395092   0.6661171  22.4227715  41.0432816
   0.9183926  22.7015471  42.5094461   4.0411606  36.1538765  21.2238196
   3.1388321  36.0241141  21.5157202   4.2481175  37.0532143  21.4779738
  16.2678647  12.6415503  48.2757139  15.9769034  12.9156089  47.4059677
  16.5826643  13.4462380  48.6875534  78.8526361  11.7988672  10.1610306
  79.6775358  12.0703783   9.7584704  78.4829776  11.1654988   9.5458630
  22.5181631  58.2544004  57.3670483  22.8039459  57.6168322  58.0213165
  23.2977775  58.4191917  56.8366909  55.4424020  43.4184034  11.3957003
  56.1241504  42.9135092  10.9523800  54.7045609  43.4115674  10.7859686
  55.6657501  27.4670400  28.0139616  55.4287430  28.3739437  28.2078341
  55.4826232  27.3660649  27.0798853  53.9263344   7.4288726  62.6013803
  53.2075214   7.5100058  63.2282448  53.5131311   7.5487721  61.7463255
  71.0449501  48.8024964  12.7281931  71.5624758  48.2074072  12.1857241
  71.0233828  48.3843412  13.5889557  10.7373280  29.7068691  52.4682665
  10.5557961  30.3513026  53.1523609  10.6855721  30.2034640  51.6515970
  10.3974714  57.5122799   7.4698094   9.9497833  58.3578409   7.4987057
   9.8528185  56.9345082   8.0043820  49.2848206  20.4898977  42.9742336
  49.0494490  19.6167159  42.6605701  49.2777443  20.4116774  43.9282084
  40.4983282  19.8269653  63.8988161  40.2586699  18.9260435  63.6817074
  39.6611261  20.2805090  63.9969015   5.9343952   7.2482866  54.3865728
   5.2231926   7.3940718  55.0103998   5.5508465   7.4533135  53.5338783
  47.3152880  71.1599280  17.2535467  47.1223501  70.7772910  16.3976276
  46.6410927  71.8285616  17.3744595  61.3397074  43.6047029  18.9292181
  60.8195877  44.3337774  19.2670941  61.7778635  43.2453299  19.7006440
  63.0386639  27.7942085  57.5071049  62.8850412  27.6170635  58.4351397
  62.2717762  27.4313807  57.0638609  44.4587708  48.5615587  62.5635910
  43.7498569  48.9907598  62.0845747  44.6121883  49.1262436  63.3211040
  34.5534554  67.3708142   5.5479267  35.2717247  67.4688877   4.9228600
  34.0649929  66.6098346   5.2340105  74.6852112  19.0353966  61.3245201
  74.5612907  19.7210371  61.9808531  74.3169594  19.4033813  60.5212688
  10.5611506  33.5275652   3.1872252   9.9206963  32.9481293   2.7745465
  11.4100495  33.1764980   2.9182461  35.3141199   6.3197603   4.6798352
  35.4506432   7.2615376   4.7830370  35.6477057   6.1239090   3.8042811
  57.3390341  24.2426872  45.6122160  57.9087067  25.0118947  45.6074762
  57.7739906  23.6261368  46.2012053   8.2251825  49.5076539   1.0782889
   8.6989346  50.3198554   1.2575033   8.5326042  49.2369570   0.2131584
  69.3873028  54.4685005  55.1818323  70.2637867  54.6089720  55.5399942
  69.5403293  54.1478085  54.2930269  69.4550320  46.6189374   5.5881813
  68.4993788  46.5687283   5.6091383  69.6925446  47.0144208   6.4268807
  57.5236893   1.7555898  57.4815464  57.7024364   0.8474647  57.7256584
  58.3655119   2.0908064  57.1730089  68.6271048  12.5056446  52.4946594
  68.8283014  13.1648016  51.8303823  69.4506645  12.0346940  52.6219034
  19.5485596  55.2862977  19.3503857  19.8288635  55.3195678  20.2650189
  18.5924486  55.2706980  19.3933129  37.3344636  13.6662030  53.8436079
  37.6275325  12.7585042  53.7634516  36.7693281  13.6680901  54.6161699
  13.7768883  21.8517947  54.3611193  14.0803379  22.6316524  53.8963938
  14.4562763  21.1971593  54.1995144  55.1401138  15.6551528  49.1005993
  55.0206327  14.7932756  48.7016964  55.9711313  15.9704053  48.7452745
  71.2236433  17.2360506   6.9329575  71.2375920  16.6049280   6.2134245
  71.5208070  16.7378369   7.6943425  41.6453890  62.8460013  60.9185648
  40.8423380  62.9800223  61.4219332  41.4696220  62.0675980  60.3899574
  71.3368368   0.8377142  40.6022882  71.9620609   1.5614842  40.6407404
  71.1513710   0.6324828  41.5186501  47.1667719  17.3388565  36.9239187
  47.8465796  16.6857731  37.0899677  46.9948053  17.7288151  37.7810001
  24.8341183  66.7191212  47.9917526  25.6784395  66.2701785  47.9492569
  24.9054102  67.2915523  48.7556076  31.8363367   8.2836762   7.1669033
  32.0984732   8.8309374   6.4266184  31.4951216   8.9020910   7.8129462
  60.1882124  66.8766069  32.0752692  59.5505047  66.1627913  32.0806527
  59.7649860  67.5720978  31.5718794  47.0487543  61.4486875  33.4940985
  47.5146910  62.1285524  33.0073527  46.3584300  61.9191302  33.9613894
  75.6150389  22.1993446  47.1268272  76.3126087  22.2581673  46.4740133
  74.8514795  21.8973327  46.6348934  78.3189297  39.5883226  42.8125048
  79.1537237  39.9721217  42.5440836  77.8122950  39.5266008  42.0027256
  39.9992847   8.2847106  63.3595610  40.6802368   8.2478589  64.0312576
  39.4796324   7.4935067  63.5016441   5.2951327  35.9492000  18.6846045
   4.6446743  36.0417098  19.3807200   6.0452643  36.4604078  18.9882639
   8.1994576  14.6505785  60.9684134   8.4134811  15.0658596  61.8038607
   7.4059719  14.1462350  61.1479616  61.5568161  48.7229395  62.9878426
  60.7451963  48.2264137  63.0925894  61.5923738  48.9295197  62.0538807
  68.5764790  28.3074760  47.0007706  68.9206266  27.7781796  47.7202415
  68.3753204  27.6737833  46.3121462  24.5237675  41.7705710  19.6517924
  24.2000761  40.8842670  19.4907931  24.3325462  42.2459437  18.8432768
  65.8605671  25.2152014  60.1702690  65.3495932  25.4032373  60.9575272
  65.4332066  24.4505954  59.7842979  71.1291794  63.5249161  47.6770020
  71.4648823  64.1023730  48.3626270  70.9364036  64.1099130  46.9443035
  41.1776689  49.4420265  64.3111897  41.7485861  49.4334506  63.5429382
  41.6102890  50.0361299  64.9244738  67.5956678  18.5176289  29.5520806
  67.8646374  18.3275580  30.4508352  67.2753048  19.4190776  29.5835114
  56.2505293  42.3938990  47.5442171  55.8299160  41.9135618  48.2573748
  56.2622547  43.3034372  47.8422689  38.1494656  70.6980743  52.4605730
  37.9338494  70.7288183  51.5284899  39.0564766  70.3932895  52.4866751
   4.8374977  48.8940050   9.7703150   4.0085783  48.4243788   9.8629406
   5.2615109  48.8020493  10.6235388   5.8799019  36.9696471   3.0315378
   5.2410593  37.1119893   2.3330763   6.3421717  37.8044127   3.1070832
  51.7435789  15.3672719  40.0932550  51.1027908  14.8187494  39.6407604
  51.4779520  15.3373253  41.0123730  50.4670954  27.0558047  52.7844477
  51.1069393  26.9996881  53.4941530  50.7635450  27.7943301  52.2525406
  60.3990984   2.9174322  43.3493328  60.3677797   3.7914357  42.9602718
  59.5186996   2.7790430  43.6985826  34.1189102  67.1307587  49.3115807
  33.8376049  67.7554428  49.9800587  34.1079668  67.6316320  48.4959602
   1.6671076  56.9133832  15.9230879   1.3129273  57.2844936  15.1149634
   0.9403505  56.4145591  16.2962225  11.5241184  64.2149653   9.7250346
  12.2997132  64.6312679   9.3490294  10.8108273  64.8257889   9.5397213
  56.8863126  61.2088551  15.3713301  57.3902389  61.8998160  15.8012846
  57.2974964  60.3953542  15.6635168  69.2787453  46.2104239  30.6029871
  69.2828604  45.3151633  30.2642802  68.6088940  46.6587509  30.0867155
  11.8727154  37.0718527  30.1355958  11.8522114  37.7900767  30.7680225
  11.1570019  37.2653246  29.5301557  75.1296564  40.9222897  20.8012083
  74.8184296  41.6820873  20.3091982  74.3322512  40.4541870  21.0487059
  58.3541775   9.1307956  49.0693951  58.5266447   9.9629200  49.5099115
  58.1347275   8.5257071  49.7778749  15.7047882  50.2717449   2.5467900
  15.6934157  50.6134512   3.4408501  16.2575045  49.4917680   2.5954989
  41.2576246  15.1720595  59.8897362  41.8757248  15.8706999  59.6750689
  40.4115677  15.4981923  59.5830441  10.2858762  71.2951725  49.8708820
  10.0834683  70.5644544  49.2866611   9.8460773  71.0743394  50.6918812
  16.9403353  36.9596858  21.1132887  16.6709509  36.8301803  22.0226267
  17.4790993  37.7506095  21.1334208  46.4008617   3.2856146  60.1452971
  46.6703796   3.8206944  60.8918095  46.9793367   2.5235915  60.1755285
  77.3405790  11.5830278  58.8067579  78.1561089  11.4248574  58.3312273
  76.6686487  11.1493528  58.2807684  66.1482760  56.5875365  37.1836069
  66.8459507  57.2005703  36.9519308  66.5854999  55.9117474  37.7016524
  17.8482775  57.4676990  23.6430287  17.9479984  58.3833837  23.9034343
  17.4764255  57.0386659  24.4136715  54.5160294  39.7451091  54.5634317
  55.3033543  40.2890539  54.5417070  54.2977095  39.6767664  55.4928923
  72.1931072  52.2353019   0.8997038  73.0085083  52.7299573   0.9813670
  72.4569031  51.4010729   0.5114964  75.3357121  43.1238975   1.7848042
  75.6086441  42.5921931   2.5324848  74.4810244  43.4725709   2.0381192
  70.3527399  55.2692749   0.9797600  71.1927220  55.7120098   0.8587340
  70.1814028  54.8464872   0.1382616  69.7568750  13.3116269  49.5025587
  70.1493883  12.7365983  50.1594496  68.8685417  12.9738116  49.3886423
  28.2679974   9.0183583   5.3780583  28.2612740   8.4019747   6.1103562
  28.5878073   8.5052147   4.6360091  27.7269033  71.9388150  43.3495808
  26.8758873  71.6652720  43.0072594  28.3199886  71.2249445  43.1153345
  59.8884916  23.0968666  37.0573497  60.0754499  22.6630378  37.8898573
  60.7380819  23.1519461  36.6198683  35.4799581  20.6388378  41.0749483
  35.2753830  21.1327672  41.8689346  36.3307881  20.9766364  40.7952833
   0.3149742  37.8975701  52.3629713   1.1698479  38.1656909  52.0260191
   0.1864285  38.4347916  53.1446981   9.7938472  27.3267698  51.5177774
  10.2064025  28.1867099  51.5986156  10.4422545  26.7921734  51.0595131
  53.1310307   0.3684130  12.0167569  52.9734646   0.1873102  11.0901478
  52.2634827   0.3293553  12.4193314  20.3697447  72.0538478  16.8789136
  19.7283367  72.5360238  17.4007714  20.1423172  71.1334180  17.0105112
  16.9335026  22.4996853  58.7764692  16.1132282  22.8738999  58.4550047
  17.0312351  22.8588414  59.6583366  66.5642452  46.5091085  42.7468538
  66.8986654  46.0392904  43.5108328  66.1217690  45.8377075  42.2275639
  46.1627436   2.5023410  35.2644849  45.4165888   2.4072163  35.8564615
  45.9913635   3.3170280  34.7921014  18.1675381  23.8611627  36.7359686
  17.8951019  22.9518080  36.6131353  17.3476547  24.3535900  36.7753077
  12.8732145  40.3648472  19.5186508  12.2563565  40.7927895  20.1124406
  13.2439804  39.6484852  20.0340009  51.5060091   6.9668877  25.9523582
  52.1863270   7.5582081  25.6302762  51.9848967   6.2018716  26.2711811
  32.5284849   8.3595886   3.1250504  32.0664250   7.7676668   3.7186459
  31.8747555   9.0161696   2.8846863  77.0041128  70.5629815   0.7575253
  76.4818998  71.2408747   1.1864641  77.1145102  70.8775748  -0.1397344
  67.0608664  26.2030482  42.2614002  67.5375938  25.3804326  42.1506453
  67.1735048  26.6593003  41.4275074  52.4930477  37.3941255  51.5121126
  53.0367613  36.9433498  50.8660412  51.6152763  37.0368695  51.3775253
  20.5777874  25.2443196  22.8369788  19.6478501  25.2217509  23.0626658
  20.7971277  26.1758591  22.8180769  44.1600605  56.4034297  44.9001959
  44.1578575  57.1279265  45.5257586  45.0872620  56.2150039  44.7551993
  78.6589091   1.5082183   7.4281481  78.5972016   2.4491539   7.5926665
  78.7304060   1.4356652   6.4763859   1.8941540  15.9334707  33.7379193
   2.0923370  15.1421463  33.2371616   1.2727493  15.6446302  34.4062495
  78.6503693  23.7650718  19.0386084  78.4931894  23.9112987  18.1057909
  78.8739344  24.6300163  19.3822935  42.6961279  12.9284430  60.2689838
  42.1623564  13.7229025  60.2813911  42.8569746  12.7335203  61.1922216
  21.9516077  46.0556395  28.7118700  21.0547199  46.0157259  28.3798579
  22.2348824  45.1419915  28.7469843  56.9638395  20.4174519  35.0233841
  56.4528036  19.8798656  34.4183421  57.3614740  19.7883880  35.6253791
  19.2736950  45.8359154  38.9501456  18.5262194  46.2546237  38.5233095
  18.9688339  45.6493499  39.8381117  36.3223982  21.3085318  27.6373124
  36.4997625  20.6890702  28.3451557  37.1811843  21.4861560  27.2536874
  69.6566149  68.3254828  10.9688071  69.9943777  67.5195541  11.3594797
  70.4060074  68.6992993  10.5052307  69.9915348  14.2644968   9.4360092
  69.5079552  13.7894860   8.7601784  69.3155419  14.5883217  10.0313261
  17.0578566  75.1380696  12.0032624  17.4374952  74.3739356  12.4370840
  17.7916374  75.5373706  11.5359810  18.1632223  53.3366861   8.0353859
  19.0793743  53.3574511   8.3119086  17.6731625  53.6151697   8.8090256
   5.7318154  57.2161760  16.5921572   5.1388922  56.5222587  16.3037947
   5.6364384  57.2323229  17.5444582  57.4693537   1.6447923  50.7616901
  57.6874399   0.8489581  50.2765894  56.5474701   1.5374856  50.9958887
  35.3870430  31.4642324   4.9468306  35.0343838  31.3417490   4.0654352
  34.8966828  32.2065659   5.2999857   3.2288403  49.9304104  56.0245752
   2.5868553  49.2734575  56.2938356   2.7113289  50.7196617  55.8649063
   6.7319054  19.2457116  50.4608631   6.7234844  19.5801353  49.5640230
   5.8601898  19.4485009  50.8002996  56.5911770  57.4878454  53.7555265
  57.4672270  57.8732681  53.7704372  56.1841536  57.7866983  54.5686960
  34.0596813   2.1554893  60.6493044  33.4213680   2.3785542  59.9717855
  34.6068710   2.9367673  60.7293844  22.1036282  73.0279006  36.8492869
  22.4314346  72.8115048  37.7221850  22.8720083  73.3497800  36.3778857
  50.3092610  27.8359022  11.2180022  50.5951535  27.0119848  10.8234671
  51.0961233  28.3807888  11.2313822   5.5114784  54.8155643   5.1059464
   5.8734980  53.9446451   4.9426297   5.9582319  55.3824128   4.4771984
  50.2820097  33.6102667   6.1646298  50.5965744  34.2114487   6.8398026
  49.4572960  33.9944735   5.8672026  41.5273033   5.1085367   1.9159392
  40.7052218   5.5981198   1.9428280  41.7837416   5.1214924   0.9938219
  26.8005600  74.7034754  44.3338373  26.8837776  73.7525667  44.4050768
  27.2745838  75.0429334  45.0929812  53.6855221  26.0594344  53.5674238
  53.5446024  27.0054603  53.6049414  52.8732061  25.6826758  53.9056873
  69.3245979  28.7786235  20.7433298  69.7203394  29.4720908  21.2712744
  68.6568352  29.2252828  20.2229288  66.6320276  14.8526096  58.7275219
  65.7597017  15.2161801  58.8795042  66.4859629  14.1235745  58.1246901
  55.8193060  57.3814525  28.2248667  56.0161515  56.7848863  28.9470843
  55.6466528  58.2220782  28.6488608   2.8005972  62.7015890  23.4527949
   2.4153223  62.4683537  24.2974261   2.2188893  62.3025073  22.8058127
  76.3801432  54.7756767  54.0214920  76.4724064  55.7111454  54.2021084
  75.9660006  54.7379017  53.1593513   8.9965143  75.1162161   6.4764288
   8.6501398  74.2384209   6.3160065   8.4890833  75.6836762   5.8961418
  22.8394448  19.5927372  15.3558615  23.6053454  19.2180958  15.7909182
  22.3945366  20.0911513  16.0413340  33.5797253  50.4022183   0.4703263
  32.9739990  50.7198228  -0.1993391  33.0147686  50.0264670   1.1454991
  71.7389714  19.5508518   5.4359558  71.4452015  18.9783135   6.1445740
  71.4644944  20.4270210   5.7065514  62.1082913   3.7899246   3.2785014
  61.3076149   3.2669678   3.2376746  62.8065621   3.1488552   3.4114674
  76.7822405  47.9308452   9.3728140  76.6770931  47.1927197   8.7725285
  76.6523644  47.5526668  10.2424982  64.5006033  54.2629220   5.6463650
  63.9748689  53.5167755   5.9346369  65.4065295  53.9701654   5.7454947
  60.1364422  22.4859667  41.8253565  59.4028664  22.9050159  42.2753572
  60.9118652  22.9354310  42.1614075  21.2530273  24.7995329  52.7835321
  21.4220184  24.6320701  53.7106943  20.4352039  25.2968431  52.7751446
   5.9764145  67.5357013  47.3997355   6.1613987  68.4648501  47.5364733
   6.5919922  67.2667520  46.7178535  73.1678673  42.5090413  31.0242346
  72.6992651  41.8987332  31.5935973  73.2407709  43.3111902  31.5414122
  52.9812813  14.8538303  51.8278408  53.8553762  15.1993620  52.0089436
  52.6039171  15.4726434  51.2026215  17.2170201  68.8306369  34.0368918
  17.0598164  69.7376289  33.7744406  17.9895487  68.5670866  33.5369280
   2.4101971  74.5669174  51.1770248   2.8614662  75.3155002  51.5671682
   2.5660751  74.6566667  50.2368736  20.7066193  27.8527035   1.7967728
  20.2558508  28.5328259   2.2972468  20.7161036  28.1829752   0.8984068
  34.5364990  57.1162035  24.1996554  34.1301766  57.9678930  24.0391520
  34.8924675  56.8566908  23.3498457  76.1444378  40.0552034  38.4383941
  75.6785250  39.3438554  37.9989195  76.6309214  40.4911232  37.7387214
   0.8755917   0.9550361  42.4177122   0.6151241   1.6344833  41.7958260
   0.0702185   0.7391725  42.8878355  15.7519947   7.7735415  24.9479464
  16.3821970   7.4297228  25.5810908  15.9856783   7.3487940  24.1225985
  76.8806458  56.2857294  44.1364145  76.4707041  56.6353464  44.9275827
  76.5383196  56.8311739  43.4282303  22.7090635  44.5484044  16.4720038
  21.9750300  44.6839722  17.0712164  22.3159495  44.5832254  15.5999544
  73.0167866  41.1662054  28.4560204  73.0877638  41.8512106  29.1208220
  72.2711229  40.6359386  28.7371564  61.5681874   3.7302628  36.0299185
  61.6538369   3.4363785  35.1229838  60.9338032   4.4459906  35.9908655
  26.3224064   1.6963401  17.3628310  26.5445410   2.2315207  18.1247118
  26.8230091   0.8893528  17.4828223  53.8782549  13.9701021  42.3566914
  53.1939650  14.4875729  42.7811861  53.4150600  13.4588993  41.6931009
  16.7185921  35.6902814  60.4269552  16.7484325  35.6935596  61.3836861
  17.4659199  36.2265873  60.1621771  20.2908030  48.2838263   4.1699723
  19.9044409  47.8896155   4.9519900  19.5563307  48.7112095   3.7293747
   9.4284195  13.8799012  47.3694324   8.8398975  13.1319165  47.4713755
   9.7077221  14.0881598  48.2609749  11.2826771  22.8396416  31.9426298
  10.4983753  23.0255437  31.4263463  11.7821926  22.2240353  31.4062071
   0.9948960  50.4422070  49.9075201   0.9898081  49.7385217  50.5563906
   0.1836338  50.3193320  49.4145754   8.4112114  15.8832419  36.8504572
   8.3554024  15.9865344  35.9004855   7.5725597  15.4943502  37.0987773
   8.8192310  68.8126649   5.9544161   9.5714846  69.1715564   5.4837349
   9.1976776  68.1763972   6.5611914  21.8062773  55.5902816   4.1788891
  21.2997141  55.9835722   4.8894862  21.4070358  55.9357394   3.3804539
  15.2024406  46.3700056  61.5619469  15.9500736  46.5284014  60.9855890
  14.4388432  46.5991116  61.0321712  59.2754745  24.5444679  56.8761015
  58.4335232  24.1190314  56.7137623  59.0570545  25.3163052  57.3984003
  57.5604077  58.1260385  22.5636652  56.9667979  57.3932912  22.3995283
  57.7973434  58.4422602  21.6918257  39.7471510   6.1639586  26.5582732
  39.2997204   5.7988777  25.7948855  40.3060566   5.4526654  26.8711832
   5.8931770  74.2435874  17.6774576   6.6795054  74.5465912  18.1314543
   5.3733387  73.8161577  18.3581236   2.1998161  49.1545820  44.3766832
   1.6740364  49.0065384  43.5906363   1.8470043  49.9611568  44.7524309
  73.2919741  26.0905266  50.4037952  74.1638517  25.7856655  50.1525688
  73.4319019  26.9837856  50.7180214   6.3566917  32.3750544  40.0340796
   6.5874523  32.3894525  40.9629345   7.1359581  32.7073932  39.5885110
  28.4076157  65.6342639  13.8600710  27.7930775  66.0118117  13.2307604
  28.5582962  66.3331594  14.4965247  77.3577976  13.0112159  52.6761341
  77.7873230  12.1562946  52.6469755  77.4325323  13.3473945  51.7830324
  78.2198048  27.7035928  47.3021078  77.6894331  27.7394199  46.5060854
  77.9206896  28.4489012  47.8229523  65.2030472  67.0300274  61.5200806
  65.0530819  67.3510449  60.6308746  64.7277454  66.2000548  61.5584326
  10.0421086  48.6298920  28.7502840  10.9706249  48.8296236  28.6311129
   9.7213783  48.4462382  27.8673056  29.1487255  68.6444725   1.5697268
  29.1742458  69.0009584   0.6817511  29.0893021  69.4144215   2.1353081
  56.9157982  27.5891900  64.0698671  56.8372107  28.1341863  64.8528337
  56.5363550  26.7480898  64.3244314  25.0891056  28.8278832  19.0031794
  25.2058115  28.1290229  19.6467665  25.1636400  29.6359201  19.5108679
  31.5287724  65.7798399  13.7353113  31.6638317  66.6950525  13.9810398
  32.2172871  65.3032364  14.1990212  50.1552054  61.7106427   6.5241698
  49.3913218  61.7424835   5.9482363  50.3995463  62.6276936   6.6488579
   7.6713985   5.1430351  54.6518850   7.0220703   5.7903641  54.3769789
   7.1674866   4.3403274  54.7859240  52.3690643  61.1094369  22.4404982
  53.0619373  60.7502593  21.8862894  52.7833786  61.2281980  23.2951811
  79.1298294  23.8063550  25.2121782  78.4159470  24.0345979  25.8075833
  78.7768507  23.0962205  24.6761346  32.8564648  73.0120634  60.5635071
  33.0460361  73.2191216  59.6483994  32.1469787  72.3708641  60.5219793
  11.1668629  45.1276875  45.9756327  10.8136791  44.7452164  46.7788839
  11.6259617  44.4048452  45.5479002  23.2486950   5.3609171   1.7369202
  23.6100422   5.6509629   2.5744942  22.8268706   4.5247593   1.9347361
  60.8564043  19.3555534  55.6442499  60.2562809  20.0622487  55.8822966
  60.3750229  18.5537016  55.8480549  20.9687561  34.3786001  46.8798113
  20.6774181  33.8023758  47.5864410  21.6553539  34.9151349  47.2759724
  65.5996609  25.1905346  52.3978472  65.6944036  25.8786964  51.7392969
  66.4869452  25.0524664  52.7293539  46.1266791   0.6854453   7.8268555
  45.6686531   0.8797827   8.6445788  46.6628014  -0.0813231   8.0290106
  77.4474569   1.7130924  60.7977724  77.5258204   1.9993664  61.7077923
  76.6288992   1.2175680  60.7722139  71.9250584  50.7274437  61.4861965
  72.2572803  50.7794094  60.5900049  71.0134983  51.0120296  61.4205933
  28.2681790  63.0945696  31.9210223  29.1253605  63.2062782  31.5099409
  28.1963673  62.1522273  32.0729044  12.9094611   1.0638514   7.7188423
  12.9917370   0.4481616   8.4471205  13.6988245   1.6028061   7.7705029
   1.9140568  61.3353695   8.8003424   2.3405113  61.6875328   9.5815876
   2.0281305  60.3876819   8.8718060  45.5574083  29.7758007  55.8082962
  45.7231236  28.9229941  55.4064369  45.5314064  30.3866339  55.0717926
   9.2501873  44.8432636  50.5829668   9.7833866  45.5562496  50.9345102
   8.9099449  44.3945312  51.3569880  58.6025429  38.4585094  51.7070532
  58.6220694  39.3434691  51.3427782  58.0145311  38.5222173  52.4596596
  76.7866611  38.7041354  40.7441235  76.6664076  39.0934277  39.8779678
  76.3311625  37.8637338  40.6943321  21.1098566  47.2803040  13.2498196
  21.6871538  47.8901626  12.7904347  20.2278366  47.5357427  12.9795817
   1.1437935  34.3739533  63.3940935   0.6250137  35.0288105  63.8612747
   1.8207497  34.8803806  62.9452181  59.1985260  20.9412804   3.1993798
  58.9846646  20.2556410   2.5666121  59.5524441  20.4694834   3.9532927
  38.0592858  18.5606280   3.1128815  37.1620308  18.3319082   3.3554772
  38.2493769  19.3518677   3.6169031  47.4623966  27.8020978  53.1100082
  47.4467659  28.6586332  52.6830006  48.2864618  27.4073243  52.8248644
   8.3255333  67.2204256  52.8676033   8.4867901  66.2871933  53.0065775
   7.9853577  67.5321960  53.7062359  62.1889945  39.3779780   2.5762966
  61.5047713  38.7282989   2.7375010  62.9895683  38.9694071   2.9055146
  53.0421864   8.3854714  11.2832287  52.5091778   7.7972641  11.8181494
  53.8072525   8.5756674  11.8261126   6.6791287  62.1890916  37.6352480
   6.8976822  61.5694989  38.3313540   6.9081631  61.7312302  36.8264559
   3.7430901  35.6010580  50.7386541   4.2694706  35.9487653  50.0187588
   3.9723438  34.6724772  50.7762480  34.9085985  10.2761212  20.0989798
  34.0302693   9.9589148  20.3091029  34.9070917  10.3721705  19.1466120
   1.4884739  12.9154911  32.6186732   1.2423878  12.0289698  32.3545721
   2.4447708  12.9209080  32.5775030   4.0922874  31.2287164  60.2343321
   4.2422051  30.5289865  59.5986176   4.8351711  31.8210483  60.1181841
  53.5123730  25.9831905  47.3793316  52.6933813  25.5242467  47.1926498
  53.3029222  26.5566182  48.1165838   6.7978710  19.4603908  31.7236018
   7.1690792  20.2019095  32.2017050   5.8821911  19.7007668  31.5822291
  76.3123894  47.3181248  44.7494936  76.1716986  46.8531275  43.9247417
  77.2436619  47.5393248  44.7438955  28.2916870  37.6001594  10.7328728
  27.7040329  38.0880436  10.1559380  27.7126446  37.0272567  11.2355879
  52.5919056   1.8708865  43.8494539  52.7638865   2.1062383  44.7611904
  52.7135801   0.9219077  43.8200140   4.3535275  29.7603083  46.2066221
   3.4060997  29.6273398  46.2371397   4.6390385  29.2728591  45.4338932
  62.2848892   2.8625566  51.5239239  62.8826761   2.2615041  51.0793734
  62.8474712   3.5692483  51.8406582  63.2820368  14.4533241  36.4157724
  62.8635550  15.3004241  36.2623858  62.9665852  13.8977754  35.7029700
  73.8111734  35.9325719  44.3522072  73.1908989  35.4888368  44.9306440
  73.2896900  36.6031742  43.9110994   0.1854176  27.0974874  56.3774252
   0.0097698  27.7311969  57.0729780   0.6100029  26.3643742  56.8229675
  70.4549929  19.0202035  15.7576254  70.6772324  19.8227216  15.2856043
  70.4246517  19.2838599  16.6773012  13.1380886  36.7470503  33.3556104
  12.4533505  37.2820020  33.7570858  12.6624149  36.0604763  32.8880906
   7.7732700   5.2680266  51.8120766   8.6705250   5.3943306  51.5035105
   7.8221077   5.4139799  52.7568197   6.6609278  75.3849615  12.8855589
   6.4052954  74.4936623  12.6479271   6.0276642  75.9438791  12.4352101
  71.4422417  25.6183910  48.7027454  72.2379541  25.9537959  49.1157627
  71.2894583  24.7743058  49.1274881  40.5860905  58.5926377  29.7006011
  40.8966736  59.4338631  29.3657708  41.2195305  58.3558785  30.3780460
  39.4823364  61.5007113  43.6449957  39.4542316  60.6131219  43.2877493
  40.3287796  61.8462919  43.3615398  35.5367266  11.7730990   1.9684199
  36.4208494  11.7052355   2.3289135  34.9847590  11.9744482   2.7240780
  22.9293385  67.3670758   6.1846140  22.3274746  67.0917453   6.8761185
  22.4959269  67.1062388   5.3719929  67.4034166  56.1783314  53.7799740
  67.9639769  55.4851627  54.1285753  66.5708160  55.7433319  53.5961866
  72.3033663  41.6827081  25.9991148  72.5905844  41.6909586  26.9121722
  72.8445002  41.0111599  25.5838755  63.0637121  39.9241638  50.8364820
  62.6761484  39.7713876  49.9746895  63.9868355  40.1015759  50.6559134
  78.7424322  71.5283908   9.3579701  78.2245012  72.1782221   8.8828924
  78.1297918  71.1470594   9.9868515  48.3307028  55.4405689  57.7774382
  48.2941771  54.4858456  57.8357124  48.2328272  55.7396269  58.6814404
  55.9967426  56.3105606  48.1648445  55.3658489  56.6000365  48.8239384
  55.4610924  55.9094202  47.4804497  51.2084293  33.1439948  53.5752964
  50.5715942  33.7878489  53.8853359  51.3930798  33.4050131  52.6730728
  60.7179356   3.5373834  59.2292261  61.5511084   3.9913973  59.3554258
  60.5255699   3.1482938  60.0823593   2.0419064  58.7738861  27.0153311
   1.7284670  59.6522011  26.7995718   1.2922373  58.2035460  26.8452242
   0.7553333  13.0944443  37.8466296   0.2258343  12.4484682  38.3141446
   0.8753056  12.7195394  36.9741130   9.4518223  73.8804163   3.4383324
  10.2975216  74.0599455   3.8491848   9.5730105  74.1294016   2.5220612
   1.7898029  24.0910196  24.3553686   1.0068363  23.8976097  24.8709226
   1.5557236  23.8412189  23.4614778  64.1059732  37.0402050  58.2272482
  64.9146986  37.5471997  58.2989979  64.3894672  36.1793756  57.9192972
  33.5893825  68.2198571  34.6655726  32.7860836  67.7551561  34.4310617
  33.8525585  68.6648118  33.8599777  19.2465964  46.3462146   9.4719771
  19.0690270  45.4405876   9.7260216  19.1331091  46.8480452  10.2791432
  63.7317078  35.6349316  27.9137400  62.8263365  35.7185354  27.6144961
  63.7589268  34.7892180  28.3612421  71.9477221  53.3307053   9.0587023
  72.7919098  53.2297839   8.6189392  72.1560761  53.2801868   9.9915865
  42.1024462  56.0121323  19.1247347  42.3804077  55.8807911  18.2182482
  42.7079841  56.6691186  19.4681338  23.3687615  24.1840506  48.7389135
  22.7628684  24.6753263  49.2936850  23.9061952  23.6853194  49.3542719
   4.1403189  73.1609811  19.6247557   3.6319914  72.8619303  18.8708285
   3.5637608  73.0162491  20.3749922  56.6292091  68.8028659  36.9481448
  56.4282366  69.2904033  36.1492995  57.4690434  68.3810939  36.7664412
  27.2719973  49.8475887   4.5444754  26.4547041  50.3339733   4.4363383
  27.9397779  50.4115953   4.1543511  60.1659452  21.2845984  33.1428316
  60.1065193  20.8853665  34.0107706  60.2047853  22.2255411  33.3141592
  74.0401141   9.7141733  30.0380877  74.9700753   9.5205107  29.9201945
  73.9722578  10.6583920  29.8964194  18.7207733  28.9519587   5.0987604
  19.3531119  28.5008993   5.6581572  19.2250763  29.2105379   4.3273667
  18.5502754  14.6987810  15.8505610  18.0491720  15.4629793  16.1354044
  19.3396078  15.0650158  15.4517439  75.4535572  15.2337637   7.5310019
  74.7330181  15.1946392   8.1599072  75.1772301  15.8893862   6.8906620
  70.8557527   1.7796269  27.3374060  71.3321166   0.9645977  27.4956301
  71.1115019   2.0385256  26.4520815   4.0777922  66.6027784  42.2606421
   4.4595972  67.4804831  42.2512054   3.1660086  66.7409611  42.5171328
  55.8502583  48.4566441  27.8057841  56.7626704  48.1672802  27.8079489
  55.6763230  48.6936608  26.8948439  19.3573319   8.4331837   5.7318619
  18.5409581   8.5516300   6.2173870  19.9593579   8.0448237   6.3666657
  62.7178355  57.9216184   3.8596037  62.9384490  58.1179895   2.9491118
  63.3951493  57.3075141   4.1430691   8.3600317   1.7198911  40.5962542
   8.2180892   0.7984796  40.8132437   9.3115746   1.8098989  40.5443552
  66.6799967  20.9180250   5.8594015  66.3237564  21.7948380   5.7161406
  66.3557391  20.4039850   5.1199034   7.2061144   4.7516575  15.6157473
   7.1341859   5.3855362  14.9021223   6.9611012   3.9156571  15.2191332
  77.4651115  19.3476238  53.2180289  77.6941340  19.7878256  54.0365580
  78.3048265  19.1972389  52.7838686  40.7260959   9.2367211  41.1032370
  41.1636739   9.7362366  40.4138544  39.8795669   8.9980545  40.7255343
   6.3567029  15.4377737   4.4833306   6.5313708  16.0496130   5.1984433
   6.4432346  15.9659233   3.6897305  24.9940538  13.8009739  39.9888539
  25.8164001  13.8445342  39.5009160  24.3800688  14.3209851  39.4703531
  74.0457098  10.1356402  33.3243922  74.4633095  10.4415741  32.5192526
  73.1080763  10.1655236  33.1341723  13.0388295  11.8419829  14.2352465
  13.7994801  11.3640585  13.9047459  12.4662458  11.1632529  14.5926026
  21.4504563  25.6793823  33.8741282  21.9902312  26.4290610  34.1248301
  20.6152092  25.8265486  34.3179015  31.4363896  34.0287056  29.4937113
  30.6527745  34.5067921  29.2223910  31.2811743  33.8171950  30.4142645
   2.3686563  19.3118515  39.0735415   1.5999447  18.9255085  39.4931296
   2.5000988  18.7865248  38.2842425  74.1974990  36.8686285  31.0883692
  74.9245112  37.4788990  30.9648398  74.5473211  36.1940375  31.6704157
  69.9747040  50.9487821   4.2846373  70.4185726  50.1475586   4.0066984
  69.0778615  50.6725992   4.4733980  76.6244547  20.4006806  19.1871622
  76.3808386  19.7708597  18.5087756  75.9580819  21.0853472  19.1287688
  21.4146068  72.0487322  12.2701386  21.5924033  71.4245977  12.9737547
  20.7024165  71.6497196  11.7703322  77.1451633   7.0432844   5.5648163
  76.2829344   7.2744456   5.9103039  77.0771997   6.1118832   5.3548077
  35.5937304  59.3983354  12.5997475  35.1895364  58.5729350  12.3322228
  34.9132200  59.8465504  13.1019858   2.7291193  40.9104432   3.9543560
   3.3513870  41.6367610   3.9927843   2.5019636  40.7410346   4.8686484
  31.0787487   6.0171920  34.7926903  31.5183282   6.8008804  34.4627929
  31.5519309   5.2894378  34.3893218  58.9677545  63.0566587   3.5894564
  58.7965795  62.1761073   3.9234618  58.8829800  63.6241235   4.3556336
  21.5908744  26.5549566  15.9551695  22.1463468  27.2834684  16.2325743
  22.0347675  25.7750096  16.2881449  30.7301927   3.7973356  50.4942989
  30.5564117   3.0719128  49.8944712  29.9155688   4.2998403  50.5047989
  24.7799945   9.0384948  59.5558929  25.6311035   9.0373635  59.1178942
  24.8690510   9.6908486  60.2506828  57.9345699  72.7175583  16.7849520
  57.3544522  72.1791305  16.2466315  57.8262421  73.6041559  16.4407996
  46.3193771  52.1651699  11.2095431  46.6571041  52.9878129  11.5637043
  45.5768093  51.9485916  11.7733839  60.8098766  53.3180298   6.0702113
  59.9692746  52.8697731   6.1634091  60.7734724  53.7170042   5.2008847
  64.9954601  56.3114263  11.9779471  65.8033129  56.4792253  12.4631766
  65.2717920  56.2608303  11.0629013  77.1537552  56.8239771  50.4469919
  77.1064005  57.7642476  50.2741289  77.0705733  56.4173900  49.5844364
  16.2722435  72.5270809  21.4250449  16.6672459  73.3971752  21.4810541
  15.6918707  72.4781646  22.1846560  72.1607300  44.9875166  16.1214045
  71.6596552  44.2862047  16.5377215  72.4608847  44.6093305  15.2949026
  11.5029278  67.7062144  32.1189192  11.5974941  67.0751180  32.8323725
  11.1953249  67.1850218  31.3773230  73.9500042  51.0839130   7.9032210
  74.4169518  51.9056286   8.0547932  73.5734936  51.1802222   7.0284632
   0.7322441   4.9465075  29.6802500   1.6518008   4.9572888  29.4146708
   0.4962074   4.0189018  29.6885756  23.3319079  12.1026507  31.0617903
  23.6269127  12.6358786  31.7999438  23.9140927  11.3428774  31.0673788
  66.5333553  65.0106229  13.6593798  67.4801155  65.0296940  13.5197047
  66.3354155  64.0904273  13.8334206  66.5908592  10.4030600  15.2393988
  66.3923244   9.4862643  15.4299048  67.2868578  10.3660765  14.5833138
  14.8808289  23.4860659  57.2854948  14.0053320  23.7753415  57.0284748
  15.3294158  23.3153677  56.4573240  49.9185201  53.7378110  46.2406710
  50.1087185  53.4455289  47.1320895  50.2442928  53.0317547  45.6824663
  75.4113003  70.3303327  15.7945231  75.1177307  71.1906304  16.0944250
  76.2030979  70.5106773  15.2878073  13.4054457   0.7956710  21.1634806
  14.1520344   0.2190008  21.3256052  12.6435624   0.2825251  21.4326361
   0.5752109  27.0123649  53.6212349   1.0798028  26.1998129  53.5840988
   0.2736413  27.0657945  54.5281124  29.6073126  43.8062288   9.3885401
  29.3734562  42.9016544   9.5965985  28.7725801  44.2746748   9.3850592
  77.0350023  70.1849999  24.8552111  76.1636730  69.8880614  25.1175955
  77.0301338  71.1260452  25.0302676  76.3904616  59.8102369  20.8383349
  76.3249251  59.0782370  21.4516142  76.4328333  59.3970980  19.9759272
  64.5923086  66.8011750   2.7393463  64.7434827  66.0235013   2.2021321
  64.7799536  66.5149392   3.6332634  43.1936502  44.3173075  62.9206419
  43.7285280  44.2454100  62.1300888  42.7844620  43.4568214  63.0120516
  78.9272492   8.5733071  18.2072523  78.9531104   8.1604281  19.0704420
  78.7973230   9.5037594  18.3906058  73.6987206  60.5150284  28.1418970
  74.0117451  60.6779732  27.2521189  73.9971539  61.2737002  28.6434820
  16.9684874  30.4205599  16.2542609  16.1934887  29.9819842  16.6053465
  17.4941717  30.6319561  17.0257548   8.9247950  57.5034036   1.2728241
   9.5827230  57.7542271   1.9212464   9.4193860  57.0407929   0.5963639
  33.5349872  73.4273161  26.5469435  34.1222449  73.1818642  27.2618655
  33.3289333  74.3474855  26.7114428  45.7831033  44.0524043   3.0768469
  46.2276789  43.5458805   3.7565687  45.8582159  43.5138466   2.2891024
  37.4588021  58.4442009  14.4463328  36.9565006  58.7101735  13.6761502
  38.3691152  58.4445323  14.1504267   1.1045109   2.7190247   3.2530955
   2.0181071   2.4700251   3.3929947   1.1386358   3.6556044   3.0584601
  17.7915226   2.2235503  13.9691332  18.3445965   2.8183117  14.4756869
  18.3581101   1.9125285  13.2631043  62.6010275  18.1051874  58.0303907
  63.3603144  18.1961071  57.4546766  61.8488359  18.2757330  57.4635124
  65.8375331  51.2626685  15.8473376  65.5703636  50.4955878  16.3537386
  66.2064525  51.8616022  16.4965037  70.1114985  64.0473546  37.9807356
  69.8601767  64.9585642  38.1316164  71.0332676  64.0920629  37.7266196
  11.1655341   1.7032805  40.9586218  11.7310797   1.8125525  41.7231158
  11.0511886   0.7563033  40.8786848   1.2002936  46.8448021  23.0449084
   2.0646420  46.5017094  22.8181437   1.1085930  47.6344271  22.5116995
  25.6319033   2.8337136   9.9578026  24.7489344   2.8209295   9.5884350
  26.0438429   2.0379129   9.6212986   3.0930271  74.8075022  37.8849009
   2.6805439  73.9527787  38.0095557   2.4422684  75.3197922  37.4050024
  76.7238824  13.0924978  10.9790448  77.5555603  12.7734509  10.6286839
  76.2939112  12.3103848  11.3249567  10.7128468  45.1433511  42.6775053
  10.3385296  44.2912544  42.9012183  11.5434542  45.1722004  43.1523588
  71.9016214  67.2344555  44.6641520  72.2066017  67.7705373  43.9321497
  70.9473034  67.2508158  44.5917204  56.8582579  58.4934582   2.9087189
  55.9902235  58.8406457   3.1141594  57.0141741  57.8269924   3.5778597
  47.7057978  48.9735724  14.6480349  48.5471793  49.0317871  15.1007155
  47.6689860  49.7633304  14.1084460  79.1674566  53.6052561  54.8890686
  78.9044380  53.8034344  55.7878351  78.3632612  53.6977577  54.3782425
  68.1765704  13.2697525  25.3711298  67.9116671  13.8503113  24.6576765
  69.0952675  13.0713120  25.1898840   1.2517058  40.2759733  48.2084349
   0.3632366  39.9533119  48.3592490   1.8169390  39.6230736  48.6213091
  77.3947136  20.4186239  16.2679175  78.0244200  21.1265698  16.4039782
  77.9127233  19.7059145  15.8938292  15.5667816   6.4193764  19.5830515
  15.9619557   7.0954457  19.0325907  15.2270113   5.7740822  18.9630678
  72.7929928  52.3803212  27.9564646  72.6279952  53.1744506  27.4481657
  72.3674919  51.6834618  27.4569014  11.2860394  63.5531998  62.5022173
  10.9588301  62.6658821  62.6499987  11.8998682  63.4637976  61.7732096
  47.2206150  13.1899395  38.4484938  47.2402226  12.3388996  38.0107954
  46.3755404  13.5662928  38.2026652  37.3050948  49.7029711   6.2727097
  36.6657456  49.2366292   5.7341984  36.9995066  50.6100764   6.2757138
  64.6911331  71.5550436   2.9205302  64.2049762  71.8674101   2.1574381
  64.5296022  72.2155346   3.5942438  24.7007595  10.9148970  52.6425055
  23.8805233  10.8876314  53.1351546  24.4588362  11.2883606  51.7950228
  20.5168542  42.6237370   4.4765213  20.6219646  41.6748653   4.4070509
  19.5877435  42.7751257   4.3031243  16.9615892  61.4404451  41.4168978
  17.6603702  60.8917116  41.7730331  16.1545185  61.0415207  41.7420578
  31.3629317  19.6130836  58.4692812  31.0320759  19.2157161  57.6637602
  31.9246817  18.9407551  58.8548231  60.8345120   8.7947026  15.1419810
  60.5289100   7.9351225  15.4317358  61.1220287   9.2297688  15.9446505
  43.6659702  59.7411217   5.8485106  43.9980646  58.9490093   6.2710074
  44.3788513  60.3743257   5.9326866  78.0708711  10.9451475  35.7385805
  78.5518973  10.7637015  34.9311617  77.3919623  10.2710905  35.7695368
  20.5082180  53.0380859  25.2520827  19.7393348  53.5637380  25.0313071
  20.2143505  52.1321012  25.1568583  46.3770151  53.0775595  62.8091335
  45.5270481  52.9644346  62.3836994  46.9920921  52.6110029  62.2432375
  40.1910816  18.2494822   1.6039637  39.8412453  18.2884159   0.7138327
  39.4179045  18.2867184   2.1670273  49.5099517  59.1529931   0.4094771
  49.8403689  58.5784115  -0.2811119  48.5585590  59.0571202   0.3660229
  19.2688071  13.0867090  37.0914152  20.0192295  12.5596371  37.3658255
  19.5666682  13.5331145  36.2988070  16.5916382   6.5329256  27.6977518
  15.7941853   7.0151081  27.4791125  16.2882601   5.7963934  28.2285288
   2.6996886  22.9078284   1.0330895   2.8725849  23.4364214   0.2540329
   1.7893230  22.6285353   0.9358290  47.8544950  50.1212025  64.2586851
  48.4884787  50.7467127  63.9079237  47.0440626  50.6234837  64.3431854
  34.9969669  61.9090785  33.3197096  34.7729393  61.2632550  33.9897517
  35.9122761  61.7263498  33.1074599   1.9836031  12.4077025  35.5092409
   2.5720345  12.6457730  34.7927931   1.8926965  11.4574375  35.4388026
  65.7518860  47.5403322  15.5485419  66.4209791  47.1717884  16.1253622
  64.9217888  47.2937353  15.9564188  58.3313962  56.4337577  37.2547510
  59.0638777  56.1553492  37.8044680  58.7428828  56.8875648  36.5192393
  75.1986425  23.2369795  30.7088831  74.4258039  23.1591025  31.2682513
  75.1264708  24.1089573  30.3207091   6.1882292   3.1640187  19.6356371
   7.0835816   3.2892695  19.3211726   5.9030997   4.0383520  19.9011114
   7.7924644   0.5929222  21.8418005   7.5632869  -0.2548299  21.4609793
   8.2325231   1.0626474  21.1333254  32.6700115  11.1851060  62.7596998
  33.2477522  10.6624448  63.3158207  32.1018028  10.5429578  62.3342371
  28.6644224  51.0752525  40.8022097  27.8700001  50.6826271  40.4403094
  29.3350094  50.4005791  40.6956175  33.7282645  15.1046267   1.6875580
  32.9443919  14.5845261   1.8643883  33.8791310  14.9986925   0.7482746
  64.6551081  64.7332491  21.9684199  64.2813727  65.5511274  22.2964838
  63.9467188  64.3307652  21.4659956   9.8749151  29.5864363  30.1247671
  10.0463524  29.4463183  31.0560110  10.1460781  30.4903568  29.9646738
  46.9110441  25.1952410  49.9478197  46.2690449  25.5894017  49.3573046
  47.5499058  25.8903837  50.1054955  18.2071594  69.8930841  64.4090605
  17.5467829  69.7360872  65.0839615  18.1838611  69.1068064  63.8636637
  30.7090116   3.1561810  55.7607317  30.2322221   3.8715070  55.3397655
  31.4724255   3.5771334  56.1559916  10.7699549  17.2377002  63.2971907
  10.3927541  17.7527380  64.0104151  10.1063001  16.5759242  63.1026459
  20.9828472  56.1449480  64.4606256  20.7717085  56.7522907  63.7515545
  20.1332498  55.9006786  64.8277092  16.7511487  26.2136078  50.8847046
  16.4491510  26.9771242  50.3926945  16.1749947  26.1774635  51.6482306
  12.0973669   7.0081320  10.3917101  12.2204148   6.1663332  10.8304241
  12.4514972   7.6519528  11.0051611  50.0739081   5.3930893  11.7589501
  50.5557205   5.9081116  12.4061325  50.7072251   4.7462168  11.4479903
   9.9480426  45.7249165  57.3046017   9.0782624  46.0969067  57.1585369
   9.9216431  44.8746061  56.8658495  61.0013267  58.0715527  22.5014189
  60.6389948  58.1229533  23.3858946  60.5857869  58.7935986  22.0300272
  24.8466277  23.1931877  46.2554979  25.3700662  23.7472725  45.6765032
  24.7552586  23.7053418  47.0589781  77.4707596  19.9568024  10.3959063
  76.5575664  20.2321854  10.3154686  77.5198810  19.5382061  11.2553194
  29.7476435   6.1796272  59.9215889  30.4792333   5.5730057  59.8074961
  29.8312211   6.7953020  59.1934490  40.7062578   5.6028253  57.2972822
  41.4455414   6.1933559  57.4420834  41.0549450   4.9180138  56.7265940
   7.7569652  45.1104832  53.0183840   8.3423930  44.8892736  53.7426567
   6.8787122  44.9449825  53.3611870  10.5430594  65.2592792  18.7853316
  10.2871552  65.1377119  19.6996477  11.4997187  65.2298917  18.7984351
  32.6043892  14.0249622  62.4537182  33.5580754  14.0960133  62.4944925
  32.4082327  13.1887352  62.8761864   6.5515696   5.4143324  21.3926104
   6.5508114   4.8552122  22.1695307   7.4188243   5.8194199  21.3898924
  60.2645632  58.9830245  31.8855933  60.6495329  59.6619024  32.4398115
  60.5732008  58.1603374  32.2652796  56.6040417  60.0778593  29.0002898
  56.9221493  60.8379759  28.5132006  57.3974630  59.6040549  29.2497423
  22.2279682  54.6845986  18.0156687  22.0739117  54.2534210  17.1750811
  21.3522520  54.8360910  18.3711985  15.2280927  52.3662090  62.6539326
  15.7102120  52.2047281  61.8429375  14.3920100  52.7330923  62.3665380
  41.4980058  13.6824503  47.6805189  41.4738707  14.5293226  47.2350291
  42.0959680  13.8156691  48.4159926   1.0032549  67.9184236  36.5696982
   1.6732588  68.1108321  37.2256735   0.1829853  67.9021682  37.0627764
  11.5524320  68.2142233  35.5498838  10.6381801  68.4900199  35.6155491
  11.5251187  67.4191510  35.0175810  26.0195051  47.6381912   3.5628012
  25.5026518  47.9312744   2.8123406  26.5395676  48.4031811   3.8088826
  68.1016823  68.4345569  23.5025099  67.3918720  68.3592929  22.8647593
  67.8156515  69.1266765  24.0986613  35.6052329  66.7586745   8.5288695
  36.3306882  66.1893906   8.7855032  35.1891860  66.3016905   7.7979067
  23.8012158  18.9768639  25.2835348  24.6703898  19.2659846  25.0057295
  23.8878619  18.0300703  25.3945044  78.0197712  61.6665615  32.1481875
  78.2430645  62.0531644  31.3014773  77.6045557  60.8325185  31.9286326
  44.9136087  72.7911462  15.1410368  45.1039299  73.2385959  15.9655360
  44.5473322  71.9472636  15.4054907   8.6815870  31.2904906  63.8197374
   7.9538667  30.9077573  64.3098116   9.1877913  30.5372691  63.5153580
  -0.0783385   4.4304695  21.0339335   0.8100497   4.7420445  21.2069014
  -0.0022687   3.4762993  21.0365561  10.8849870  14.4341316  21.8208292
  10.4057776  14.9651900  22.4568823  11.4412772  13.8660517  22.3537997
  70.2716351   3.3324456  50.2823544  69.6487284   3.4978741  50.9900618
  71.1014700   3.6819217  50.6071138  11.5276444  19.1004753  40.9163809
  12.2062683  19.0366518  41.5884113  12.0031989  19.3236482  40.1162100
  68.6483189  68.7492813  15.5574587  68.0326601  69.4696535  15.6925848
  69.2362972  69.0624632  14.8701266  37.0778918  69.3052006  58.4452343
  36.6337395  69.0722990  59.2605352  37.8825045  68.7867880  58.4542751
  15.9826504  40.6969204   4.2589024  15.2661835  40.0640335   4.2103270
  16.6603075  40.2528944   4.7686556   9.3312537   4.1386500  11.8809298
   9.0566145   4.7687807  11.2147930   8.6585604   3.4580507  11.8586281
  30.2679583  55.4282083   2.8871659  30.9712666  55.0771190   3.4333590
  29.5752304  54.7694375   2.9359654  55.9428698   6.6159326  40.2602625
  55.9812647   5.7419020  40.6486273  55.1035648   6.6370922  39.8005342
  54.2679875  21.0127535  40.4868868  54.7553434  21.3694611  41.2295035
  53.5884142  20.4690113  40.8853319  52.2442474   2.2548309  49.8383501
  51.3222309   2.3951569  50.0538233  52.5427184   3.0995789  49.5013884
   9.7105923  66.5795125   3.1088713  10.1901283  67.3962559   2.9702881
   8.8537350  66.8569054   3.4330347   8.4476434  24.5421400   5.5037335
   8.3395015  23.9625206   6.2577751   7.6835238  24.3660774   4.9547747
  42.2473487  60.1850976  13.8925865  42.5740596  60.5223693  14.7266939
  42.4353238  60.8809342  13.2627371  37.0835567  65.5218267  57.9505014
  37.9447079  65.1833582  58.1956244  36.5558290  65.4310989  58.7439108
   3.6133099  43.6724806  58.6840439   3.6396879  43.1576252  57.8775311
   2.7070308  43.6017036  58.9838457  56.6432142  37.9484344  57.9129410
  56.4077616  38.4851170  57.1561289  56.0804319  38.2685423  58.6179543
  12.3233786  50.1414217  24.2555502  13.0412331  50.6091453  24.6823481
  12.0136299  49.5229294  24.9171809  37.0158633  70.7859124   4.2101029
  37.2867819  71.4884080   3.6190537  36.1063405  70.6085171   3.9702442
  16.0677614  69.8386301  26.0578516  15.9677305  69.6951641  26.9989374
  15.8565083  68.9927234  25.6628302  28.3285379  57.1954775  61.1818218
  29.0650654  57.5765562  61.6598797  28.0363703  56.4685822  61.7318201
  31.9462858   1.7052427  10.9158400  31.0454165   1.9683638  10.7276133
  32.3512398   1.6041818  10.0544289   0.9445372  69.5458855  15.4282072
   0.3004589  69.3394889  14.7508648   0.7792750  68.9045037  16.1192587
  78.0086820  23.7307778  29.9152067  78.1321590  23.5048237  28.9932898
  77.0705192  23.6157885  30.0664118  66.0221645  32.4456813  28.5805872
  65.0665709  32.4169202  28.6279562  66.2840768  32.9658441  29.3402365
   2.2157728  14.7844639   3.4741333   2.3706256  14.3298664   2.6461294
   1.6146027  14.2132559   3.9522007  12.1337557  54.8141050  49.4999599
  12.5647092  55.6478739  49.3119717  12.1722937  54.7341061  50.4530334
  43.2190164  60.5945386  16.4244345  44.0455779  60.1119174  16.4346007
  42.7213832  60.2327432  17.1577147  60.2301022  53.7376036   2.8129128
  60.4310843  54.5337393   3.3048514  60.6092950  53.8888814   1.9471386
  72.7399955  72.0215758  61.5787125  73.2110975  72.8496798  61.4863062
  71.8165896  72.2726162  61.6017675  69.9407153   3.6481085  10.4942683
  69.4208317   3.7192478   9.6937111  70.3673272   2.7938261  10.4276923
  67.1708676  72.0740332   2.1675471  67.2899099  73.0199494   2.0820835
  66.3261148  71.9777002   2.6072577  37.7050396  66.3769855  12.3943785
  38.5251602  66.5459384  12.8581551  37.9703852  65.9151472  11.5990618
  22.0348303   6.1059084  36.7438963  21.2600510   6.0431042  36.1853197
  21.8719642   6.8720522  37.2940996   0.9351578   9.1975583   4.3833092
   0.6174221   8.2990541   4.4725636   1.6312733   9.2713989   5.0361517
  30.3475319  20.2435961  28.1674078  29.5676218  20.7136765  27.8724650
  30.8161389  20.8754959  28.7126997   5.6733074  65.7403554   2.6992586
   5.6452646  65.9519757   1.7661694   6.2464276  66.4064731   3.0788067
   9.7467028  37.5227061  28.5443190   8.8369762  37.2465983  28.6556223
  10.0107299  37.1449223  27.7053908  42.0426321  37.1303630  63.9123583
  42.6035738  36.7335320  63.2459497  41.7166996  37.9325604  63.5043430
  28.0775070  18.2812393  36.6543531  27.7748990  19.0799046  36.2221599
  28.3690596  18.5722208  37.5183892  73.2245537  72.7203263  22.7629355
  73.1627890  73.2117476  23.5820368  72.7523228  71.9059171  22.9360369
  38.8142177  59.3639507  34.8130110  38.6369296  58.4234633  34.8299006
  38.7840410  59.5967473  33.8850478  67.4157696   1.2558785  18.5479716
  66.9436292   1.6094890  17.7941302  67.8933613   2.0049634  18.9043501
  15.1516688  44.6374846  57.4181938  15.7842505  44.5194578  56.7095757
  15.6236494  44.3715811  58.2073450  24.6391617  23.9067831  15.2945498
  24.2411696  24.2614498  16.0895708  25.5507838  23.7425509  15.5358198
  49.9956103  72.9426016   6.0665873  50.5174848  73.6073317   5.6171301
  49.2837783  72.7450051   5.4579190  75.6815092  29.0338078  30.1640776
  75.3448598  28.9176359  29.2755965  76.1241691  28.2085839  30.3622893
  14.5556808  39.6850419  57.2608471  14.4776940  40.4869127  57.7777147
  15.1790619  39.1459537  57.7476835  62.1540785   9.0717626  65.0650358
  62.1372032   9.8840952  64.5590067  62.9868174   8.6614799  64.8316908
  52.0036650  48.2009077  46.7084217  51.4254856  48.3501673  45.9603167
  51.5405178  48.5897446  47.4504042  51.8245983  17.8583741  55.5653381
  51.3731337  17.6700640  54.7425699  51.4336634  18.6768293  55.8711720
  57.7197266  42.4072933  45.1156139  57.0386267  42.4158478  45.7881212
  58.1409931  41.5532207  45.2122211  58.4284755  57.6636495  12.1730307
  59.3081065  57.9250635  12.4453238  58.1340715  58.3727206  11.6013888
  40.2721916  52.4354019   5.7717017  39.9723660  52.8988018   4.9896553
  39.7935044  52.8460732   6.4917258  41.5222105  58.7474646  48.8444403
  42.2366651  58.4157480  49.3882731  41.0744139  59.3852915  49.4002131
  28.6368166  30.7392063  38.8624457  28.7246643  31.6651192  39.0887144
  27.7007281  30.6195536  38.7022856  19.6249615  11.2824764   1.3398150
  19.6156393  11.8579140   0.5749539  20.3851687  11.5691080   1.8459347
  53.1026908  40.8346547   1.1627749  53.4284755  41.4588101   1.8112543
  52.3487517  41.2719707   0.7670954  27.4520575   6.3535824  11.8887118
  26.6986357   5.7934323  11.7021206  28.1864821   5.9197035  11.4544371
  32.6458298   2.0457378   8.1253508  32.5529944   1.5140524   7.3348311
  33.5914122   2.1348920   8.2443503  66.8703505  67.5452079  33.0902937
  66.7529484  66.8286671  32.4665716  67.8130146  67.5673546  33.2549837
  13.8149391  19.2507878  13.3938578  13.6277663  19.3892374  14.3223122
  12.9618655  19.3179884  12.9649285  43.1120110  12.1470380  51.4020205
  43.3550119  12.5055063  52.2556496  42.8002310  12.9031384  50.9046888
   3.3612623  61.1718430  15.2567843   3.0817547  60.6860174  14.4808415
   3.9623490  61.8361844  14.9197748  77.6466458  15.3099623  27.4237040
  76.7486207  15.2877894  27.0931128  77.6511733  16.0279360  28.0567339
  16.1053883   3.9220419  23.5321883  16.8162190   3.5714951  24.0689162
  15.3069340   3.6453190  23.9817694  79.6238034   2.5110903  30.7777193
  79.2150466   1.6776409  30.5442503  79.2197172   2.7507200  31.6116980
  65.8156725  61.4820422  40.1962260  66.1683103  62.0174135  39.4854143
  65.7386061  60.6052102  39.8201159  36.7256724  24.3549052   4.3220261
  36.7759072  24.0690079   5.2341488  35.9951197  24.9731484   4.3046931
  38.6277043   0.4744473  27.2225359  39.4811522   0.5482855  27.6496294
  38.0272423   0.2321806  27.9275015  48.2677174  52.1912813  60.7004309
  48.0162573  52.3690033  59.7941113  48.5304403  51.2708426  60.7000065
  53.2729479  74.0419902   7.9030398  53.0601975  74.9416079   7.6547364
  53.3460137  73.5747279   7.0708397  24.6915041  13.5744276   7.9413727
  24.8538624  12.6716175   8.2148817  23.8484799  13.5398188   7.4893311
  22.9196634  21.8422856  17.2943285  23.6829176  21.4368667  17.7058009
  22.1749058  21.5224745  17.8035334  59.0603849  63.2094039  25.9182814
  59.1855451  63.9897169  26.4583567  58.4117814  63.4717526  25.2650526
  72.1831799  58.8671017  64.7291422  71.8113375  58.0846310  65.1362133
  71.5948868  59.5755577  64.9903584  68.8287990  22.6589146  31.0752657
  68.7961547  23.5601702  30.7544783  68.1991880  22.1875468  30.5297068
  29.6195065   4.0869417  36.7366484  29.9933182   4.8318711  36.2659243
  30.3779208   3.5686579  37.0057658  54.3236920  66.3577809  26.7736986
  55.1023766  66.7534818  26.3821581  54.3343779  65.4518236  26.4648989
  51.1159372  68.7553072  54.3428183  50.2058363  68.8307619  54.6296215
  51.5220928  68.1735563  54.9853373  32.2166668  26.4852753  43.2824972
  31.7340838  27.2404375  43.6187628  32.6719986  26.8172112  42.5087241
  39.6902691  17.2487869  28.3014944  39.1797625  16.5277376  27.9331091
  40.6004702  17.0157948  28.1185129   8.1773864  22.7686444   7.6705387
   7.2370516  22.5899258   7.6782254   8.5665761  21.9868603   7.2786549
   1.7728053  32.7334204  11.9874981   1.9465886  33.6064997  12.3392943
   0.8672177  32.7749005  11.6802147  58.7222668  66.7497029   8.8060215
  59.2736598  67.4999227   9.0282038  58.8221975  66.1513771   9.5464638
  56.2241650  56.5365696  51.2620020  56.7253447  57.2490168  50.8651733
  56.2688780  56.7073345  52.2027826  62.8395002  10.4327669  30.7688597
  62.8910939  11.3395968  31.0708979  63.2637720   9.9253502  31.4607790
  31.6326510  13.3754149   1.9823626  31.3643347  12.6541510   1.4131382
  30.8122956  13.7987557   2.2353962   6.8137922  44.3582226   6.1829022
   6.6958561  44.0151359   7.0686892   7.6083937  44.8893191   6.2355879
   4.0818482   6.7860451  33.3773688   4.2613583   7.4759999  32.7386454
   4.4200878   7.1308127  34.2037848  34.3662535   8.4959116   9.1673449
  34.9005686   9.0614691   9.7249153  34.6061932   8.7440529   8.2745484
  37.6714250  63.7672319  18.7655619  37.8144082  63.1747116  19.5036105
  37.8913613  63.2457127  17.9936388  42.0835447  33.2965398  65.1610136
  41.4521837  33.5645056  65.8287048  41.8303633  33.7893605  64.3804646
  76.5096089  61.1003579  64.4149950  77.0636221  60.6192269  65.0296667
  76.8796059  61.9830193  64.3994311  27.0720755  12.7922955  14.4520787
  27.9017102  13.0831566  14.0734795  26.5141951  12.6108303  13.6957243
  55.5496407  15.1795566  52.0831776  56.0561800  14.4087338  52.3390675
  55.9482098  15.4660988  51.2614298   2.4268113  15.7360068  14.6635655
   2.1754371  16.0190430  15.5427340   1.6818153  15.2196493  14.3560150
  74.4421669  72.1439852   8.4398964  74.4886681  71.7643537   9.3173626
  74.3994089  71.3882984   7.8539398  27.3358427  62.8127041  21.0882357
  28.1684290  63.0092659  21.5176466  26.7529427  62.5551071  21.8024519
  28.7700688  28.5998907  10.5437449  29.6195017  28.9983788  10.3542546
  28.1768833  28.9812508   9.8965004  18.8464342  22.6759091   3.9959124
  19.5128666  23.3393803   3.8172987  19.1912495  21.8767634   3.5975388
  21.3360392  19.2260685  38.2489947  21.8250405  18.9323559  37.4803332
  20.4729115  18.8238087  38.1518629   0.1445328   0.9039774   1.2655428
   0.4597412   1.4314046   1.9995001  -0.4965891   1.4631119   0.8267239
  72.9448986  35.9773874  58.2213736  73.8669014  35.9156013  57.9717255
  72.9487658  36.4966536  59.0254736   5.1135670   6.0071459  24.1439417
   4.9355446   6.8032732  24.6446589   5.4348241   5.3822127  24.7939280
  53.2330929  23.2252445  18.6077956  53.0207287  22.5385132  19.2398814
  53.1164776  24.0419426  19.0932253  69.3311732   2.5454560   1.0581330
  68.4779982   2.7099409   1.4597205  69.8105423   2.0383921   1.7133644
  47.6667162  60.2032770  20.7142809  46.9802257  59.9392213  21.3268450
  48.3706399  60.5347885  21.2717894  27.1474301   3.8518896  33.9609221
  28.0173003   3.4796038  34.1056898  27.0403801   4.4913950  34.6650580
  47.3106718  21.3484645  56.0275173  47.9828262  21.8994689  56.4285564
  47.4299288  21.4722586  55.0858784  40.9709057  55.7248141  28.7153033
  40.2549513  56.2847819  29.0154341  41.7108306  56.3215925  28.6030653
  46.8072172  52.1778359  55.2357462  46.2828919  52.9754378  55.3074816
  46.2532397  51.5703096  54.7455958   0.3710356  66.4201583  12.0938185
   0.6047192  66.4697470  11.1669091   1.1755982  66.1380042  12.5289038
  53.4995461  60.0844765  60.7300282  52.8058672  60.5405140  61.2065554
  53.1726217  60.0222826  59.8325443  63.2706853  54.5011212  25.7963732
  62.5186440  54.4885625  26.3884142  63.0039927  53.9524986  25.0587347
  51.7350551  52.6947667  38.0712965  51.1224671  53.1267215  37.4759940
  52.2311159  53.4118213  38.4662417  15.6061589  16.8584099  11.9795874
  14.8181664  17.0850601  12.4734810  15.7621323  15.9370747  12.1870592
  46.2517630  13.3830109  15.5175188  45.6608712  12.9292336  14.9165419
  46.9937455  13.6443176  14.9721602  72.5331875  66.2670030   5.9962109
  71.6312929  66.0630240   6.2436131  72.4532744  66.7387785   5.1671913
   4.6209227  43.3769741  18.9742449   3.7641059  43.4153500  18.5492400
   4.5368301  43.9516773  19.7350863  52.2604656  45.5477571  56.0037661
  51.6336536  45.3788996  56.7072058  51.8009281  45.2866888  55.2057076
  56.5920353  51.7550373  64.7202110  55.8446693  51.7961359  64.1235638
  56.9319201  50.8661318  64.6174860  26.7594992  18.4606304   8.5235194
  26.1909710  17.7183190   8.3186129  26.2185799  19.2313185   8.3512286
  20.6246050  61.4778413  10.3063610  20.1352372  60.9026422   9.7182349
  20.0223693  62.1980919  10.4928664  23.2352196  22.4035254  21.1063841
  23.6119734  21.9228926  20.3693083  23.0301319  21.7281809  21.7529753
  72.8187367  65.3957595  14.7394923  73.1344076  65.7956971  15.5498198
  73.5879608  64.9608411  14.3715647  53.5154867  42.6398182  53.9965868
  52.7794504  43.2512951  54.0205526  53.8091183  42.6540327  53.0856466
  17.5280657  65.0187720  10.2919892  17.5458326  64.1954841  10.7799605
  18.3490601  65.4526366  10.5242804  27.3272215   3.1213703   3.4304121
  26.9128691   3.7020579   4.0686539  27.7346932   2.4356833   3.9595965
  32.6552426   2.0711413  47.7612475  33.0333935   1.2242069  47.5247362
  32.1642243   2.3394742  46.9846323  74.1117573  35.2896929  61.7899323
  74.2929649  34.5924854  61.1596155  73.1566858  35.3192353  61.8464041
   4.1751852  41.3037171  35.8282164   5.1132813  41.3182582  36.0179404
   3.7721577  41.7393865  36.5792158  13.6305796  14.9446144  34.3199328
  13.1290685  14.2576161  34.7589663  14.3540465  14.4807997  33.8983801
  20.4733168  30.9547606  32.2574976  19.8845230  30.8463040  31.5106467
  20.2903591  30.2008429  32.8181818  12.1115341  74.2958464  18.4530333
  11.7837610  74.3509020  19.3506792  11.3246575  74.2027272  17.9160097
  21.4524924  27.8348294  19.2277125  21.8488156  28.1886664  18.4314993
  20.9265124  27.0946398  18.9248923  12.8342667  57.3526241   5.4421452
  12.1745863  57.5643911   6.1026076  13.3743849  56.6765274   5.8512858
  56.8004891  66.5476717  25.4718092  56.9567152  65.7345046  24.9916151
  57.0100971  67.2400393  24.8449782  11.7963849  33.3221474  35.1998022
  11.8676482  33.7482300  36.0539702  11.0560452  33.7567177  34.7763899
  58.7739770  17.5606718  24.5720270  59.2982452  16.8171253  24.2745093
  59.4181441  18.2211056  24.8271921  63.4500118  66.8764819  22.8749255
  62.9651471  67.6239886  22.5251082  63.2411023  66.8714179  23.8090399
  26.9216286   9.0994349  22.5551680  27.3063647   9.7966614  23.0862788
  26.6001164   9.5450678  21.7714098  70.7466456  73.6096920   8.7277296
  70.1266142  72.9831495   8.3545903  71.1784741  74.0006293   7.9681757
  50.4383966  47.3366954  43.8053969  49.8358341  47.7674498  43.1990984
  50.0303074  47.4430825  44.6646860  61.0285255  64.4892015   2.4460581
  60.3649064  63.8367786   2.6700857  60.6790324  65.3128685   2.7861384
  18.2169186   0.0334993  33.8699988  17.5394331  -0.4136381  33.3627394
  17.8156172   0.8639946  34.1258696  56.3146687  19.2298353  64.1828823
  57.2425652  18.9950573  64.1717386  56.2763023  20.0298166  64.7070885
  71.6291090  67.2552098   3.4258917  71.6780707  66.9486894   2.5204209
  70.7571646  67.6429571   3.5006789   4.2282616   7.9004994  10.2328804
   4.8292886   7.3455992   9.7358063   4.1630875   8.7045803   9.7176770
  13.9421402  16.7647257   2.3493746  14.2328392  17.0549145   3.2139662
  13.3793389  16.0109749   2.5264242   3.5977684  11.1439076   2.6945284
   2.7023088  10.8441630   2.5378874   3.7010967  11.9012156   2.1182993
  79.0088122   5.5504885  14.4171503  78.1818907   5.0719156  14.3588522
  79.4250099   5.4140749  13.5660294  16.2087523  56.4407101  25.9635714
  16.9068228  55.7967129  26.0827235  16.4149081  57.1358052  26.5885428
  31.6616474  32.0258608  10.6717947  32.2233616  31.2561789  10.5807188
  32.1631657  32.6241961  11.2256077  74.4813725  58.4542669   1.2397793
  74.4063421  58.8193573   0.3581265  75.1854797  58.9577522   1.6483858
  10.1243435  29.2974367   7.3821047  10.0932871  28.4004059   7.0495299
  10.8244191  29.7148504   6.8802145  48.5024582   8.8967123   0.7811383
  48.8228260   8.0272999   1.0213879  49.1619526   9.4987097   1.1259631
  49.6203613  49.5542622  45.9718895  49.7562408  49.4487810  46.9135046
  49.9956656  50.4114246  45.7702780  43.0242058  59.8649801  23.1086424
  42.9279121  60.6645312  22.5912646  42.1388003  59.5049228  23.1601218
  58.2864666  19.7015190  56.7152691  57.7888441  19.8615479  55.9134007
  57.7091789  19.1573155  57.2508192  66.3886564  16.3120690  42.6519659
  65.7131104  16.9426956  42.4026087  66.9418757  16.7865267  43.2725123
  79.0639274  15.5199709  39.8043898  79.3817251  16.4221611  39.7684744
  78.9829938  15.2578583  38.8873461  17.9184090  11.6248980  24.4804934
  17.2405421  11.5842858  23.8058928  18.3076512  10.7504168  24.4818571
   1.2586366   3.0562201  49.0814761   0.3948103   3.4522763  48.9667013
   1.8734323   3.7452450  48.8294772  30.9304943   4.3607546  62.4530268
  30.3698101   3.9931847  61.7698240  30.3198185   4.7260166  63.0932426
  19.3324557  68.7054981  25.9591368  19.2111912  69.2706718  25.1961783
  19.2576590  67.8162851  25.6128195   5.3905689  26.6774550  17.1985606
   6.0117708  27.3717394  16.9787672   4.7125708  27.1164742  17.7121905
  35.3844296  10.1335945  24.3347719  35.6938015   9.2288866  24.2897108
  35.5504595  10.3987208  25.2394083  33.2949864   4.3273344  14.6305683
  33.8131558   3.8897839  13.9550808  32.6142775   4.7938767  14.1455868
  72.0912739  70.9081663  38.4143523  72.4184939  71.6027321  37.8427389
  71.3835522  70.5006232  37.9150847  38.2162272  11.8614903   8.0357388
  38.4298788  12.7785292   7.8636149  38.7196242  11.3720885   7.3851183
  58.1020199  24.9078360  11.7977360  58.5732781  24.9730721  12.6283339
  58.5869252  25.4787197  11.2017563  78.9960285  18.3497978  58.4732676
  79.3567749  17.9654194  59.2722321  78.2223841  18.8308311  58.7670565
  68.2685085  55.9561815   4.8765972  69.1341110  56.0314204   4.4749716
  67.8494497  56.7989041   4.7021273  38.2585322  17.2207203   9.9414090
  38.0221735  18.1424036  10.0456503  37.9074513  16.9788733   9.0843943
  65.9448195  66.3309622  65.2402735  66.3310099  65.6082010  65.7349491
  66.2509727  66.1977625  64.3431854  30.3669407   8.0362297  58.0844116
  31.2045877   8.2983852  57.7024984  29.7266289   8.6243893  57.6840305
  46.3970503  12.1376110  65.1097441  47.2162124  12.5814129  65.3293943
  46.5831658  11.6845013  64.2873764   7.7814113   2.1835246  34.2533854
   7.9224383   2.4382582  35.1652315   7.0611249   2.7403488  33.9578131
   2.6095190  70.5725707  11.7206076   2.4705448  70.7668056  10.7936838
   2.3012962  71.3548412  12.1780804  44.0409466  54.6625663  10.2409056
  44.7155949  54.5529927   9.5707777  44.2948302  55.4582562  10.7085112
  77.5548311  61.6977681   2.8924635  77.4286648  62.4326171   2.2922066
  77.9818865  61.0254492   2.3615721  11.1583840  20.7516184  16.0264948
  11.1825048  21.0121193  16.9472483  11.8336617  20.0774803  15.9505347
  19.3926370  68.0735922  61.7754126  19.7729397  68.9486074  61.8525839
  19.1388237  68.0030584  60.8551741  73.6084335  30.0034657  15.3537825
  73.3200519  30.1536360  14.4534949  74.5605294  30.0958052  15.3188589
  69.3627875   6.0845700  43.5575369  69.0129583   5.2241078  43.3263377
  69.0774588   6.6581192  42.8462962  74.1724984  32.8472891  35.1406077
  73.9462106  33.7647906  34.9882296  73.8041012  32.6495543  36.0016611
  52.0260893   4.8009196  15.6943014  51.6507088   4.4253912  16.4907244
  51.4403902   4.5123997  14.9943426  64.0224405  60.0570788  14.2807320
  63.3565398  59.4180359  14.0268973  64.7678491  59.5270099  14.5629195
  44.6172142  55.2986383  61.3076878  44.0215635  54.7509289  60.7963705
  45.0674248  54.6853352  61.8885517  75.3532259  20.6209936   1.1122683
  75.0211470  19.9446287   0.5219391  75.9584706  21.1319056   0.5747917
   2.0207273  37.2890845  26.5472105   2.2292529  36.7290869  25.7994440
   1.4738117  37.9839983  26.1808661  35.2511441  30.9452620  35.7653025
  34.3739830  31.1019268  35.4156187  35.8156954  31.5396013  35.2710608
  49.5739603  19.5226014  50.2471495  50.0583839  20.0006318  50.9202385
  49.0087843  18.9255154  50.7373476  70.0476357   7.1598507  51.1816263
  69.3675991   7.7615715  50.8787823  70.4848381   7.6302124  51.8914509
  20.1897751  12.1627465  44.9999312  20.9405218  12.2763958  44.4171027
  20.1702248  12.9633560  45.5242136  77.8528067  60.2937807  12.2539643
  78.5810515  60.8178128  11.9203690  77.2760006  60.1772751  11.4990118
  59.5313524   6.9521895  10.2196816  60.2353464   6.3477030   9.9846915
  59.9658983   7.6431933  10.7195977  15.1758471   0.6409050  61.2183237
  16.1148920   0.6770683  61.4003134  15.1135197   0.2102448  60.3657532
  11.3579073  60.7346334  12.4579838  11.5656080  59.8163165  12.6305703
  11.2325564  61.1189999  13.3256129  63.9871693  46.6826439  40.9903431
  63.7746668  45.7785416  41.2220192  64.4315052  47.0299721  41.7637491
  46.5893698  72.1590281  61.9611216  46.5467930  72.1505976  62.9173374
  47.1579361  71.4213610  61.7401791  76.3957930  73.1035137  59.1716337
  76.4785719  73.2955551  60.1057100  76.7328978  73.8860273  58.7354374
   4.7184717  16.5201655  18.1263522   5.6405650  16.4448538  18.3719233
   4.6986901  17.2302904  17.4848250  24.3275391   0.3302279   4.2556790
  23.9590966   0.4201260   3.3768204  23.7092196  -0.2357182   4.7178677
  62.2741413  50.2371931  49.5203972  61.8318272  51.0393429  49.2426443
  62.9986095  50.1370335  48.9028645  47.3342562  54.3171787  64.8393869
  47.0393133  53.7593889  64.1195869  46.5278721  54.6737099  65.2120304
  78.3803265  53.1348934  30.6778792  78.5462968  53.3859482  31.5865305
  78.6127584  52.2071400  30.6394461  70.3156185  54.9978781  40.3373098
  69.5785379  55.2313042  40.9016275  70.1588917  54.0826368  40.1049232
  58.4623957  36.2142611  49.8260736  59.3057919  36.4496875  49.4394350
  58.3579636  36.8198347  50.5599689   9.4382154  13.7792435  28.8206080
   9.9993049  13.0142441  28.6933878  10.0228821  14.4486561  29.1759756
  22.3555651  66.5623059  18.9116171  22.3423186  65.6069507  18.9695242
  22.3298254  66.7457141  17.9725054  72.9043232  36.6499796   9.1650132
  72.2711788  36.0592070   9.5728567  73.6788021  36.1068812   9.0185049
  80.0214818  17.4420106  61.0249186  79.7785642  16.5161860  61.0165262
  79.5152490  17.8159237  61.7461348  23.4407715  74.9073588  58.3820772
  22.5761083  75.0682028  58.7598610  23.2735828  74.3264677  57.6398897
  51.3241240  19.1377939  32.0915774  50.4538938  19.0724446  32.4848440
  51.8588968  19.5622052  32.7624873  56.0778323  69.8200225  55.0898457
  55.4794863  69.0769963  55.0115728  56.8822542  69.5257955  54.6625662
  42.7270385  50.3666999  26.2866858  42.7047225  49.4545044  26.5758780
  41.8079265  50.5980410  26.1527136  26.0227668  67.5565781   8.8166645
  26.6378653  67.2757401   8.1391552  25.2832087  66.9546594   8.7331274
  26.8835902   5.3138429  63.9981842  26.1921716   5.4671502  63.3542347
  26.8185735   6.0549670  64.6004629  57.9692336  34.7944446  11.7654255
  58.2120105  34.2046811  12.4791983  57.0734235  35.0623651  11.9702938
  72.2617779  69.1123932  51.6913366  71.8455634  69.8810600  52.0813990
  71.8890092  69.0588515  50.8113337  56.4600989  73.4487070  28.6561182
  56.3937088  73.1285085  27.7565077  56.3202830  74.3929805  28.5851839
  27.3337511  63.2248413  57.5328445  27.5254539  62.8036355  56.6949463
  28.1610063  63.1902205  58.0131340   2.4392214  41.5179049   9.1090515
   2.9568854  42.3224606   9.1398075   1.7769947  41.6329883   9.7905520
  10.0172547  66.1298226  39.9749947  10.2482585  65.2136635  39.8216271
  10.4675726  66.6099410  39.2800617  20.4937176  54.1451191  42.4453783
  19.6775535  54.4289803  42.8571177  20.2480081  53.3753942  41.9321680
  25.0598168  12.6533425  63.6123419  24.4715166  12.4070632  64.3261242
  25.3873467  13.5181403  63.8594866  13.3009243  21.8526006  29.8298454
  14.2146778  21.6562414  29.6231318  12.8357124  21.0333228  29.6607423
  60.2598234  35.3398244   9.2218331  59.7802778  35.6224603   8.4431294
  59.5861264  34.9868243   9.8030022  55.9263750  45.7198210   2.2109869
  55.8055659  45.9617342   3.1291989  56.8448635  45.9191252   2.0296410
  79.2322226   8.4394091  60.0856256  78.8815138   8.7333125  59.2448807
  79.9696841   7.8750861  59.8534155  53.2522174  22.9195930  10.4374722
  53.8938566  22.2605981  10.7025317  53.5635921  23.7315501  10.8374766
  17.3814058   2.4990615  44.0059423  17.8904426   3.0020159  44.6416712
  17.3180974   1.6238783  44.3884039  32.8213314  63.7109350  44.3165016
  33.5526565  64.3191313  44.2092991  32.0998148  64.2566918  44.6292257
  13.8464665  27.6374578  47.5542688  13.9973390  28.2264662  46.8149853
  13.1011164  27.1007895  47.2846889  61.6155859  44.0252580   5.7044438
  61.4890715  43.7870510   4.7860316  61.3404080  43.2495876   6.1931637
  43.2339140  53.1797458   0.1566056  42.8946742  53.7165500   0.8728388
  43.1832179  53.7470593  -0.6126901  52.9695307  10.6207028   7.5954369
  52.7319657   9.9670687   6.9377449  53.4214054  10.1221695   8.2762507
   1.2038139  71.7684387  58.2123995   0.7838754  71.0109990  57.8047609
   2.1416262  71.5944149  58.1320572  10.5761743  31.4910960  57.0826292
   9.6826750  31.2082601  57.2772932  10.9615302  31.6740632  57.9395151
  48.5589361  14.4061816   8.9345407  47.7845144  14.1157842   9.4163775
  48.6385107  15.3360915   9.1470695  63.6439224  13.8974036  10.7456902
  63.4661003  14.6570291  10.1910952  64.4042989  14.1543807  11.2672499
  74.8013016  49.7535660  18.9952639  74.1375919  50.1774503  18.4511641
  75.6213709  50.1820745  18.7501124  44.5847702  16.7161787  40.1752949
  43.9088678  16.8404615  40.8415890  44.2388248  17.1554017  39.3983531
  74.4609413  72.8532462  16.5465415  74.3464169  72.3033761  17.3216283
  73.7110457  73.4479367  16.5618443  24.3555737  10.5913842  41.9000053
  24.4134641  11.0992873  41.0907412  25.2660441  10.4231286  42.1428347
  46.7654514   0.8125976  46.6222191  47.5633049   0.2839855  46.6374111
  46.9187546   1.4578494  45.9320164  56.8761774  47.4821158  21.6089609
  57.7215143  47.7656867  21.9571284  57.0928427  46.7776664  20.9981898
  58.7292095  55.1277651  34.1692618  59.1818567  54.3415488  34.4745615
  58.5535880  54.9588110  33.2436064  54.4910141  74.0187206  10.5062798
  53.8011666  73.8988413  11.1589459  54.0680643  73.8186564   9.6712235
   7.8687958  70.7110318  63.4410763   7.3328570  70.8820580  62.6666403
   7.9080252  71.5524243  63.8957739  35.6209755  11.3713896  52.0939970
  35.8224249  11.1176813  52.9947090  36.4606118  11.6534710  51.7311287
  19.4540440  14.9481001  22.2602633  19.8985754  14.1297045  22.4812964
  19.1999136  15.3184929  23.1055144  35.1227283   6.9429594  57.4913549
  34.2704558   7.3616421  57.6120472  35.4859829   7.3600346  56.7101192
  55.9336420  67.6757564   0.2429846  56.5720483  68.3889665   0.2428940
  56.1329766  67.1759810   1.0346440  75.8391424  53.1055953  15.6573180
  76.0907503  52.1820666  15.6616095  74.9160811  53.1011810  15.4039934
  11.1970866  10.6882095  44.3147230  11.3804400  10.2833998  45.1625109
  12.0311451  10.6517029  43.8464832  53.3963677  75.1155509  34.2704085
  53.5996386  74.5296420  33.5412863  53.0262014  74.5426764  34.9419859
  29.5861459  25.9463573  53.1763077  30.1444507  25.4648590  53.7867880
  30.0102782  26.7996860  53.0859184  64.8959752  39.6692215  18.3070162
  64.8908659  39.3174701  17.4167994  64.9529930  40.6174727  18.1895331
  49.0225812  35.7308172  10.3362492  49.7523662  36.3475113  10.3939894
  48.8075706  35.5282538  11.2467268   0.3798298  64.6718883  48.1368160
   0.3260115  63.9423036  47.5195265   1.2462858  65.0497364  47.9860830
   0.9616689  66.4480220  57.7770853   0.2387551  66.0338991  57.3057795
   0.5352668  66.9982027  58.4341335  43.2292175  22.0071840  29.2666602
  43.8038015  21.7732286  28.5377216  43.2800961  21.2589264  29.8614335
  35.9469345  60.9276880  19.6876505  35.9728649  60.6392659  18.7753084
  36.8234726  61.2743153  19.8542765  73.8433643  62.5299682   4.0863207
  73.0106970  62.4884762   4.5566109  73.6784311  63.1310071   3.3598355
  65.5110165  56.3983025  43.2241228  64.7634741  56.5925791  43.7895182
  65.3619310  55.4995848  42.9303244  70.5475812  13.0362454   2.5763205
  71.0503535  12.7710381   3.3464602  71.2101905  13.2807722   1.9302634
  54.0719032  12.3091877  50.7472515  53.7770224  13.0506456  51.2759447
  54.3122959  12.6959324  49.9053049   0.0396708  59.9731587  28.8085842
   0.1718739  60.3060197  29.6962547   0.6911019  60.4344594  28.2803130
  63.3971119   1.7594007  61.0844612  63.2243347   0.8183545  61.1129713
  63.2234764   2.0073889  60.1763916  41.1746216  12.6637685  58.0451775
  41.7265701  13.0092645  58.7467575  41.0442400  11.7435455  58.2741404
  -0.3666520  23.4930992  37.2294354   0.1503792  23.8252974  36.4955735
   0.2837909  23.1894469  37.8626442  78.1185385  43.4750058   1.1083248
  78.2661577  42.7137996   1.6695813  77.1991011  43.7012746   1.2485483
   7.1339548  46.6288757  48.5534477   7.0582175  45.6848907  48.4142065
   7.1632940  46.7290306  49.5049429  54.7548958  57.9562606  12.4621323
  53.8872310  57.5563420  12.5209263  54.7845670  58.5727181  13.1937960
  78.5822674  42.4456753  30.7087878  77.6266667  42.4227001  30.6584719
  78.7702223  43.0680384  31.4113310   7.5867915   1.3083777  53.4973049
   7.1850199   1.5844689  52.6735401   7.1168262   1.8011786  54.1699934
  37.7644277  38.4767628  40.7036352  37.2329378  38.0228972  41.3576651
  37.1303535  38.8078380  40.0675774  41.6622885  26.8760289  10.5246046
  40.9272905  26.7271842  11.1194590  41.3895961  26.4715196   9.7010496
  69.9623093  57.8369998  48.5631323  69.7422073  57.6212810  49.4693613
  69.2019174  57.5504290  48.0572557  31.8433800  31.7524494   0.3717211
  31.1510255  32.4010433   0.2444294  31.6391250  31.3462491   1.2140444
  34.9680090  11.1093462  57.4130535  34.9530077  10.5567420  58.1944847
  35.5696583  10.6641269  56.8163729  74.3814322  31.0313256   7.2262362
  74.2939612  31.3710465   8.1168345  74.0537735  30.1335074   7.2791079
  77.2085758  28.5119726  10.7150772  77.1454760  27.5579120  10.7600191
  77.9163452  28.7339606  11.3200692  75.2588162  69.4011985  55.7432413
  75.0392089  69.8392539  56.5655041  75.1726279  70.0837909  55.0777578
  71.6371723   1.7309179   3.9958218  71.5082213   2.5959601   3.6068419
  72.2446390   1.8820633   4.7199610  38.4537824  23.9386310  29.8422221
  38.5704907  23.1819131  30.4166678  37.5076779  23.9935471  29.7076777
   5.9278336  11.0535516  12.5059250   5.8462420  11.3756313  13.4036139
   5.3574600  10.2855028  12.4742630  65.4332487   2.4891129  48.3516768
  65.6050997   1.7841807  47.7273634  66.2326388   3.0155697  48.3444956
   0.6597510  57.6244308  13.4715727   0.7824793  57.8991141  12.5628832
  -0.2863655  57.6694383  13.6096886  49.5586685  48.0612873  65.0676966
  49.8684648  47.9774522  64.1659021  48.9835409  48.8263034  65.0532293
  68.6201187  61.9466843  37.9571799  69.1080423  62.7688827  38.0035761
  67.7007242  62.2127785  37.9690626  23.9562821  28.9240170  31.9990468
  23.7515259  29.1285491  31.0866475  24.5176387  28.1502008  31.9508767
  70.3597876  44.0938206   6.6400889  70.5726095  44.9654754   6.3066843
  69.4174095  44.1240217   6.8051365  57.3025557  13.0422892  10.4996517
  56.3616081  13.1316961  10.3484753  57.6783129  12.9518952   9.6239451
  31.1565354  49.4097985  18.3247355  30.5512127  49.0099098  17.7003172
  32.0096429  49.0357711  18.1044176  37.1072158  68.5000290  19.3510321
  37.1191927  69.1975607  18.6956385  36.8691143  67.7138056  18.8597086
  24.2302036   4.2759627  65.3724766  23.5735893   4.9656713  65.2755642
  24.7779560   4.3552932  64.5915127   2.8673254   0.9554496  17.8756598
   2.2934471   1.5228238  18.3904246   3.1556212   1.5045085  17.1465185
  36.3804007  23.4767818  45.2703047  36.1599326  24.3617010  44.9795437
  37.3314166  23.4235287  45.1756096   4.9700069   4.4107652  60.5461359
   4.2229110   4.7026190  60.0237370   5.2105802   3.5648200  60.1683378
  76.7291542  60.4808177  16.9146136  76.9840332  61.0885181  16.2203768
  75.8567473  60.7722010  17.1796206  73.5398098  67.8365721  29.9404314
  74.3909308  68.0564369  29.5616320  73.5090443  66.8800558  29.9213389
  60.2185515  65.0019919  60.6349087  59.9693343  65.3516226  61.4904070
  59.4010351  64.9807142  60.1374674  15.4399477  10.5608120   6.3809326
  16.0101353   9.8760023   6.0314205  15.8331095  11.3785496   6.0760477
  28.7643266  15.7385540  59.8493671  27.8438044  16.0002720  59.8687410
  28.8543940  15.1253581  60.5788231  75.7133814  45.9258379   2.9154518
  75.7783552  45.4659464   3.7524155  74.9913117  46.5424527   3.0364016
  78.9874836  69.3419351  12.7555588  79.4043966  68.5301127  12.4668387
  78.6876770  69.7578396  11.9472435  27.8141522  14.9395895  48.1028128
  28.6995363  14.9670029  48.4655476  27.8429985  15.5366933  47.3552418
  10.7243620  21.6289225   8.9022091  11.3059341  22.3890820   8.9149979
  11.2261711  20.9361830   9.3317774  53.5150051   7.0999974  52.8784418
  53.2655668   7.9842716  52.6099777  54.3157625   6.9173634  52.3868465
  13.7524569  55.7107925  51.9119215  13.2467592  56.4229393  52.3035145
  13.9575553  55.1311207  52.6455116  48.7343676  18.7453703   1.4140469
  48.6409743  19.5238380   0.8649594  49.5585854  18.8797168   1.8818623
  62.4134227  29.3437930  14.1479042  62.1200915  29.5859672  15.0262812
  61.6355845  29.4448514  13.5992792  12.6941963  40.0694896   2.3306015
  11.9792446  39.6471490   1.8544653  13.3744069  40.2046375   1.6708449
  54.4670105   1.7080922  51.1098051  53.5450411   1.8581496  50.9007835
  54.5037460   1.7377023  52.0658445  55.1563597  15.4318762  63.5536194
  54.5850563  15.4103518  62.7859068  56.0428381  15.4328799  63.1925344
   1.2778464  23.1480910  28.0914000   1.1543026  22.9295994  29.0151003
   0.7468119  23.9332082  27.9578856  -0.1400317  27.9516688  23.9736059
  -0.2972091  28.5717716  23.2615641   0.4630410  27.3079672  23.6018732
  11.5932683  59.3334841  56.6939163  11.7103461  60.0697719  57.2942543
  11.3839797  59.7407555  55.8533430   1.8949785  66.1358966   1.0282210
   1.2644234  65.7003202   0.4547146   2.0576325  66.9803085   0.6078080
  51.4815331  14.6655524  54.1479778  52.1571636  14.7158968  53.4717941
  51.8017960  15.2328765  54.8492670  72.2422501  52.0040991   5.7391575
  72.6533791  52.7650775   5.3291348  71.5244051  51.7730166   5.1496390
  29.9055818  50.0821351  63.7947416  29.3988947  50.4375791  63.0645657
  30.6057028  49.5795559  63.3782387   5.5808344  43.5649361  14.9102000
   5.4102316  43.7611695  13.9889983   4.9221935  42.9100217  15.1415423
  26.4265394  30.7358432  57.3464918  26.8148589  30.8364201  56.4773989
  26.8415761  29.9513078  57.7049351  44.2009982  26.7043664   5.4764059
  44.3325373  27.6507564   5.5336407  44.6953519  26.3487436   6.2149027
  56.5968796  64.0913524   9.8363760  56.4280077  64.3974914   8.9453152
  56.8166610  63.1653799   9.7338799  56.9758817   8.9177789   8.5036639
  57.5582095   9.2930831   9.1641692  56.0978171   9.0265025   8.8689211
  46.4460620  64.0948476  13.6254624  46.5852114  65.0223364  13.4340695
  45.8620604  63.7918128  12.9302338  37.1485278  62.9518341  35.5914903
  36.6748283  62.5540506  34.8610067  37.2021649  62.2577881  36.2484956
  50.9606572  62.2524561  17.1717051  51.7339059  62.2993006  16.6094569
  50.2334329  62.1049465  16.5670374  20.5090690  47.2239351  63.4158659
  21.2066460  47.2412872  64.0710878  20.8412766  46.6476631  62.7275515
  24.1560078  16.7523873  10.7557929  24.8606634  17.2155190  11.2087822
  24.4596696  15.8461177  10.7038772  47.8310987  66.5550150  13.7054375
  47.5541969  67.1708740  13.0270031  48.4760758  65.9957661  13.2724503
  24.9619436  22.9787326  39.6074915  24.2958474  23.1287599  38.9366412
  24.4894505  22.5538754  40.3233671  42.1337986  24.4628572  30.0942683
  42.2317886  23.7165833  29.5029068  42.2535276  24.0927434  30.9688592
  58.8022205  65.6242289  38.5774878  58.1826469  65.2949871  39.2286185
  59.0198179  66.5064205  38.8785246  26.8460312  47.4016412  21.0565928
  26.4032168  46.8216188  21.6760519  27.6248214  47.7024163  21.5248373
  69.7950983  29.1162443  40.4413509  69.1933250  28.9618111  39.7131634
  70.6539345  28.8683772  40.0990152  66.5932135   1.7351785  31.0695914
  66.4645641   2.2388830  30.2658728  65.7071738   1.5552416  31.3838938
  66.4504882  73.8045229  37.9314879  67.0425888  74.4861116  37.6135519
  65.5744978  74.1413297  37.7432516  67.6137695  52.1245193  43.8427639
  66.6698835  51.9681477  43.8134623  67.6959226  53.0632853  44.0107059
  68.5059353   4.9326386   3.5473708  67.9979416   4.7132363   2.7663210
  67.9636189   4.6341767   4.2774657  55.3626605  24.9948432   7.5069884
  55.6646844  24.2889561   8.0785969  55.4304429  25.7839336   8.0445555
  37.9962166  63.3632125   0.7765797  38.2111283  63.0684842   1.6615561
  37.9789635  64.3181695   0.8397463  24.4190775  11.6868773   3.6168364
  24.6642147  11.4088907   4.4993714  24.6692931  10.9524765   3.0562332
  70.5120274  16.4686050  15.3689841  70.7539221  16.7504276  16.2511996
  70.2441450  17.2734369  14.9254587   2.4645081  57.4599220  23.3527735
   2.6695051  57.0186128  24.1770628   3.2685890  57.9263176  23.1243780
   2.8840119  10.6921232  25.3495526   3.4073561  11.4262652  25.0280261
   2.0277080  11.0743618  25.5415654  24.3015623  38.3856916  39.7771621
  23.6236334  37.7851343  39.4673657  24.4190264  39.0059900  39.0576744
  34.7924471  10.6620646  34.0266228  34.3010330  11.4834929  34.0268230
  34.5686412  10.2488732  34.8605394  49.5826864  13.6273932  45.1361322
  49.3501139  12.6994658  45.1691771  48.7585735  14.0867615  45.2975225
   3.5403624  23.8112988  18.3964518   4.4147196  23.4495010  18.2521132
   3.4109726  24.4218291  17.6706770  14.1566805  65.7447981  40.9939146
  15.0918535  65.7872557  40.7942247  13.9342121  66.6281318  41.2879610
  75.2134224  48.4861125  21.3533190  75.0846192  49.0339913  20.5790690
  74.4145867  47.9619719  21.4114168  77.5829515  69.1214382  63.7035894
  76.6277656  69.0922241  63.7583351  77.7678785  69.1646641  62.7654171
  77.4241686  21.5505385  44.9948597  78.3760405  21.4724064  44.9310398
  77.1638107  21.9789243  44.1794252   1.7683062  14.1348922  53.9301062
   1.3487074  14.9932194  53.9887857   2.7061409  14.3242919  53.9588356
  51.9843580  67.0417481  62.0229387  52.5555186  67.7826070  62.2257566
  52.5846883  66.3149225  61.8569231  63.4378433   2.1453165  58.3040380
  63.2243252   1.4571375  57.6739168  63.0517006   2.9384631  57.9324913
  69.6199032  28.7259175  27.3121908  68.7448641  28.3521231  27.4161986
  69.4972559  29.4583078  26.7082098  76.1938152  74.9778128  37.2912359
  75.2783093  74.7771842  37.0967412  76.1980233  75.9156451  37.4827695
  17.6718130  26.6062261  21.2879065  18.3050051  26.1506643  20.7331351
  16.8208208  26.3926806  20.9052256  56.5279627   4.8143235  55.8733892
  56.5621996   5.1997858  54.9979019  55.5951405   4.6769050  56.0382748
   9.4549930  15.5367720  32.5482178   9.6549261  16.2262821  33.1813335
   9.7826314  14.7350395  32.9557824   1.4233579   8.8030237  55.6061935
   1.5010822   8.0690134  54.9967527   1.3650857   9.5757419  55.0442839
  20.2358460   4.3794742  24.2772651  20.4884219   4.2594290  25.1927042
  19.7226393   3.5995501  24.0661502  78.4238515  62.4354779  58.5335779
  77.5807032  62.1449613  58.1858253  78.9000187  61.6252326  58.7152290
  73.9347550  39.9792808  42.2346571  73.8132425  40.2957319  41.3394907
  74.3734785  40.7003488  42.6861170  65.1607700  58.3756460  18.2190779
  65.0766870  59.1682090  18.7491778  64.2626806  58.1581034  17.9693869
  75.8881960  64.6803712  39.9291301  75.6430135  65.5960094  39.7959971
  76.8433390  64.6766495  39.8665547  49.4826889   2.8677702  50.2927589
  49.6544456   3.6974806  50.7380819  48.6469316   3.0040076  49.8464537
   5.7812681  68.1410898   6.0585430   5.2738371  68.9434566   6.1808327
   6.5897217  68.2919945   6.5483073  25.9596971  71.3829034  61.2701750
  26.6754392  71.9286342  60.9444189  25.2231983  71.5841215  60.6928396
   6.8244509  69.5960616  37.0562911   7.5478081  69.9427550  37.5785851
   6.7112688  68.6987441  37.3697257  16.8169823   8.1172647   6.5440682
  16.6748753   7.9131831   5.6197384  16.1493483   7.6107301   7.0065811
  29.2010641   5.2780664  22.0150065  29.1195560   4.4094339  21.6212225
  29.9688554   5.2125347  22.5828362  41.2570572   6.0113621  52.1730137
  41.9950962   5.6565756  52.6686430  41.6082144   6.7935503  51.7474508
  28.8998938  26.9200301  34.1944265  28.2893443  26.1830139  34.2108512
  29.4261122  26.7776394  33.4076285  34.8362041   8.2273877  42.2164965
  35.2382588   8.3570945  43.0754280  34.1152024   8.8565063  42.1920729
  71.5763235  37.9428291  63.5903215  71.6035271  37.6316547  64.4951200
  72.4657679  38.2506561  63.4160614  51.5751696  55.0801945  62.7997732
  51.4314795  55.7735491  63.4438562  50.7020378  54.8842573  62.4599552
  74.2494866  33.6963479  14.1821936  73.8717171  33.2282235  14.9267653
  74.0412041  34.6159957  14.3468073  30.9326291  13.5351300  36.9451118
  30.0932980  13.6896944  36.5116763  31.5876794  13.7277949  36.2742782
  48.4503746  13.8588703  58.0901957  48.9269590  13.2362425  57.5411654
  49.0111780  14.6341729  58.1153488  69.2188545  44.1105600  18.5787848
  69.9295660  43.5191275  18.3311346  69.3079516  44.2082967  19.5268038
  44.1217896  41.1297007   1.8962220  44.0030273  41.9934376   1.5011433
  44.4429310  41.3123314   2.7792528  67.6821276  60.2759780  15.1701907
  67.1395393  59.5112623  14.9777296  67.5907274  60.4029669  16.1145190
  24.9085069  43.1867313  63.0865717  24.2415261  42.5029373  63.1481457
  25.2543569  43.1046391  62.1978188  62.6536560  14.0885913  60.5978441
  63.4026241  13.7190807  61.0655355  62.1852112  13.3270061  60.2561140
  78.6001348   4.1122162  59.9756718  78.0767345   4.4051319  59.2296934
  78.3636093   3.1914544  60.0874090  44.4167458  20.7407179  14.6727827
  45.1127564  21.3930168  14.7521809  44.8174845  19.9250689  14.9733904
  35.2567577  28.6140013  57.5641060  34.8874307  27.7720976  57.2975969
  35.9271908  28.8002825  56.9068050  65.7706738  30.1705551  63.8768578
  66.4306831  29.9429059  63.2220364  65.3835535  30.9842324  63.5539007
  32.5349613  74.3339266  14.2043665  32.7893683  74.9584998  13.5250882
  32.5674637  73.4814586  13.7702254  30.0154768   2.7596178   5.2485970
  29.4324051   3.5187330   5.2499083  30.3271185   2.6954165   6.1513642
  46.7198515   5.4945046  62.0373297  47.3985052   4.9412936  62.4241352
  46.6301489   6.2259823  62.6481676  52.9055738  17.2825074  38.5500097
  52.4270630  16.5764380  38.9844322  53.7636232  17.2867131  38.9742398
   4.2905079  31.4336958   8.8329724   3.4682022  31.7924443   8.4992865
   4.3563162  30.5688563   8.4280613  57.2922850  49.2325449  64.6342993
  57.0529890  48.7890387  65.4480982  57.3181534  48.5345554  63.9797974
  48.2988568  72.7184738   3.9377716  48.8473102  72.3633851   3.2382420
  47.9292580  73.5205545   3.5685900   4.3006601  46.4591666  15.2206972
   4.8977318  45.7432391  15.4379156   3.5109987  46.0235144  14.8999480
  43.8246330  63.6006250   2.8320530  43.7431368  63.8796939   3.7440375
  44.7573646  63.4169497   2.7202204  48.3355685  64.3243636  16.1546210
  48.1215712  63.7249340  15.4396990  47.6098486  64.9483384  16.1693552
  63.4175106  47.9441239   1.9737175  64.1742178  47.3789002   2.1291092
  63.6791154  48.4976770   1.2379340  61.8088862  27.3963286   1.6458062
  61.7601129  27.3347606   2.5997761  62.5611898  27.9646470   1.4806250
  32.6523066  24.0322471  52.2333956  32.4222970  23.1035638  52.2629929
  32.9611087  24.1741133  51.3385487   8.5230266  12.9855814   0.9127453
   8.2661282  12.0973959   1.1604622   8.4318816  13.4947052   1.7181757
   1.8894731   3.3069411   9.7225216   2.7822005   3.3493557   9.3797854
   1.7458068   4.1642418  10.1233080  67.5798651  48.2985224  30.1990965
  68.1305309  48.9087989  30.6895617  67.7623268  48.4964539  29.2805270
  26.2355089  40.3392029  31.5601730  25.5916262  40.3903723  32.2665954
  26.0371137  41.0899115  31.0004306  26.8034077  10.4297161  40.1909113
  27.3815036   9.6881628  40.0116491  27.3097467  10.9918559  40.7773018
   2.8713714   5.0858488  22.3302058   3.3561527   5.3855124  21.5611723
   3.1629883   5.6621065  23.0366877  29.5995927  28.5578227  41.0517693
  30.2483916  27.9363966  40.7214355  29.2209053  28.9496946  40.2648354
  49.7008892  65.7867922  33.9103487  50.2277347  65.0517382  34.2239741
  48.8294455  65.4154219  33.7728575  66.8835589  68.6687006  10.9215287
  66.9651362  68.7893762   9.9754790  67.7817818  68.7216081  11.2480667
  61.4733362  34.6255445  60.3346825  61.2723970  34.3395662  61.2257862
  61.4457321  35.5813670  60.3779268  14.7337809  46.1484911  -0.2389309
  14.4961586  46.3769050   0.6597355  14.8157587  45.1948501  -0.2299806
   3.2243008  45.9783173  51.4903784   3.2915157  46.7036200  50.8693695
   2.5010151  45.4458523  51.1593771  49.8622084  21.5733027  63.2258844
  50.5007076  20.8846140  63.4109783  50.1882982  22.3366356  63.7025595
  76.8964896  55.4755496  63.4089088  77.0478330  54.6193933  63.0085039
  77.5677142  56.0407936  63.0265617  29.6167790   4.1524306   2.0573405
  30.3144347   3.8205567   2.6224640  28.8087355   3.8481798   2.4705246
  27.2955680  22.1047306  60.9651995  27.8007412  22.6218319  60.3377962
  27.6266003  22.3765779  61.8212080  31.0796808  57.9838099   3.7422970
  30.6635933  57.3920657   3.1154469  32.0178499  57.8309168   3.6296299
  18.3897816  20.9059515  23.9253214  18.2840382  20.0577584  23.4944895
  19.0159546  21.3773003  23.3758047  78.7980219  62.8149475   9.8252943
  79.4680782  63.2541599   9.3015078  78.0737730  63.4398164   9.8604658
   6.0253297  23.9530077  31.6937044   5.8381020  24.8793211  31.8457678
   5.3084980  23.6523142  31.1351660  24.9189878  62.5374031  59.8525000
  25.7761979  62.9579639  59.7850275  25.0751615  61.6312742  59.5864773
  48.3063074  66.7046847   2.2458819  49.2449328  66.5954889   2.3984936
  48.0244800  67.3233952   2.9196814   6.0948553  59.0209641  25.0534037
   6.0137549  58.2301296  25.5865458   5.5815401  58.8336767  24.2674902
  28.2423525  52.4220468  14.6048764  28.0434053  53.1735887  14.0464524
  27.9324519  52.6800074  15.4730013  75.3514957  15.0021088  46.2891388
  74.4995403  14.9312294  46.7196989  75.2187014  14.6047413  45.4285002
  44.6929121  13.0368757  24.6383977  44.3075228  13.7531197  24.1337204
  44.1336489  12.9605806  25.4114652  55.8449411  12.5594819  58.2974863
  54.9350262  12.4911118  58.0083227  55.8105278  12.3893797  59.2388248
   4.9728690   2.9294958  11.0548619   4.8279725   3.4335985  10.2541664
   4.7289025   3.5271635  11.7616204  65.6134030  55.7364811  15.8646181
  65.1279112  54.9123003  15.9000185  65.4894420  56.1248697  16.7306498
  52.6973200  56.6091728  56.4740467  51.9019556  57.0204401  56.1356831
  52.5353622  56.5104055  57.4122620  55.5799532  39.6176195  60.2354050
  56.2860870  40.2435732  60.3960037  54.7940350  40.0533724  60.5650759
  38.1455456   4.8950567   3.3498267  37.8043066   5.6777373   2.9171589
  37.4252592   4.2659226   3.3097008  69.0798756  57.9788913   0.5206183
  68.5451981  57.8898873  -0.2683231  69.5240494  57.1352329   0.6053665
  41.5951573  23.3507719   2.5417546  40.8378540  23.2667198   3.1211117
  42.3486220  23.1755200   3.1055001  27.4896431  11.1140037  35.3338194
  27.0642972  10.6072283  36.0255504  27.9502225  10.4608297  34.8070717
  62.6843330  43.5398878  16.5157584  62.0144483  43.6985816  17.1808222
  62.7330180  44.3599071  16.0244063  64.3941736  50.5442286  61.0693216
  64.4881725  51.1993313  61.7608643  63.6773586  50.8710480  60.5256319
  58.9068767  51.6074027   4.3143252  58.6204978  50.8078136   3.8728789
  59.6439596  51.9198276   3.7896088  58.3044434  29.7099805  61.3604832
  58.3064127  28.7702227  61.5423727  58.5542870  29.7760797  60.4388332
  38.2430493  -0.0984154   7.3383692  38.3352124   0.8239904   7.5769213
  37.3950135  -0.1481447   6.8972376  20.0493704  31.4478913  36.6106013
  20.6895481  32.0171776  36.1836031  19.2461811  31.9679299  36.6366461
   9.9959698  42.6397599   1.1174467  10.1692619  42.9282023   2.0135477
   9.9303379  41.6869296   1.1809948  40.8398533  14.5030808  56.1556339
  39.9247146  14.7482336  56.2921906  41.0158062  13.8483250  56.8313313
  78.3203697  10.8135998  55.4601002  78.6989546  11.6909754  55.4042530
  78.1644773  10.5616295  54.5499134  59.2702910  50.4365601   0.1694754
  60.1913139  50.5296792   0.4129389  59.1503497  49.4955732   0.0414542
  25.0577950   4.9488834  40.6279182  25.7057595   4.3796059  41.0430050
  24.9893379   4.6201137  39.7315621  34.7215939  15.5477357  50.0367689
  33.9931536  16.1687016  50.0337124  34.6478057  15.0961149  50.8774996
  75.9838963  24.0440559  52.0402575  76.2015104  24.9760771  52.0257807
  75.8049154  23.8256550  51.1256552  32.6189457   1.1350551   2.7782467
  31.7275368   0.8766403   2.5440481  33.1627070   0.7869592   2.0715741
  29.6434532  17.5656262   9.8150519  28.7275111  17.7813997   9.6397618
  29.8074662  17.9119435  10.6922081  50.9671640  30.7826209  62.3994637
  50.4910135  31.4268637  62.9233551  51.6677427  30.4762888  62.9752970
  67.0707035  16.7236614  46.9534492  67.6334620  16.8134475  47.7225208
  66.2077570  17.0092189  47.2534609  19.1359272  71.6900672   5.3019598
  18.7880697  72.1282686   6.0786227  19.7152462  72.3378696   4.9007443
  18.3982933   6.8013334  20.3644156  18.5757828   7.2508341  19.5381725
  18.4940839   5.8718443  20.1567984  54.9120808  24.0565348  57.9617167
  55.1565027  23.5330749  57.1985149  55.6709480  24.0019822  58.5425568
  79.1513681  23.1843185  61.9770193  79.0299511  23.7128830  62.7657557
  79.5117855  22.3570156  62.2962379  38.8858771  16.5589523  35.1649117
  39.7265577  16.5030122  35.6191778  38.8691092  17.4437988  34.8002219
  32.8965926  55.7227802  62.2317457  32.0747972  55.9577799  62.6626253
  32.6340365  55.1494884  61.5115833  37.4440193  14.1765261  59.2998552
  37.4237132  13.2199264  59.3269920  38.1094503  14.4203138  59.9432850
  37.1000103  56.9646965  62.6967001  37.7131323  56.6537451  63.3627462
  37.0605091  56.2537824  62.0569515  69.1585203  74.3343796  32.1709994
  68.8088938  75.1539602  32.5206927  68.3988234  73.7548460  32.1141127
  77.2835871  71.1399330  14.0292052  77.8971525  71.2928881  14.7477988
  77.6836773  70.4362501  13.5183314  20.4969215  23.4568191  55.4848242
  20.5321002  23.0007696  56.3256645  19.9296284  24.2109895  55.6449461
  13.8006535  65.1762833   8.5901144  14.7011891  65.1741947   8.2656601
  13.4540596  66.0295428   8.3292416  58.8809681  22.8038359  63.2415724
  59.2168331  23.6926723  63.3573103  59.1750240  22.3332310  64.0215015
  34.3519330  17.6654017  56.8280888  34.0299582  17.7334154  57.7269411
  34.3373561  18.5644197  56.4997816  11.8253655  41.1112261  50.4384708
  12.0390934  41.9936991  50.7414436  12.1668858  40.5341911  51.1215687
  69.4171906   8.6712885  45.3702354  68.7851143   8.1579620  44.8670387
  70.2682400   8.3037835  45.1317263  51.8384457  19.5077264  48.6527538
  50.9821987  19.6273351  49.0635586  51.6616106  19.5523691  47.7130890
  31.3079906   3.9253998  29.0279341  31.1182404   2.9896304  28.9603901
  31.9789505   4.0822986  28.3635330  36.0912262   2.9815235  25.2017001
  35.9428774   3.2773199  26.0998801  35.3351342   3.3081713  24.7139910
  15.2289823  65.7629811  51.0017824  15.9295420  65.9024512  51.6389656
  15.0294594  66.6382973  50.6697559   9.3371859  68.2605614  17.4128702
   8.8006821  67.4887385  17.5936583  10.2354708  67.9702510  17.5710848
  47.9034571  69.2298817  53.3669710  47.9458193  70.0486945  53.8609171
  47.7696279  68.5552286  54.0326786  53.5512543  19.3568194  52.4159861
  53.9500427  18.8187838  51.7320871  53.8989019  19.0010726  53.2337999
  73.4405180  56.8307759   3.9704445  73.5866781  57.5343801   4.6027497
  74.0176865  57.0439865   3.2371977  19.9258888  45.6705952  56.5679502
  20.7496238  45.7485104  56.0866785  19.2684484  46.0409451  55.9790134
  27.6401877  25.8890963  57.1609926  28.3025861  25.2398825  57.3975945
  26.9146729  25.3735900  56.8086958  41.8577119  58.3665981  32.1876124
  42.0303043  58.1671681  33.1077650  42.7247795  58.5003270  31.8048075
  71.7562052  73.1017555   5.9837225  71.5616127  72.4580969   5.3024939
  72.4605843  73.6349668   5.6152561   2.6419487  64.3237128  17.6498488
   2.1133461  64.8712744  18.2303599   2.1426048  64.2879070  16.8340090
  54.7203346  14.7272053  21.1571196  54.2377658  14.6810522  20.3317622
  54.0742838  14.4986191  21.8254069  10.1939809  21.2800527  61.3990355
   9.8868757  22.1013594  61.7829275  10.8657825  20.9685969  62.0055914
   6.0209408  72.9667081  12.3610142   6.5119066  72.1791448  12.1266440
   5.3567829  72.6600661  12.9783419  58.7219334  20.6177735  43.2452536
  59.1505718  19.7630143  43.2017803  59.1356468  21.1288357  42.5496340
  63.3674427  52.4421121   3.9352110  63.9056774  51.6698565   3.7615565
  63.9509627  53.1827535   3.7703255   4.5500889  72.9699959   9.8788622
   4.9766960  73.1157507  10.7232502   3.7705269  73.5248007   9.9054364
  14.5612179   6.5281143  13.4438446  14.3291222   6.7136374  14.3537596
  14.4794165   5.5777016  13.3647993  62.8402468  62.8136267  20.9810332
  62.2510596  63.2545461  20.3689173  62.3475858  62.7732767  21.8007162
  41.0961839  67.9146446   1.7746714  41.8937822  68.0337109   1.2590197
  40.3844341  68.0328955   1.1456517  63.7122016  18.9708605  29.9991492
  62.9986118  19.4401112  30.4313830  64.4201736  19.6124449  29.9410322
  45.7184219  20.6636524  58.4935999  46.3030052  20.8161473  57.7511454
  44.9868441  21.2639070  58.3496618  77.5300165  71.0625042  32.4583414
  78.3750530  71.4535703  32.2365168  76.9587370  71.8102278  32.6337984
   6.0583854  11.8458033  53.6355925   5.2784061  11.2941933  53.5756683
   6.2838513  12.0414150  52.7261257  46.5565272  62.1573748  15.5023936
  45.7853540  62.1130432  16.0676840  46.3275858  62.8044857  14.8352602
  79.0503212  70.9536804  16.9927100  79.7519346  70.4947628  16.5307883
  78.5555693  70.2591624  17.4275568  29.5281005  22.1909475  49.4625330
  28.7365603  22.1226859  49.9964190  29.5674253  23.1132150  49.2093325
  43.5236584  22.0179215   9.0752676  42.9330908  22.3741045   9.7390440
  43.0740773  21.2388363   8.7479475  48.8210865  50.4161550  -0.3013584
  49.0658446  51.2902011   0.0025633  49.1210290  49.8286750   0.3922823
  13.9315561  74.0706796  63.4149075  14.7169165  73.8154927  63.8989782
  13.2819370  73.4064134  63.6450672   5.8070555  47.2189786  35.5274657
   6.0374394  47.1941103  36.4561919   6.6038170  46.9412162  35.0755289
  48.8173628   9.7897923  53.5197735  47.9546738   9.8478603  53.1091213
  49.4334221   9.8167884  52.7876759  41.2846218   3.9585295  11.8821505
  41.9407069   4.2109575  12.5318125  40.7723271   4.7540608  11.7375162
  17.8550794  54.9556519  11.1611346  18.6481651  54.8914243  10.6290415
  17.4424925  55.7718219  10.8785179   3.4039822  63.6293544   1.2220982
   2.8111019  62.8920497   1.3673714   2.8573885  64.4048299   1.3489893
  16.8130623   7.2547474   3.9472750  16.4697443   6.5063420   3.4591606
  16.8423926   7.9654112   3.3067063  29.7228279  26.8703510  18.0345801
  30.3845253  27.2590877  18.6066607  29.2615357  26.2443461  18.5927561
  60.6901570  69.9443402  17.0040682  60.7116147  69.3177308  17.7273444
  60.2103969  69.4924988  16.3098791  12.0996037  61.4371313   5.5260256
  13.0274573  61.2126006   5.5960730  11.9814482  61.6837706   4.6087244
  60.5544349  41.9955747   7.0627430  59.9245545  42.1884318   7.7572134
  60.3235861  41.1146708   6.7678717  53.8996077  23.5123682  63.6927223
  53.8825417  23.6248088  62.7423048  54.8027420  23.2626081  63.8881779
  15.1569783  12.0727959  19.9816111  15.2375208  12.9973784  19.7473219
  15.9749209  11.6772499  19.6803740  51.6649914  62.8773069  46.8137693
  52.0369196  62.2160864  47.3974514  50.7612133  62.5938225  46.6757345
  42.8230000   8.8213229  48.4708786  41.8727446   8.8505614  48.3595657
  43.1708145   8.9039719  47.5829411  32.8960041  43.9655398  37.4484181
  32.5017551  43.3151316  38.0295944  33.1756786  43.4641289  36.6825175
  37.4180984   6.6970360  59.2015362  36.5979815   6.9396400  58.7716722
  37.5424385   5.7748443  58.9771891  38.4418440  22.0528245  64.4543362
  38.7358618  21.7497516  63.5953045  38.4744716  23.0076575  64.3955135
  10.1615276  69.1268625  10.5225542  10.7079830  69.0090098  11.2995509
  10.7224980  69.5946731   9.9039296   2.0548140   6.1444369  10.6188420
   1.3041483   6.7225018  10.4825619   2.8168451   6.6948071  10.4381874
  49.1982222  49.6954107  40.2389669  48.7424374  49.1957092  40.9163046
  50.1202583  49.4634724  40.3498268  65.1921368  23.2670546  23.6565948
  65.8341646  22.8513551  24.2321157  65.3048706  24.2051244  23.8100529
  58.8609552  22.9369044  47.4422836  58.8701582  23.6992645  48.0210400
  59.7407007  22.9112554  47.0659590  70.3555398  22.2507897   6.1436060
  70.6354134  22.8850737   6.8035963  70.7619898  22.5545349   5.3319624
  54.6619081  12.3178363  60.9028530  55.1115274  11.9462073  61.6617775
  54.0520763  11.6335630  60.6269836  47.7583504  18.4662783  58.8889837
  47.3495913  17.9621148  59.5925236  47.8973818  19.3348956  59.2663574
  75.9328791  56.9423749  24.5956496  75.9675118  56.8780698  25.5500677
  74.9994942  56.9049503  24.3867949  56.3023090  19.9406505  54.7880459
  56.0478115  19.0448260  54.5667744  56.8690252  20.2137661  54.0666103
  64.2193457  44.3125345   5.8033684  63.2638308  44.2559375   5.8077029
  64.4753309  44.1105153   6.7033079  45.5125972  70.9754051  24.2303828
  44.9288460  70.7350744  23.5108641  45.4818805  70.2254714  24.8244265
  47.6744448   0.8767405  18.0295542  47.6944720   0.2647820  18.7653044
  46.7517935   1.1161413  17.9421881  57.9646826  11.6334057  57.1118546
  57.1670294  11.6646934  57.6400566  58.4471798  10.8795214  57.4511003
  23.1129776  11.1712637  16.1993197  23.3890711  12.0840636  16.2818030
  23.9212929  10.6920853  16.0169962  38.2083368  24.8728275  37.8070784
  37.5580072  25.2393103  38.4062409  38.8390350  25.5808210  37.6759505
  35.1248193  22.5010967  64.5482063  34.3761849  23.0747867  64.7114754
  35.7087660  23.0207181  63.9957285  40.0553083  22.4675775  57.5721788
  39.1550565  22.7841616  57.6466942  40.5395699  23.2069683  57.2047186
  26.3426900   1.0989144  56.1798763  26.7585874   0.3452788  56.5985584
  26.1029768   0.7862061  55.3075361  35.8975577  32.2516489  39.4242716
  35.6015706  31.3438106  39.3575382  36.4004660  32.3990965  38.6232901
  33.1609348  55.3533887  35.0870895  34.0715793  55.6481611  35.0952649
  33.0769066  54.8134374  35.8729815  65.1233673  42.6946878  50.4226351
  65.4634142  42.6294851  51.3150215  65.1533794  41.7980957  50.0887871
  63.3942004  50.3099062  14.2890623  63.5674497  50.0925924  15.2050284
  63.9287873  51.0860993  14.1218069  63.0512210  58.2516422   7.0761231
  63.2931300  58.8486876   6.3681343  62.3104831  57.7551831   6.7281798
  56.0757875   4.2517331  41.4225245  56.2451458   3.4128278  40.9938192
  55.2099180   4.1484845  41.8172836  73.5295197  63.3306898  34.2252615
  74.0025040  63.8276638  34.8927477  73.9166447  63.6136164  33.3968237
  23.7754523   1.0871067   1.4923600  23.2675778   1.4719620   0.7780913
  24.5836102   1.5995612   1.5148142  41.1254120   9.8733902  51.6562653
  41.9643974   9.4435859  51.8224144  41.3547039  10.7854581  51.4779711
  71.3201853  37.6518956  24.5267847  70.9134194  38.1155553  25.2587679
  72.1096989  37.2603065  24.9003676   3.9960661  25.1593901  12.5652340
   4.6513786  25.6976093  13.0092076   3.9749327  24.3448319  13.0675104
  28.9071789  53.3338858  11.2250880  29.3755760  52.5378610  10.9737233
  29.5212116  53.8054659  11.7879418  42.3874283  21.3871908  60.7342958
  41.8664265  22.1197200  61.0632229  42.6686668  21.6656017  59.8627329
  57.1479937  72.4091114  31.1940935  56.8387934  73.1253924  31.7486838
  57.0611163  72.7428831  30.3011874  36.3389730  27.0662951  41.7791986
  36.6525435  27.7270794  41.1617279  35.3956938  27.0209908  41.6229820
  29.3445431   2.8957167  20.9719446  28.9617621   2.5337782  21.7711333
  28.6282431   2.8848782  20.3370932  57.0463821  51.5859188  31.9688586
  57.7316996  52.1498408  31.6103056  56.4662954  51.4128830  31.2273768
  57.5156498  22.1512222  51.7167282  57.3280334  22.8555703  51.0963058
  58.1273985  21.5797997  51.2525415  28.6577454  30.5134781  21.0152701
  29.4692555  30.7845231  20.5860594  28.8274326  29.6167632  21.3039664
  21.2688112   7.5725847  60.5553627  20.8055997   7.5893271  59.7178745
  20.5754709   7.6205307  61.2135506  22.8776598  18.5897839   3.1157947
  22.9921484  18.1668580   2.2647618  23.7460661  18.5591292   3.5172462
  53.9005633  57.8676357  24.3907622  54.2163106  58.6824073  24.7815111
  54.0935656  57.1971752  25.0460985  32.1797180  18.9943755  54.6107721
  31.4783287  18.6181116  55.1424789  32.6173687  18.2374287  54.2212534
  26.1646370  74.4248184  21.8059158  26.7747597  74.4692648  21.0697079
  25.5791334  73.6995151  21.5883064   9.6395245  19.9169006  20.5872515
   8.7546721  19.6019592  20.7718638  10.1727524  19.1230072  20.5468348
  39.5641398   2.6648307  31.0092521  40.2634382   3.1259763  31.4724541
  38.8428712   2.6302934  31.6375923  64.5821190  12.9122293  51.4179754
  64.6352768  13.8438761  51.6311407  63.7623787  12.8241920  50.9316587
   5.2388182  29.2290808  41.0838869   4.9193039  28.5184594  40.5278567
   4.7220316  29.9904068  40.8201578  72.4753138  47.7288558  21.2271479
  71.6232868  48.0112101  20.8946398  72.3433777  46.8147017  21.4784411
  31.3595919  66.9413899  64.2683983  31.8866686  66.5833663  63.5540867
  30.7500748  67.5415294  63.8388014  77.6035976  25.4263115  49.4074011
  77.3350477  26.0357976  50.0948906  78.5557652  25.3752899  49.4910955
   6.5254389  21.1131087  20.4096392   5.8278428  21.5792742  20.8703783
   6.2511503  21.1172238  19.4925860  41.9417381  35.1594138  46.0073328
  41.0821676  35.3952670  46.3562536  42.5350666  35.2459335  46.7534637
  59.0102196  29.1204238  64.7934866  59.2755985  30.0389457  64.7474194
  58.3514643  29.0266442  64.1053867  17.7785622   0.6295505  10.1696709
  18.6130272   0.3628006  10.5553463  17.3966299  -0.1835642   9.8392132
  25.0451187  68.6808764  50.1830244  24.5671324  69.1108989  50.8921385
  25.7263855  68.1748574  50.6257963  41.7697811  33.3841205  62.3990870
  42.2351742  33.4763002  61.5677357  41.1691284  32.6524138  62.2574759
  47.9160404  14.8138404  63.3276415  48.4887123  14.0728092  63.1297731
  47.0319223  14.4483578  63.2962322  65.1885077  52.1919455  10.0132159
  64.5138999  51.5150906  10.0680044  64.7025868  53.0164351  10.0312975
  11.2525570   6.2440258  38.6614537  12.2028196   6.3453698  38.7158871
  10.9875119   6.8422925  37.9628396   7.8251740  60.4093374   8.6411169
   8.2621249  60.2885546   7.7980784   8.4863647  60.8222498   9.1966036
  33.9290384  74.8157410  62.3116159  33.6189035  74.0629165  61.8083191
  34.0271047  74.4833586  63.2038784  39.2394161  56.1825609  64.7191143
  39.3773437  56.9455719  65.2803802  39.1288686  55.4533052  65.3291988
  73.5374876  67.5949063   8.2247952  73.5304686  66.7692317   8.7089899
  73.0765482  67.3982443   7.4092654  44.0797901  18.3375919  56.7429352
  44.0563869  19.2330563  56.4055538  45.0034618  18.0899680  56.7011642
   0.8132254  13.9781704  11.3271120   1.4107262  13.3992138  10.8537892
   0.1503693  14.2191353  10.6799725  34.1794716  33.5525933  42.0427779
  34.1220175  32.8557625  42.6965025  34.9435126  34.0655890  42.3060492
  38.3697640  12.4452582  18.1830672  38.2455527  11.9819060  17.3547533
  39.0380465  11.9377222  18.6435488  58.7499142  54.6386671  65.0869417
  58.9905453  54.0758991  64.3509960  59.2302132  54.2772484  65.8318710
  64.5450660  66.4429273  17.6749686  64.5131751  65.4991187  17.8312949
  64.9821659  66.5307726  16.8279436  68.5760689  49.7814798  40.3066778
  69.4134808  49.3512487  40.4795122  68.5458231  49.8729038  39.3543339
  31.7862010  23.8572311  33.9200211  32.2749376  24.6311045  33.6398625
  32.3697901  23.4158206  34.5371222  61.1132812  18.3652937  63.7906361
  61.8800163  17.8400719  63.5615253  60.3776407  17.7563560  63.7253714
  52.5131655  35.0077844  49.6240330  51.9623613  34.3617606  50.0661802
  51.9006395  35.5312395  49.1072798   7.0941268  19.8548594  13.1937388
   7.1002041  19.4550362  14.0634135   6.6810809  19.1993609  12.6316479
  10.5304337  41.4825392  62.4908209   9.7936225  40.9660625  62.1643305
  11.2091541  41.3798714  61.8237162  18.4212675  72.9908289  12.9564789
  18.8025322  73.6414851  13.5459879  18.5136690  72.1607174  13.4240321
  49.0479279  52.1447802  53.7473202  48.3012676  51.9771814  54.3223333
  49.7760773  51.6788292  54.1583157  59.4139528  36.8398023  62.5992870
  59.2522812  37.3740578  61.8216896  58.5717201  36.8169928  63.0535555
  57.7834177  15.5446625  59.6658993  58.6062908  16.0322285  59.7032070
  58.0423737  14.6560836  59.4217682  43.9013329  65.4048027  18.8811758
  44.4831791  65.5495633  19.6273211  43.0255833  65.5882754  19.2212370
  68.7585732  70.3748526  19.5511130  69.4516607  70.4308094  18.8932875
  68.1969830  69.6617426  19.2472723  58.2837868  31.7357516  48.9640093
  58.3910322  32.1316648  48.0991507  59.0192842  32.0736599  49.4749832
  44.7953974  32.5825587   5.6494931  43.9890038  32.3674193   6.1181954
  44.7384392  33.5255184   5.4951838  75.8575388  75.0122084  10.5541685
  75.9146925  75.4428376  11.4071205  75.3008934  74.2488660  10.7080725
  53.6405182  40.5772877  62.0713758  54.1712904  41.2961721  62.4144793
  52.9483652  41.0085917  61.5702343  59.8156929  37.4384975  55.4841948
  59.5614147  37.0830059  56.3357782  59.0352011  37.8973103  55.1734591
  68.5516977  34.1347170  35.5737233  69.3122625  33.8221955  36.0637236
  67.8305244  33.5802817  35.8716130   6.8621435  71.2787594  45.4491881
   7.7854195  71.1682238  45.2220801   6.4868393  71.7484273  44.7043494
  17.5605236   9.7458210   2.0205906  18.4315001  10.1405134   1.9776085
  17.3668658   9.4939795   1.1176518  52.0525208  49.9617900  30.7243899
  52.5418415  49.3388607  30.1870230  52.5358143  49.9973656  31.5498617
  -0.2101427  34.4977283  58.7433815   0.4249424  34.9855542  59.2677212
  -0.1607185  34.8969817  57.8748274  11.3318300  68.7927914  60.9596539
  11.1467648  68.8112164  61.8986130  11.6576326  69.6709728  60.7624722
   7.9090300  29.6913780  19.3178252   7.0731058  30.0455161  19.6212080
   8.5678044  30.2698042  19.7020987  79.4325256  33.9132047  46.6658163
  80.1683712  34.1427684  47.2333193  79.2599392  34.7095203  46.1634922
  73.7739532   2.0674839   5.7843140  74.1249697   2.7348652   6.3739088
  74.5175092   1.8174305   5.2358368  22.4641978   7.0950165  16.3455847
  21.8322455   7.3632183  17.0126131  23.3130156   7.1477595  16.7848566
   2.4025737  12.9878893  14.1220024   2.8431474  13.5169974  13.4570387
   2.6377164  13.4021988  14.9522379  23.4027612  60.7017936  10.0889138
  22.4617519  60.8604612  10.1634625  23.4761559  59.7576369   9.9495772
  21.4555306  21.2881947  53.8779736  22.3902840  21.2443256  54.0793371
  21.1208767  21.9834661  54.4443989   2.5571051  15.8581806  58.8230944
   2.2939673  16.5521503  58.2186174   2.2559490  15.0507332  58.4064722
  55.7899284  42.3763943  62.8007078  55.7391024  43.1062794  62.1835232
  56.2224102  42.7441072  63.5714054  21.9414746   9.2691174   2.1411064
  22.1824108   9.6099272   1.2796954  21.7648016  10.0494471   2.6665667
  18.8727230  43.8555908  58.4220839  19.1850800  44.4386768  57.7302217
  19.6254963  43.7492466  59.0036774   7.4892035   8.2468582  41.5905428
   7.9018440   8.3390213  42.4492979   8.0757609   7.6677681  41.1038780
  31.3269411  18.5567799  24.1977003  31.8978583  18.6519327  24.9600867
  31.9248997  18.3816996  23.4710482   1.4760632  67.5443506  49.1049004
   1.1326450  68.2759094  49.6178436   2.2147030  67.9158783  48.6225986
  41.8779789  22.3213663  20.4665736  42.2487580  23.0854979  20.0251463
  42.6282059  21.7480126  20.6235865  31.5695706  55.1420380  31.5457991
  31.2826481  54.4395282  32.1292284  30.8617821  55.2269365  30.9069994
  33.5225188  14.9192848  13.9576605  34.2483126  14.3183604  14.1260174
  32.8150545  14.3576184  13.6410263  69.8543926  61.7681112   4.9561146
  70.6097933  62.0357193   5.4795483  69.9929567  60.8347406   4.7953347
  34.7366272  22.7824488  10.1650265  35.5877768  23.0771389  10.4889611
  34.2286240  22.6022234  10.9560278   9.1338625  66.5380253  63.1249502
  10.0141993  66.1873521  63.2601050   8.5923519  65.7671084  62.9555872
  66.4567041  31.4590645  44.4939566  67.2536564  31.1087728  44.0959692
  66.6296911  32.3953509  44.5923185  28.7246548  24.5244065  19.6508292
  29.2031084  23.9697781  19.0346316  28.9192902  24.1507616  20.5103281
  19.4933119  10.4748131  39.3997693  19.1619435  10.7337261  40.2596474
  20.1595440  11.1301304  39.1925764  68.0293652  44.1683038   9.4836548
  68.4888788  44.9801566   9.6980742  67.4977347  43.9824011  10.2576330
  66.3407775  63.4644331  20.0776175  65.8646198  63.5305776  19.2498854
  65.8161446  63.9718069  20.6969431   1.5107833   2.2110715  15.0313357
   1.4991604   3.1336298  15.2862624   0.6522356   1.8791785  15.2939680
  23.3247748   2.6037861  54.9130487  22.7967920   1.8399645  55.1455307
  23.8263598   2.3241402  54.1472578   3.3274788  53.3451939  61.7287254
   3.5047764  52.5313330  61.2571001   2.4405998  53.5878563  61.4626741
  41.8815851  66.0959291  55.3697062  42.4651623  66.8538523  55.3347445
  41.0024500  66.4722633  55.4111767  52.1029206  68.7480392  10.3471831
  52.7919527  69.2735948   9.9406603  52.5267764  68.3402409  11.1023501
   0.5642170  60.4072666  49.8171473   1.2695927  60.8513594  49.3465519
   1.0030502  59.9622583  50.5421448  50.1921368  20.8212924  59.6019506
  49.3174791  20.9868479  59.9537945  50.3803110  19.9147129  59.8447227
  42.9673672  34.4011545  59.9333763  43.3306122  34.3014717  59.0534019
  42.2905159  35.0713229  59.8385906  79.2201897  71.7874970   5.5153111
  78.5917517  71.3827385   6.1131934  78.6816307  72.3019947   4.9140814
  54.0243769  60.2401257  52.5541067  54.9470234  60.1849461  52.8029346
  53.9860487  59.8389339  51.6858912   9.8943367  63.2361759   1.2335900
   8.9767590  63.3919419   1.4572504  10.1979389  64.0695609   0.8736924
  59.8981987  14.6512976  26.4095953  60.5911766  14.0798702  26.7404726
  60.2162014  14.9435272  25.5553606  53.2904243  30.7390070  51.3198519
  54.2264843  30.5398679  51.3006115  53.2384539  31.6073942  51.7191458
  66.9427725  69.0515365   8.1281880  67.6906391  68.6089672   7.7268675
  66.2052556  68.8433828   7.5546292  18.5705410   0.3014698  23.3351496
  19.4252526   0.7119146  23.2038477  18.0584894   0.5645719  22.5704172
  69.8537874  52.6870728  62.0515299  69.2775965  52.4294281  62.7711487
  70.6408787  53.0202723  62.4824572  34.8848748   9.9825221  38.9977121
  33.9298081   9.9912703  39.0610027  35.1781702  10.5307293  39.7255015
  69.1861963  28.8077664  23.8488793  70.0606775  29.1139793  23.6085606
  68.9669418  29.3040872  24.6374369  48.1517887  68.9519691  35.3306103
  48.1511068  69.4388103  36.1547565  49.0716791  68.7324047  35.1828909
  47.2587538  40.4396534  53.9140320  47.1529531  39.7875881  54.6067429
  48.1312656  40.2715540  53.5580921  26.7742525  34.7120133   8.9990357
  26.3866268  34.1546335   8.3242729  26.9031512  34.1284790   9.7467688
  16.2074410  12.6540079   4.8381260  16.1712157  12.0733586   4.0780142
  16.7624508  13.3816233   4.5574692  33.4950733  22.0083451  13.6826622
  33.8788128  22.8848457  13.7095225  32.5664544  22.1587610  13.5058105
  45.5701481   2.6865568   1.4702061  45.9855400   3.2026949   2.1610668
  44.6533619   2.6220932   1.7377547  75.4067083  43.3281131  10.3701809
  74.8163792  42.6524826  10.0366143  76.2682482  42.9110690  10.3774861
  18.7731539  26.5934792   7.4602249  17.9821669  27.0713558   7.2108057
  18.6301266  25.7057324   7.1320847  25.4308262  51.8173005   4.7238901
  24.6445360  52.3438181   4.8679570  25.9219113  51.8913438   5.5421713
  48.9689636  27.1828651  50.2210045  49.1395807  27.3123598  51.1539268
  48.9595795  28.0669689  49.8542547   7.5481310  45.0201102  26.9885805
   7.9350701  45.0717802  26.1145953   6.8283787  44.3960156  26.8953398
  23.5688912   1.6817703  17.3631552  23.4481465   2.5293770  16.9351176
  24.5075451   1.6369596  17.5452402  17.3147335  61.9997396  14.4021395
  16.4565125  61.6239347  14.2060259  17.1198406  62.8026356  14.8854712
  24.2718649  68.9161110  38.4583068  24.5808697  68.2811117  39.1044688
  24.9238825  69.6165609  38.4800482  68.6637436  16.6982022  18.8286188
  69.0298687  17.5794211  18.9037207  68.1885182  16.5655794  19.6488646
  14.6918379  30.9074011  29.1083220  14.6768795  30.6809273  28.1784132
  15.4314076  30.4140558  29.4631174  20.1912254  36.7525792  64.7347689
  19.5315403  36.1925960  65.1439905  19.8163933  37.6324487  64.7743034
  55.7254839  49.7108936  57.0911121  56.4825678  49.8357105  57.6633644
  55.7627583  50.4471636  56.4805794  50.7055664  27.5700188  60.0597286
  50.3919744  28.0083871  60.8507538  50.3323841  28.0788589  59.3399715
  59.4365978  31.8166471  64.9951935  59.1168404  32.1752572  65.8230734
  58.7965584  32.1069145  64.3453264  59.4323703  68.9849986  10.0350931
  59.9115296  69.3369831  10.7852581  59.5301648  69.6509637   9.3545369
  20.6654393  27.1829596   9.3722370  20.0118529  26.9134608   8.7269238
  20.5150925  26.6057148  10.1208475  49.7964859  56.8251228  56.0900831
  50.0817537  56.1495209  55.4749250  49.1902447  56.3737154  56.6773891
  17.1471548  29.4205451  61.5025425  16.6701055  30.1058030  61.0344887
  17.6827550  29.8937607  62.1392822  41.8101215  53.4434128  64.2789650
  41.6353178  54.1299772  63.6352968  40.9976244  52.9388523  64.3176079
  74.3103024   9.8559452  62.6338816  75.1179024  10.0813271  62.1721172
  74.4345852  10.2031303  63.5171938  74.3731611   2.3404446   9.8604277
  75.1597898   1.8781629  10.1498106  74.0728514   2.8118124  10.6375101
  16.4015423   2.1112695  17.6436404  16.1379134   2.3676195  16.7598894
  15.5776726   1.9324985  18.0969694   0.8488125   2.8667948  64.4576788
  -0.0644356   2.6547322  64.2647171   1.1011642   3.4851155  63.7719488
  44.6271618  69.2253532  13.7070731  44.8622140  68.3943190  14.1198281
  44.4251975  68.9938392  12.8005198  59.8207855  50.7614088  42.8660679
  60.5647087  50.1989841  42.6504660  59.4169331  50.3433323  43.6265612
  47.1145487  18.2432222  56.1686087  47.1582937  19.0689290  55.6863976
  47.2858810  18.4876227  57.0780849  32.3944712   5.7734621  55.9945440
  32.9892755   6.2217963  55.3933477  31.5242100   6.0874844  55.7490492
  51.2241316  24.5490241  46.7349243  50.9778738  24.5437384  45.8099556
  50.9137106  23.7079310  47.0702314   0.3124466  67.5600566  17.1943072
   0.4336062  66.8117322  17.7787474  -0.6253204  67.5647630  17.0024756
  43.7166678   4.0206852  23.5029677  44.0237700   3.5813036  22.7099589
  42.7680289   4.0818444  23.3908156  68.9650818  63.1787838  11.8321684
  68.9938017  62.7006616  11.0034302  68.4791514  63.9784564  11.6306141
   0.8021622  36.9333830   7.0796660   1.7529660  37.0226803   7.0147065
   0.6156617  37.0309534   8.0134371  62.4722910  50.9698820  65.0666332
  62.3119068  50.2625608  64.4419670  62.3618364  50.5609703  65.9250212
  11.1306702  23.5755530  20.5156592  10.7465850  24.4356384  20.6858424
  10.8441268  23.0353251  21.2520579  61.7135616  56.7785694  32.8968504
  62.3785039  56.4351799  32.3000506  61.5915629  56.0843791  33.5445002
  23.4500256  66.2164892   2.1569184  24.3037739  66.0025205   2.5331715
  23.5937252  66.1975350   1.2107542  59.4461203  61.0613632  61.9033527
  58.8545322  61.5663815  61.3454819  59.3535233  61.4565372  62.7702379
  66.3486930  52.6473560  18.1390456  65.9009620  53.4854378  18.0233363
  67.0377155  52.8300931  18.7778643  60.4068565  43.5142422  61.2383604
  61.3450050  43.4970427  61.4276218  60.1933956  44.4448042  61.1696815
  32.7262865  13.4527674  31.1665705  33.6773287  13.4676733  31.0591677
  32.4566637  12.6119652  30.7969931  42.2518826  56.0217953  63.0691481
  42.4931049  55.7336235  63.9494896  42.2610474  56.9776487  63.1191063
   2.2956604  61.6758347  48.1177855   2.7320045  61.3244104  47.3416805
   2.9241509  62.2973728  48.4850979  61.4967476   3.0626574   0.2200440
  62.3011624   2.5478544   0.2842835  60.9560334   2.7538100   0.9470108
  39.0056225  55.0523116   9.7930125  38.5211655  54.2317523   9.8836497
  39.2078432  55.3116156  10.6919554  31.7999493  41.9551029  22.9323557
  32.0489298  41.6054287  23.7879065  31.6224562  41.1801329  22.3992995
  57.1675062  23.9134932  59.3464565  57.5873375  23.0756211  59.5412493
  57.7202797  24.5645690  59.7786236  76.2871491   8.0583182  29.1469076
  75.7179962   7.3125401  28.9568594  77.1744000   7.7047816  29.0834311
   2.0495759  21.1793604  35.3566244   1.6625344  21.6603127  34.6251086
   2.7696883  20.6855860  34.9643782  76.7076918  73.4704437   0.9187439
  75.9564825  73.9562453   0.5782917  77.2247072  74.1260447   1.3868454
  71.2825485  71.4980711   3.8917855  71.8326851  70.7320060   4.0552643
  70.4294869  71.1341848   3.6549309  79.4921207  31.1442661  56.8754435
  80.2445889  31.2653542  57.4545383  79.0450096  30.3721046  57.2219753
  70.5637499  67.2161116  27.1858576  70.7187983  68.1425323  27.3700789
  69.6163412  67.1100845  27.2719458   1.0872021  48.5679354   0.6927517
   2.0248404  48.5786654   0.5005244   0.6661883  48.6200597  -0.1653024
   5.3767624  62.7293123  13.9014366   5.5635824  62.2884454  13.0726031
   6.1176720  62.5049175  14.4644049  60.1277968  67.4606623   3.1773833
  59.7191402  68.3017959   2.9731205  59.5141479  67.0354380   3.7764242
  44.9236202  31.7982864  62.7687645  44.7846317  32.7430654  62.7031231
  44.3715811  31.4266157  62.0807600  46.9093152  70.2411594  14.5567444
  47.0987006  70.9844627  13.9841488  46.1167368  69.8508681  14.1883353
  68.3376980   4.5901707  37.2633624  67.7112341   5.2052134  37.6448011
  68.8576269   5.1211530  36.6600680  67.4906683  28.5208607  56.9364595
  68.4310198  28.4952235  56.7595196  67.1505690  29.1782260  56.3294697
  53.1029224  37.7520561  61.0060167  53.1080818  38.7091875  60.9956312
  54.0255785  37.5083613  61.0805273  69.5425701  55.2454329  64.6722031
  69.2301989  54.3873405  64.9591446  70.3316116  55.0556374  64.1646290
  77.2573996  39.5256710  63.5070229  76.7155647  38.7914705  63.2178926
  78.0709410  39.4327664  63.0112886  76.6076704   0.4751278  46.9782305
  77.5185581   0.3924252  47.2604942  76.5491196   1.3582588  46.6136980
  19.9976897  29.0793109  55.2804518  19.7059083  29.5886898  56.0365152
  20.9487653  29.1870689  55.2716637  38.4417582  54.6712399  60.4241562
  38.8075733  53.7927866  60.5277348  37.4951458  54.5458889  60.4908466
  -0.0714577  24.9731770   1.4048746   0.2835404  25.1127472   2.2827843
   0.5732690  25.3709641   0.8197859   2.6813975  47.1127053  17.5220755
   3.5011425  46.8086799  17.1324328   2.6729241  48.0555238  17.3569849
  68.9809652  71.8482365  26.0876253  69.6072765  72.3907675  25.6084326
  68.8507982  72.3083414  26.9168356  46.0605764  36.7119241  58.6985254
  46.2658882  37.6332664  58.8573027  46.8133974  36.3795924  58.2096004
  50.0430809  37.0378008   4.0368155  49.4743000  37.2270336   3.2905463
  50.5724512  36.2930145   3.7516955  59.7431564  52.8944635  63.0777407
  59.3210363  52.0354223  63.0683374  60.3761625  52.8581429  62.3606491
  73.7791487  72.2700657   2.3033074  73.2336470  71.5220465   2.0601490
  73.7048765  72.8715600   1.5624169  48.0308962  10.4001391  62.2801590
  48.1413078  10.1173317  63.1879377  47.4810028   9.7242367  61.8839216
  57.1541166  38.2473373  54.4169092  57.1075726  39.1732264  54.6552229
  56.3037252  38.0591726  54.0198517  27.0053715  29.3911529  61.0867262
  26.1636204  28.9512110  60.9677982  27.6247639  28.8634324  60.5826569
  64.4240522  46.9488811  50.1028442  63.5315561  47.2371292  49.9115515
  64.5547676  47.1701622  51.0248947  44.6788836  37.2892976  55.6369781
  44.0636587  37.8380084  56.1234426  45.4366446  37.8544545  55.4865456
   1.8789619  67.9692316  43.2404137   1.9000668  68.0078745  44.1966009
   1.5995926  68.8443518  42.9714441  54.9294519   2.2520229  64.4214153
  55.1367474   1.4553992  63.9328957  55.7823420   2.6229477  64.6477509
   5.2355198  64.1447412  57.9732847   5.9805755  64.7408377  57.8971815
   4.4874362  64.7169649  58.1440496  10.3835716  45.1767685  24.0450266
   9.4504633  44.9683900  23.9989641  10.8224287  44.3301626  23.9619902
  59.6666813  54.5712090  45.0213242  59.4943857  55.4957819  45.1994133
  60.5175161  54.4037342  45.4266214  67.8282404  71.3948679  49.8018503
  68.0723858  70.4885149  49.6143723  68.2300329  71.5804911  50.6505775
  76.0948515  72.1233749  63.1162548  75.7801247  71.4648294  62.4969816
  76.3960266  72.8457737  62.5651932  67.8146791  29.7563744  62.0112896
  68.6240768  29.2542815  61.9163513  67.2898340  29.5109797  61.2493515
  24.7254515  22.3570991  56.0551500  25.2322292  22.2105503  56.8538570
  24.3821144  21.4930987  55.8274269  48.9450363  74.8536552  53.4143257
  48.1746582  74.8802546  52.8468466  49.6815494  75.0210936  52.8263235
   1.1220211  43.2053089  59.8851776   0.8795876  44.1243267  59.9986124
   0.2897400  42.7534819  59.7459316  30.2174078  26.1121216  23.4665564
  30.9061562  25.4624596  23.3258704  29.4015013  25.6218186  23.3658865
  16.5879405  14.7945988  58.9949656  17.2142112  14.0767336  59.0881634
  15.8254123  14.3944669  58.5770226  47.2015190  34.0986466  63.6873198
  46.8666220  33.7545347  62.8592730  47.0135736  33.4109044  64.3260050
  58.0526352   8.1414282  64.9862480  57.8741312   8.5619462  65.8273983
  57.3773956   8.4825963  64.3998337  24.4513832   5.8974400  18.0139998
  24.3237530   5.4726782  18.8622454  24.0182387   5.3171673  17.3879698
  15.2919808  68.7346210   5.4253128  15.7279387  68.8563003   6.2687376
  15.2828684  69.6073641   5.0322941  26.4343586  56.1519708   2.4218443
  26.1137619  55.3631152   1.9846323  27.3170223  55.9226908   2.7126625
   8.7550968  37.8864551  24.3375397   7.9335350  38.0316234  24.8067808
   8.8311810  36.9342208  24.2767596  57.1917578  54.1077866   2.9371956
  57.6357909  53.4341706   2.4221114  57.8612419  54.7754754   3.0862358
  76.5064942  37.7287140  12.3234633  76.2706124  36.8134155  12.4745396
  75.7413517  38.1045094  11.8880680   9.2614614   8.8499871   1.4029148
   9.0758358   9.4680586   0.6959751  10.0729572   8.4179297   1.1363962
  12.5368367  10.3846255  16.8860319  13.4407698  10.5129137  16.5984896
  12.4917160   9.4598522  17.1289137  71.3873959  49.4004631  50.8788681
  71.1424828  49.6956825  51.7558527  70.6098270  48.9473295  50.5528402
  35.2547288  19.8373461  60.8286381  35.0331736  19.7764063  61.7578506
  34.8951197  19.0381110  60.4437542  79.2225361  44.0918541  63.2605505
  78.4048557  44.2553997  63.7305355  79.9069309  44.2302608  63.9152908
  54.0265751  24.5752239  44.4279051  53.5980463  24.9577141  45.1936054
  54.5604992  23.8642693  44.7824430  57.5765133  62.5059175  57.3221016
  58.1814051  62.9682398  56.7419338  56.8069458  62.3354101  56.7790318
  25.4387223  17.3291579  13.3623007  26.2916933  16.9770947  13.6167029
  25.6065975  18.2531014  13.1768826  67.3391628  21.1984468  33.9638519
  67.6313496  20.3750277  33.5729051  67.6929235  21.1802053  34.8530936
   6.8976540  10.3732193  62.8251886   7.4558682   9.7481406  62.3626852
   6.9043678  11.1548138  62.2726536  65.5863210  63.4347500   2.8552082
  66.4899918  63.1388773   2.7453497  65.3896757  63.9089789   2.0473316
  55.9963452  14.7080174  16.5501955  56.6397988  14.4433346  17.2075632
  56.2477528  15.6011572  16.3149622  14.2364683  53.0524840  14.3069533
  15.0767269  53.4927298  14.1789893  13.6571350  53.4481789  13.6557797
   2.2458544  53.3842088  25.5992773   1.4252463  53.3445062  25.1080969
   2.3560276  52.5017311  25.9532908  61.4825317  50.0993933   5.0379017
  62.0474788  50.8720888   5.0403813  60.6087299  50.4421653   4.8502520
  33.6339668  59.2649805  33.3123946  34.3442968  58.8049184  33.7596107
  33.2668880  58.6145603  32.7136946  15.1203814  49.1435565   7.0438650
  14.5453921  48.5935749   6.5117577  14.5996943  49.3551232   7.8186920
  53.3527803  49.6108961  55.2714014  54.1031265  50.0352621  54.8553181
  53.6288595  49.4705391  56.1771107  52.9388142   4.6867135  48.9380741
  53.3875561   5.5321902  48.9324570  52.0110226   4.9074373  48.8560963
  61.5782567  22.8718402  46.8944529  62.0207807  22.6472308  47.7129629
  62.2792169  22.9004981  46.2432555  65.1604033  60.2849960  52.0327997
  65.1651859  59.3512630  51.8222141  65.6644106  60.6920290  51.3281488
  79.6904421  45.9041262  57.5707197  79.4473839  45.4838896  58.3956766
  78.9461756  45.7421350  56.9910097  52.1041046  14.2291298   8.1026581
  52.5114809  13.4714642   8.5224417  51.4302861  13.8549462   7.5350455
  32.8991495  34.7595587   8.3578947  32.8142582  35.2270403   7.5269440
  32.4047171  35.2899876   8.9827231  42.5108814  64.1361427  29.6504092
  42.7758169  64.9072647  30.1518178  42.5529909  64.4184589  28.7367582
  15.5765003  73.2614136  41.4234972  14.8660225  73.0937576  42.0426416
  16.3130993  72.7513313  41.7603493   5.0262779  58.8424063  35.5540156
   5.0621075  59.7386742  35.2198744   4.9735302  58.9430571  36.5044475
  60.8954906  53.0086517  49.2567062  60.4422808  53.3002806  48.4656382
  60.3091621  52.3577881  49.6424866  24.9711453  47.0363560   5.8832863
  24.0308415  46.9794598   5.7134989  25.3475796  47.3253479   5.0520161
  18.6525952  50.3889504   0.8674792  17.9943358  50.5781403   0.1988009
  18.7121474  49.4337120   0.8814410  26.6087288  62.3464966  34.4941401
  26.0033077  63.0672264  34.6680713  26.2979168  61.9655180  33.6728668
  22.7854433  69.0905608   3.1564644  22.5835123  68.1926908   3.4196881
  23.5280171  69.3401422   3.7064913  41.4046513  20.8379832   5.4687622
  41.4846455  20.2886715   4.6889618  41.7642199  20.3030815   6.1764458
  73.2421824  69.8344530   0.4477337  72.5074383  70.4465760   0.4887894
  72.8814503  69.0553035   0.0246123  61.4564705  40.3027344  47.4474812
  60.5269337  40.0754929  47.4239922  61.4685583  41.2595224  47.4729538
  54.3378019  51.2529182  61.2694073  53.9535809  51.5278530  62.1018839
  54.1264296  51.9620752  60.6622458  68.1965876  37.6942897  45.4268980
  68.4502935  37.0232105  46.0605526  67.5134516  37.2799277  44.8997736
  23.2230650  30.9105005  16.1166266  23.2252251  31.5121641  16.8610934
  23.0141817  31.4625778  15.3630999  60.5563208   0.8827663  58.8409853
  61.5059181   0.7733322  58.7907696  60.3976055   1.1911417  59.7331429
  29.5567261  16.5364828  23.6243227  30.1193606  17.2366467  23.9551428
  30.1175820  16.0399046  23.0284384   8.3038944  28.3194375  53.6544132
   7.6501793  28.8413024  53.1890774   9.1129250  28.4532809  53.1606531
  64.9398613  62.9999161  60.0509596  64.3090630  62.7969360  60.7417011
  64.5328093  63.7111807  59.5563412  42.3755779  -0.1045917  53.7764168
  42.4498596  -0.5216431  52.9180574  42.9851952   0.6323887  53.7381887
  48.5898768   5.6403103   9.3447808  48.8130366   6.3743439   8.7723950
  49.2145048   5.7016363  10.0674942   2.6557392  28.2201838  55.7048941
   3.1592220  27.4931216  55.3386736   1.7418427  27.9559350  55.5990934
  48.0705677  11.0257807   6.8081597  48.7640654  11.2281027   7.4361399
  48.2384287  10.1195564   6.5496710  52.2670460  35.3548336  64.1829157
  52.4770355  36.2537146  63.9296389  51.3923931  35.4124713  64.5674801
  68.8648888   2.1075560  59.6651125  68.8950630   2.2782684  58.7237406
  69.6959063   1.6727758  59.8564434  36.2423455   8.3233252  21.3061503
  36.0654866   7.5263396  20.8063868  35.7774912   9.0120831  20.8310202
  31.1930643  30.8984604   5.0640372  30.4677569  30.6192961   5.6228092
  31.1441218  31.8543997   5.0677994  20.6694638  21.0073414   2.4451998
  21.3122307  20.6787577   1.8166235  20.0667177  20.2753821   2.5762060
  61.6511198   6.2899471  64.5332098  61.9929715   7.1839214  64.5469475
  62.1974560   5.8149601  65.1594114  15.4360622  14.0499210  37.0454693
  14.6231216  13.6350846  37.3340511  15.2404923  14.9869299  37.0470762
  46.6420924  20.2320662   7.4208287  47.0731722  19.3865004   7.5450161
  47.2863804  20.7628718   6.9524554  75.6610537  55.2987480  61.0290384
  74.8150015  55.5761433  60.6776428  75.8156395  55.8835268  61.7709064
  68.6921167  51.3203049  46.2079573  68.1825495  51.3580370  45.3985405
  69.0809965  52.1913719  46.2869835  33.1491065  71.8854761  40.3565788
  33.9649677  71.4131260  40.5223656  32.9456925  72.3117113  41.1891508
  67.9127741  17.6888371  44.5246887  68.3144760  18.5128403  44.8001623
  67.6942635  17.2434616  45.3432989  62.5613161  69.2939223  22.2688940
  63.2848617  69.9039067  22.1252611  62.2963019  69.4460239  23.1760100
  20.3295555  60.7807292  16.9112471  20.2162352  61.7121829  17.1004179
  19.9791136  60.6714977  16.0272291  76.1272097  51.0421419  55.5546188
  75.6089020  50.2849340  55.2821684  75.6227684  51.7982149  55.2544260
  71.3531637  37.7866101  46.7381859  71.8236828  37.0653629  46.3202810
  70.5269527  37.3985434  47.0263052  22.4140202   9.9644604   6.4857891
  23.0725371  10.1583996   5.8187273  22.8776537  10.0668230   7.3169306
   6.8674837  27.3178902  24.2524699   6.9600545  26.4542952  23.8501433
   6.5679632  27.1362534  25.1432684  24.2813568  74.0440216   0.5156401
  24.5525151  74.6972122   1.1606625  23.4591561  73.6947861   0.8595064
  49.9989959   5.2369858  52.1043730  50.5060240   5.2712990  52.9155302
  49.2305537   5.7803131  52.2790813  79.3983647  52.6677074  46.7492178
  79.0914866  52.5193645  47.6436785  79.7779699  53.5461988  46.7688444
  61.5389286  41.4812985   9.9460247  61.7870270  42.2623053   9.4513491
  60.8948647  41.7945709  10.5810669   1.2098589  11.5028454  53.1151819
   0.5926171  11.5439583  52.3847342   1.3126030  12.4129272  53.3934498
   3.7229644  27.9630175   1.0469273   3.9294134  28.3679142   0.2045086
   4.3897926  28.3007851   1.6448334  43.0227076  27.2218600   1.8610218
  43.4555804  26.4716330   2.2684697  42.2089134  26.8647614   1.5054158
  70.5468559  73.7438154  60.2556515  69.8540258  74.0579939  59.6746969
  71.0838747  74.5171881  60.4280853  14.2341986  29.7293068  55.7553625
  13.6649408  30.1222206  56.4170265  15.1119890  29.7805668  56.1336374
  44.6088162  73.5292806   0.9984043  44.3564930  72.6977648   1.3998392
  43.7823715  73.9164104   0.7097176  59.0188500   5.2226807  54.2360115
  58.4096571   4.7409035  54.7954845  58.8717219   4.8668934  53.3596516
  72.8329039  63.3678818  44.0227270  71.9462490  63.0163765  44.1034222
  73.2798910  62.7578926  43.4359121  25.4478111  69.4917764   0.5202845
  25.1079025  70.1163949  -0.1204559  25.6815138  70.0286664   1.2774924
  61.7232609  39.7921085  60.1417398  62.1178007  40.4083252  59.5246124
  61.7711163  40.2369022  60.9879684  13.5414257   8.0491043  36.2806034
  13.7936964   7.2589565  35.8028412  12.5880470   8.0824257  36.2019515
  52.2205197   7.4225655  32.7035693  51.4529787   6.9352427  33.0029467
  52.2971331   7.2020712  31.7752722  72.4418103  15.5207339   8.9517859
  73.1901776  15.1420202   9.4130352  71.7034375  14.9617377   9.1937664
  28.2852783  73.1733193   5.7617739  27.3467579  73.2892193   5.9100416
  28.6409607  74.0619196   5.7723311  11.2977642  62.3278522  50.0100231
  11.5404076  63.0230427  50.6216335  10.5856651  61.8614769  50.4477978
  48.0407034  29.9889651   2.1982601  48.9813458  30.0282517   2.3711088
  47.9021012  29.1189852   1.8238858  31.0431324  49.3051853   3.2630280
  30.7370650  48.4862461   2.8732947  30.8172118  49.2284146   4.1900090
  47.3222324  67.7380242  39.1000441  46.8483945  68.2153596  39.7811201
  46.7603727  66.9902529  38.8966158  14.8611389  14.7637787  20.7803706
  15.7721459  14.9207773  20.5320719  14.8399006  14.9199047  21.7245081
  69.6793699  71.1413336  60.2540731  69.9720430  72.0344305  60.0725555
  68.8314486  71.2500286  60.6847143  66.5440594  38.1673899  12.4706581
  66.8207585  38.5946980  11.6600540  65.9447800  37.4776879  12.1853379
  48.4995604  32.5859809  52.7398300  48.2963991  31.7933297  52.2431803
  49.4469595  32.6887798  52.6498318  27.0579039  16.2016907   0.6378821
  26.4347588  16.2494698   1.3628891  27.8566586  15.8503952   1.0313490
  14.0018887  58.4139729  57.5837851  13.2161182  58.4985113  57.0437479
  14.6935219  58.1789923  56.9651842  43.2691002  64.2093372  53.9515114
  44.1528797  64.5753717  53.9170313  42.7124786  64.9496889  54.1929293
  48.1002188  70.4138565  37.6816249  48.3072472  70.9044552  38.4770393
  48.2073450  69.4960976  37.9315782  24.7155749  56.7795315  25.8547190
  24.0010153  56.5355053  25.2664259  25.5099665  56.5261688  25.3846243
  65.2595459  22.1338740  17.2390059  65.8165966  22.7498999  16.7631510
  65.7518803  21.9309178  18.0343989  58.6995316  69.9987984  62.9620552
  59.2288971  70.7547903  63.2159758  58.5765219  69.5086336  63.7749767
  12.2559300  10.4086662  61.4317226  11.3429251  10.2391029  61.1995554
  12.2700110  10.3752495  62.3882389  21.7996823  31.2890568  20.2323321
  22.1887480  30.4773274  19.9068240  20.8814513  31.0686198  20.3888300
   1.9538921  65.8000612  30.4959726   2.6062721  66.4978313  30.5571914
   2.3910183  65.0307703  30.8611393  11.7635864  26.2669516  50.0221443
  12.7164120  26.1919522  50.0744677  11.4724487  25.4091954  49.7127533
  51.8279696  72.2522783  45.3444004  52.4968719  71.9471788  45.9573603
  52.3234558  72.6278734  44.6166277  77.3523556   3.1710234  35.5279044
  77.5946366   2.4152222  36.0629729  76.4147221   3.0616036  35.3694514
  54.5669304  31.1254540   2.4549177  54.1541039  30.7341948   1.6850355
  54.6137463  30.4112997   3.0905464  33.0416441  64.4039440  60.5167770
  32.2030663  64.5218086  60.9630108  32.8046322  64.1596365  59.6221399
  45.4961529  73.3485188  36.7616919  45.1433983  73.0706324  37.6070193
  45.1477566  72.7131738  36.1362341  54.9165678  48.8025141  44.7556019
  54.1881704  48.2024860  44.5954800  55.2905893  48.5088730  45.5863333
  16.2799155  13.9089384  11.9374827  16.1858927  13.6416474  11.0231808
  17.2130190  13.8035860  12.1230772  39.0697994  71.3249101  12.7067688
  39.8701515  71.6308822  13.1334475  39.3740597  70.7080640  12.0410708
  67.1821438  43.6396065   6.4176110  67.4326454  43.3872166   5.5289105
  66.6294991  42.9206314   6.7240027  39.9231802  10.7560721   6.3347891
  40.0995766  10.0882187   6.9974259  40.7148491  10.7749357   5.7970789
   1.7062273  70.7949795   6.0948971   1.3459864  69.9141731   6.1980275
   0.9398356  71.3534512   5.9645775   6.6485845  25.1173439  19.1016558
   6.0985147  25.4254666  18.3814410   7.3543249  24.6326485  18.6736086
  56.6629601  64.6025705  43.3749866  56.0777617  63.9748955  43.7990141
  56.0875225  65.3133297  43.0922747  34.9124947  -0.2497314  32.6722097
  35.7504406   0.1487041  32.9074407  34.2687550   0.2110172  33.2102990
  49.2811012  64.3978596  45.6495905  49.3712711  65.3135633  45.9133816
  48.6694002  64.0248680  46.2843609  14.4055449  17.4985876   4.8331431
  14.8438298  18.2823029   5.1647023  14.6656357  16.8044176   5.4387120
  56.7598104  44.2489672  49.6078825  56.8201208  44.2895794  50.5623150
  55.8783054  44.5651770  49.4099236   2.5478214  16.0769498  62.0100164
   1.8009800  16.6539264  61.8501377   2.9765076  15.9983408  61.1577940
  70.7998228  46.4677811  47.6756048  71.4888096  45.8704233  47.3845959
  70.6048965  47.0018816  46.9055605  38.9867913  11.4849129  31.7473772
  38.1128203  11.1057511  31.8403605  38.8277899  12.4095955  31.5578631
  71.9534206  63.2251310  52.4838877  72.2122288  63.2306051  51.5623569
  71.5157890  64.0663147  52.6147604  54.3935334  19.0359202  12.9551581
  54.9901711  18.3676520  13.2923249  53.8957726  19.3211689  13.7213782
  74.8068138   4.8159958  55.9555006  74.8701569   3.9921595  55.4722691
  75.4707237   4.7431351  56.6411781  75.6125562  17.2374192  40.2486685
  74.8976915  16.6707649  40.5386713  76.3944952  16.8633547  40.6547240
  46.4556776  26.3963833  12.8232411  45.8650671  26.5875378  12.0946339
  46.8247639  27.2467318  13.0618075  32.3461424  19.1208592  26.5241412
  31.8343960  19.6243324  27.1572760  32.8321348  18.4906473  27.0559958
  16.0897913  68.9639367  20.3822687  16.1513891  69.0234508  21.3356283
  16.1127081  69.8730458  20.0835589  57.4625683  45.8573818  41.7912483
  57.7186394  45.3627062  42.5696802  57.8749371  46.7136478  41.9052172
  60.9005963  19.3217173  17.2714022  60.7049404  20.1724854  16.8787936
  61.7166935  19.0470114  16.8533591  76.4762436   4.4564285  14.3965700
  76.0086571   3.6796417  14.0896490  76.0332524   4.6966782  15.2103690
  43.1840645  29.6403399   5.1413325  42.3365246  29.9861279   4.8614434
  43.6488520  29.4558945   4.3251303  32.9183947  33.4271422  34.7208765
  33.3013092  34.0490284  35.3396395  32.8681551  32.6047125  35.2080324
   5.1818222  65.5074739  54.4762850   5.2161545  64.5555830  54.3816137
   4.4420380  65.6632471  55.0633812  39.5822178  45.0705662   4.3103197
  38.6389433  45.0485459   4.4714907  39.8376452  45.9720650   4.5059946
  33.1092110   7.7735592  34.3860507  33.9148083   7.4480797  33.9844227
  33.4080258   8.3301521  35.1051807  54.2234373  71.5971470  56.2863779
  55.0872135  71.2554073  56.0554409  53.8148785  71.8034601  55.4456949
  53.6906481  60.3707361  55.8079672  53.9985418  60.4554224  54.9056053
  52.8005505  60.7224226  55.7913303  30.0033894  75.2557697  14.3940428
  30.6346359  74.5362200  14.3973282  29.9279347  75.5039849  13.4726694
  39.9561381  60.5847692  54.9218702  39.2945719  59.9125147  54.7586584
  39.4816709  61.2832928  55.3726244  55.1506935  25.3858509   4.5692852
  55.2259575  25.4058113   5.5233172  56.0370194  25.5649462   4.2553118
  52.1670076  15.6720902  31.1421013  52.4390575  14.9694897  30.5517054
  51.4775749  16.1330582  30.6641626   6.5448326  44.1487074  50.3396940
   7.2863335  44.6183872  50.7215452   5.7873386  44.7023106  50.5293131
  51.9945227  20.2223721   0.5393627  52.9480587  20.1585331   0.5934885
  51.6751181  19.5805636   1.1736372  38.7686863  53.9803316   4.3466690
  38.4346714  54.2135491   3.4804896  38.0006924  54.0153028   4.9169234
  24.5131003   3.5368052   4.2957714  23.6483132   3.8925543   4.5002821
  24.4854580   2.6374474   4.6223000  32.6548329  17.2530247  64.2914581
  32.1969929  17.3029877  63.4523392  32.3250046  18.0011726  64.7891760
  78.4799568  31.7392531  34.8258761  77.9765718  31.1474123  34.2668131
  78.0440418  31.6935530  35.6768301  36.0905348  27.2332468  14.5900944
  36.1121832  27.4580279  13.6599139  35.7185065  28.0062523  15.0147036
  36.6319500  29.5923939  18.4173373  36.9710623  28.7080517  18.5558108
  37.4036537  30.1124706  18.1932333  65.8398199  47.9986954  38.6692452
  66.7615747  48.1326628  38.8898134  65.3682470  48.2020664  39.4770145
  54.4684540  13.6227074  10.9807232  54.2592274  14.4231501  11.4621237
  53.9450871  12.9435625  11.4062575  35.6049525  27.1218291   9.7527769
  34.8476635  26.9577875   9.1907814  36.1939417  27.6491823   9.2131213
  44.8109471  20.9338751  27.1898535  45.7168995  20.6309166  27.1290377
  44.3389736  20.4090395  26.5433005  30.2687683  15.2710224  57.7217817
  30.1294937  14.3448902  57.5240088  29.7338524  15.4330708  58.4988499
  70.2912409   5.9953896   8.3078698  70.7934840   6.5150563   8.9355162
  70.0460751   6.6179291   7.6233462  36.0854136   1.9657674  17.6106718
  36.7966782   1.9349542  16.9708422  35.7613169   1.0660544  17.6520422
  16.8708366  21.6666293  36.2284255  16.0109371  21.3036799  36.4407420
  16.9400734  21.5781784  35.2778387  72.0535374  72.9295969  51.2703943
  71.8293810  72.7680206  50.3539467  71.4301252  72.3991203  51.7665672
  13.9483303  64.2862940  61.2041712  13.9934200  65.1977825  61.4929342
  14.7026581  63.8664627  61.6176558   5.1654572  67.7832651  52.5197840
   5.5283016  67.3038006  53.2645607   4.2514366  67.5023460  52.4764156
   3.3126774  54.8578872   8.4907368   3.0082646  54.9670781   7.5898245
   3.9405861  55.5688395   8.6192110   2.8615513   0.7430578  44.1878653
   3.5060110   1.4239288  43.9946747   2.3392954   0.6739069  43.3886766
  60.8011090  40.4739990  13.4119681  60.5226933  41.2039986  12.8589609
  59.9878250  40.0260964  13.6447457  77.8958321  39.8238373  52.4527550
  78.4331369  40.0039291  51.6813278  77.0940256  39.4369006  52.1011543
  72.6784468  57.6726818  55.7711077  72.5996923  58.5769796  55.4673433
  73.5334110  57.3858213  55.4502010  37.7817440  59.4443226  62.4969816
  38.6748004  59.1857433  62.2693443  37.2860503  58.6255026  62.4895477
  61.6493988  56.1140966  57.5425911  61.6902733  55.1901722  57.2957659
  61.6851950  56.1082840  58.4991026  67.7179575  55.5568361  49.5910501
  66.8697119  55.9957027  49.6551895  67.5486660  54.7864962  49.0487003
  35.3891030  12.2773434  43.4202242  35.0067654  12.0824219  42.5646210
  36.0788670  11.6226650  43.5290956  32.3433195  39.9582091  10.1346138
  32.2560059  39.2703524   9.4747189  32.8213202  39.5424452  10.8521679
  27.2304859  12.8646637  59.6758604  27.3411217  13.2018162  60.5648565
  27.6978054  12.0292927  59.6766329  12.4833244  43.6817789  38.1331062
  12.6576656  43.8235760  39.0635538  12.0294708  42.8396654  38.1000829
  67.6536417  39.4891644  65.3969908  67.0135641  40.1920557  65.5086613
  67.8493214  39.4900465  64.4600058   2.6651234  40.5296230  25.2483463
   1.9133514  40.3672695  25.8181882   2.4441093  40.0876904  24.4285417
  53.9090820   5.4341866  57.2473001  53.3568522   6.0764862  56.8015051
  53.5128375   4.5891405  57.0348930  62.3942314  28.9941015   4.2000798
  61.7215287  29.6746006   4.2249134  63.1407677  29.4108858   3.7697104
  53.3364630  33.4962845  58.2456398  53.8620138  34.2759013  58.4251595
  53.5772848  32.8804994  58.9377737  67.5424004  60.2185965  49.8037958
  67.3990059  59.9743414  48.8894606  68.4843111  60.3778934  49.8642588
  20.7966370  44.7717762  62.0557356  20.7467503  44.6242285  61.1112928
  19.8847717  44.7704697  62.3468494  78.5943257  56.9697418  20.7833746
  77.7597271  56.8979397  21.2465361  78.5430657  57.8091183  20.3261450
  76.3187737  52.5526905  47.5232601  75.6621403  51.8616056  47.6096630
  76.5952248  52.5073242  46.6079712  13.4832615  47.1997309  51.9512367
  14.0101761  46.5380239  51.5031958  13.9634079  47.3815393  52.7590942
  63.4477555  11.5298834   6.5900162  64.1767823  11.5295830   7.2103003
  63.8329254  11.2274733   5.7675675  11.7693973   2.0988229  48.5300827
  11.6761398   1.7933433  47.6277447  12.6385331   1.7985925  48.7959719
  56.9453355  25.8441796   1.6983727  57.6294657  25.5561139   1.0940388
  57.3492595  25.7832684   2.5640324  23.5859207  54.7960876  32.7253294
  24.3021110  55.2374529  33.1819463  23.2806257  54.1322922  33.3437157
  68.2354174  58.5387503  36.8555021  68.8807020  59.1021620  37.2825933
  67.9144046  59.0582441  36.1184072  33.1351777  45.6281175   1.8075779
  32.6053347  45.9100886   1.0619286  33.0585726  46.3427825   2.4397305
  40.0706291  34.0925956  37.9569864  39.8296642  34.5500731  38.7625194
  40.6053257  34.7229719  37.4743247   9.7279004  33.5128712  44.2107964
  10.4452137  33.2597898  44.7918653   9.9138335  34.4239162  43.9835167
  48.9541312  70.6099095  24.8563269  49.3001100  70.1787867  25.6377772
  49.5855065  70.4006781  24.1679743  63.4264693  47.8627466  65.0108147
  62.6653591  47.9130029  64.4325256  63.1568501  48.3282136  65.8025694
  27.3952341   7.5948417  60.3233862  26.7907715   6.9816965  59.9051619
  28.2646346   7.2832531  60.0718212  22.1958208   1.6348599  39.8050928
  22.6780581   2.3275121  39.3535256  21.9217920   2.0332222  40.6311941
  57.7031323  13.2823147  25.9474448  57.5053831  13.3295168  25.0120905
  58.3452078  13.9773740  26.0918883  74.6316906  71.7206372  19.0251044
  73.9922949  71.1017145  19.3777159  74.4328257  72.5471510  19.4650534
  25.8503488  67.5048481  56.4226246  25.3587726  68.2361220  56.0486937
  26.3322119  67.1365808  55.6820726  34.9953103   7.5386912  48.1327677
  34.9251819   7.7495444  49.0638208  34.6334767   6.6555673  48.0592775
  51.2845850   0.0030399  40.7208395  51.2402248  -0.1575236  41.6634321
  51.2783575   0.9567816  40.6397867  25.0844550  35.4359365  36.3171244
  25.6896019  34.9250698  36.8547511  25.6078005  36.1727428  36.0017538
  29.4642282  11.1033416   8.0684584  30.3560925  10.7775366   8.1895483
  29.3625450  11.7781341   8.7396860  76.0538003   6.8453431  54.1781235
  75.6738239   6.2657702  54.8383856  76.9924921   6.6605699  54.2089128
  60.4484081  21.5922642  22.3594427  60.4116821  21.9553900  21.4745569
  61.3533878  21.2970138  22.4598122  26.7179814  25.9825720  12.7568034
  27.1352139  25.4777672  12.0587185  27.1831074  25.7218661  13.5517338
  58.2810827  49.8600115   7.6112965  59.0523358  49.5557012   8.0896214
  58.1004592  49.1634585   6.9800881  68.2879591  23.9415693  41.4156961
  68.9028072  23.3035183  41.7777538  67.9661798  23.5344028  40.6113911
  23.4654144  71.1594232  59.8036623  24.1379789  70.7914605  59.2305231
  22.7050499  71.2789856  59.2346382  63.1491730  54.6328377  50.3459215
  63.8891516  54.3072342  49.8334265  62.4098751  54.0910291  50.0700331
  46.3473900  71.1426558   0.1683501  46.3132044  71.7571201   0.9014920
  45.4307302  70.9355797  -0.0135490  42.0992378  68.3572721  57.7053070
  42.7993111  67.7081346  57.7742481  42.5527147  69.1800140  57.5217676
  69.8709032  47.5899338  25.8653021  70.3740415  47.0095967  25.2940822
  69.2634473  48.0378269  25.2765560  18.4894264   7.8983718  47.1255732
  18.9965141   7.5543737  47.8609324  19.1046703   8.4574491  46.6510820
  28.4626484  16.2604010  53.2544327  29.3969226  16.4411867  53.1510830
  28.1944966  15.8958519  52.4109697  68.1978703  22.6173353  61.4348984
  67.4651957  22.0045233  61.3725996  67.9878950  23.1656432  62.1908760
  32.7952576  30.8292174  35.1579523  32.7499914  30.1363587  34.4990683
  32.1005201  30.6137872  35.7801747   7.7435517  15.1623249  45.0583124
   7.9480600  15.6364548  45.8642960   8.4120089  14.4791913  45.0061131
  75.5869088  70.6787511  37.6257753  75.7969580  70.5160259  38.5453582
  75.8458338  71.5883868  37.4782896  26.9347655   0.0925508   5.2054909
  26.0446821   0.2531686   4.8921421  26.8299090  -0.0969252   6.1378697
  56.7489576  27.7642155  51.7801809  55.9836674  27.3726845  51.3591480
  56.4496708  28.6272955  52.0660973  78.8057705  39.5437537   0.1690367
  78.9391991  40.0246492   0.9858397  79.5863196  39.7341889  -0.3512642
  68.0208156  68.5920434  48.5735226  68.2811174  68.0991494  49.3516827
  67.5735578  67.9501932  48.0219603   8.7259725  74.5925282  60.7437849
   7.8845600  75.0048258  60.9394073   9.3244270  74.9453612  61.4022636
  50.0524092   2.1870846   0.9045412  49.1434860   1.9249402   0.7583440
  50.4955673   1.9845973   0.0806228  10.6546393  58.0381955   3.4164313
  11.3516750  57.5443937   3.8483265  11.1142340  58.6320581   2.8228548
  32.3275566  17.7215016  47.7512884  32.2376657  17.1235681  47.0092487
  31.4925718  18.1882763  47.7852726  37.1012998  16.4182425  51.8946409
  36.2163830  16.2528324  52.2199011  37.6754379  16.0244262  52.5515318
   3.0679945  36.3309478  62.2554827   3.3759288  37.1667074  62.6060724
   3.8633446  35.8099531  62.1449518  68.6677405  54.9943723  10.1657275
  69.5377346  55.3305759  10.3809145  68.7407251  54.7059049   9.2559508
  62.3701688   8.3357538   0.1155022  62.8228923   7.4950065   0.0490406
  61.8150827   8.2482876   0.8903960  10.6525997  58.8627898  41.5664959
  11.1520151  59.6690821  41.6957617   9.7574166  59.0930521  41.8152094
  76.8486708  14.7639048  13.1255722  77.0063108  14.4994092  12.2192478
  76.3379651  15.5703413  13.0543542  57.6768252  48.3235134   5.5293015
  57.5088426  48.8201191   4.7284296  57.0139953  47.6329495   5.5263880
  61.8534040  31.2510896  61.2482786  61.7535686  31.8730712  61.9689751
  61.2192154  31.5406728  60.5923986  30.8701932  29.6603055   9.0609148
  31.2218561  30.3893276   8.5499409  31.6292443  29.3023582   9.5212916
   5.2137890  58.1079807  32.9789713   5.4325476  59.0142884  32.7622107
   4.9523297  58.1382288  33.8992670  44.9604893  23.5401702  46.7576361
  44.5001125  24.2850351  46.3710308  45.6569862  23.3385372  46.1327553
   9.8458805  35.2884144   8.4184626   9.5101395  36.1333837   8.7176922
  10.4979792  35.0436773   9.0750483  43.5221060  69.1088642  10.7519320
  43.0332717  68.5707678  10.1292589  43.0611726  69.9477591  10.7570294
  63.0560084  33.2537310  10.6806305  63.1093832  32.5047954  11.2743262
  62.6292273  33.9380859  11.1961344  54.1719504  68.3662643   4.3477610
  54.9083897  68.6769261   4.8744276  53.7703653  69.1640081   4.0034321
  42.4439383   7.5202537  57.6186180  42.9508877   8.1254798  57.0773792
  43.0524969   7.2447997  58.3041906  74.8197317  24.3998504  22.0668983
  74.7894955  24.0541744  22.9589891  74.7185564  25.3457546  22.1730042
  58.3533192   0.6640275  54.0298700  59.1999197   0.9330110  53.6732864
  58.0241776   1.4427349  54.4787741  75.3738603  49.8223304  25.7099032
  75.0959215  49.9190139  26.6207457  75.5997739  50.7102798  25.4328823
  17.7655653  52.9450463  46.7696285  17.5098757  53.8547777  46.6171789
  18.5844902  52.8419756  46.2848949  41.1259127  25.9837079  26.0318422
  40.4280138  25.9591818  25.3771925  40.6773138  25.8426785  26.8655682
  13.3829693  73.4991853  46.0719347  14.0352777  73.2020662  45.4375505
  13.1711153  72.7172237  46.5817261   2.5174561  37.6356232   9.8578051
   2.8681650  36.7624835  10.0334719   1.7766657  37.7213750  10.4578951
  71.9959398  43.7870945   8.7324599  72.6247402  44.4639565   8.4820679
  71.3250872  43.8193013   8.0504397  56.4004898   1.5306687  40.4811335
  56.0789633   0.6477785  40.2984905  57.3361683   1.4905083  40.2833462
  35.0128675   3.4458095  32.6914716  35.3589821   4.2129207  32.2354269
  34.2978811   3.1382948  32.1342778  25.1813892  57.0932197  62.9561567
  25.1345495  56.1452364  62.8321981  25.8238129  57.2118377  63.6557674
  10.3680877  62.0104765  39.4776249  10.6058196  62.3370635  38.6098385
   9.5151690  61.5946685  39.3516707  61.7232323  31.0658550  48.1019497
  61.8491459  31.9977689  47.9233074  61.3899946  30.7071972  47.2794247
  65.6384472  68.7239074  26.5971041  66.1061767  68.7847494  25.7641816
  65.1062588  67.9324703  26.5156865   5.9873682   8.1865108  58.8740206
   5.4279774   8.1655300  58.0975723   6.8606663   7.9721993  58.5459137
  66.4564655  47.3232721  23.8446450  66.2864027  47.4883603  24.7720385
  65.6168053  47.0227407  23.4969592  10.9736910  37.5128672   4.0703419
  10.2084294  37.2751512   3.5467985  11.4695492  36.6983264   4.1532973
  16.4166407  73.6247445  35.1933241  17.0728783  73.7750324  34.5128822
  15.5862478  73.5794092  34.7193837  31.2698889  20.2943683  50.6427145
  30.9986424  21.0712457  50.1537180  31.8349814  20.6335092  51.3368940
  25.9281039  20.1192570  30.5197740  25.2450252  20.5961204  30.9911942
  26.6676044  20.0973487  31.1271381  51.0440489  63.1610288  23.9086417
  50.1272198  63.2128753  24.1787604  51.4685150  62.6509656  24.5984915
  34.2782358  58.2768260  37.2703719  33.5270361  58.5261570  36.7320681
  34.4273142  57.3547493  37.0611358  40.9962845   5.3441358  60.6515789
  40.4165745   5.0740945  59.9393654  40.4980946   6.0090744  61.1268663
   3.8334789  35.1727806   3.6106995   4.5649567  35.7896133   3.5844210
   3.4457293  35.2237030   2.7370337  51.4888954  22.6290751  34.3141055
  50.7589006  22.0192981  34.4214034  51.0727072  23.4842181  34.2057157
  64.5404471   1.5157566  50.7292554  65.3473200   1.5993199  51.2373957
  64.7614087   1.8718323  49.8686632  74.3430171  53.4689902  55.9827852
  74.3936405  53.8436460  56.8621588  74.9667749  53.9810204  55.4680157
   4.8148207  52.7554082  37.2792673   4.0497211  52.2367166  37.0306468
   4.5953850  53.6484336  37.0135880  70.3572508  58.8148298   4.2815092
  70.6650110  59.0068235   3.3956984  70.8158442  58.0108132   4.5253876
   2.3350802  27.6944073  17.1168688   2.5530329  28.6264648  17.1166590
   2.5298348  27.4030949  18.0076197  44.6687555  20.0457859  33.1334329
  45.4085922  19.8502314  32.5584269  44.9468613  19.7359371  33.9953423
  43.6878427  49.9716832   4.0718153  42.8568026  50.1778437   3.6439160
  44.3551787  50.2309884   3.4364775  56.8447252  13.4191765   2.2130707
  57.2209355  14.2859258   2.3661736  55.9682199  13.4677090   2.5946644
  28.5816574  37.1185470  49.2980576  28.8282609  36.1973214  49.2158365
  28.0369115  37.2901440  48.5299158   4.1514197  53.1146838  16.6642741
   4.8004666  53.6401869  17.1320513   3.3089581  53.4868099  16.9250468
  54.4714165  14.0459383  39.2370200  53.6464357  13.8624787  39.6864414
  54.7374630  14.9046361  39.5657897  26.3664045  19.4552960   1.5696505
  26.4507141  19.9063172   2.4097136  27.2598019  19.1926505   1.3480881
  72.1799850  30.6047606  47.7325869  72.7705193  30.7752681  48.4663630
  71.3028717  30.6861734  48.1071186  19.1970837  15.0328457  53.8133955
  19.9061787  15.0698817  53.1714916  18.9509654  14.1083789  53.8453341
  33.6214280  33.2240772  48.0463886  34.4111347  33.3990693  48.5582209
  33.9403534  32.7915573  47.2542763  69.1712570   0.0075885  55.0142002
  68.3917046   0.5385560  55.1772976  69.8090649   0.3142479  55.6587124
  63.6398077  12.7599812  34.1924810  64.0263700  13.2502031  33.4668875
  64.3763733  12.2898304  34.5832038  70.2898667  71.8618031  63.1287861
  70.8807955  71.6132348  63.8395929  69.9454985  72.7155252  63.3910847
  49.7790241  17.6684225  24.3531489  49.2486429  17.4428606  23.5889196
  50.6068039  17.2082174  24.2144823  39.3683982  19.7606766  58.1294203
  38.4878850  20.0427723  58.3770990  39.8537540  20.5756497  58.0010319
   1.8997458  49.0440272  40.4657698   1.9995407  48.2983135  39.8740101
   2.7882103  49.2286610  40.7703590  50.7714745  30.1065280   3.0035475
  51.0147926  30.4532154   3.8619402  51.4172622  29.4216348   2.8300265
  49.0169907   1.0445692  43.6241388  48.4015703   1.6808558  43.9883184
  49.7733784   1.5677243  43.3587742  36.5708546  65.4000263  27.6502609
  36.8399147  66.2907832  27.8747439  37.0657543  65.1929425  26.8575287
  27.3686222  65.8616399  62.9575777  26.4652971  65.6204002  63.1626081
  27.7383760  66.1396473  63.7955666  44.6293306  10.5298007  49.7729254
  43.9133358   9.9528271  49.5070648  44.2500114  11.0833430  50.4555225
  75.7854744  38.7519875  43.9298323  76.5666720  39.0383890  43.4566096
  75.0991341  38.7222511  43.2632902  10.6336057  10.5978703  34.9874592
  10.3616238  10.2663946  35.8432531  10.3709447   9.9141127  34.3712473
  65.9500691  46.6988708   9.9393586  66.8497177  46.5045764  10.2022484
  65.5575749  47.1062400  10.7115153  61.2795720  48.9606189  29.3434262
  61.4001313  48.0300497  29.1543770  61.0999290  48.9928173  30.2830672
  45.0267792   7.7104497  64.7579145  44.8856258   8.3669436  65.4400635
  44.9583054   8.1989014  63.9375782  29.8000097  10.7260394  64.3472385
  30.4013538  11.3437402  63.9312315  29.9145937   9.9125183  63.8560295
  13.0345526  13.6566915  26.4114264  12.8455248  14.3439283  27.0503405
  13.3830824  14.1244902  25.6525305  34.3519165  40.7511340   4.0911272
  33.6259200  40.8324112   4.7096375  33.9912029  40.2442594   3.3636692
  48.9969015  11.8289578  30.4950476  49.3353033  11.4050543  29.7063637
  49.3130589  11.2829375  31.2148643  26.8305210  73.4100828  40.4495478
  27.2627071  74.0317424  39.8638940  26.2344364  73.9473042  40.9713793
  79.0427109  40.7141493   5.4089955  78.6298176  39.8764284   5.1993016
  79.9379297  40.4842718   5.6579378  29.9423269  75.0781832  27.7700710
  29.0205721  75.2235905  27.5568771  30.4194406  75.4123205  27.0105028
  49.6934795  39.3976903  55.3297710  49.7396183  38.9684033  54.4754791
  50.5666685  39.7678256  55.4592991   7.1920184  73.4383092  54.4760132
   6.5522412  74.1255393  54.6621084   8.0297378  73.8096554  54.7527122
  74.2014885  13.9702606  27.1161413  74.6780777  13.2034123  26.7982769
  73.2938671  13.8130295  26.8558788  59.6662521   6.8097860  27.3315859
  60.0538635   6.1054897  26.8120122  59.2699766   7.3940647  26.6851997
  75.0200272   9.2008775  52.3156929  75.2197075   8.3528674  52.7122259
  74.1545391   9.0842021  51.9238377  15.9674084  11.1815512  41.0303259
  16.4471185  10.3863835  40.7983398  16.3989174  11.8755817  40.5319738
  39.9639797  25.6900597  28.5428333  39.3120527  25.2178264  29.0607309
  40.8021927  25.4545093  28.9405155  17.6792896  12.9608536  64.9959183
  17.2651291  13.8230944  65.0311708  18.3533025  13.0462813  64.3216515
  72.2662354   2.5705993  37.9371667  72.1178579   3.5152563  37.8942823
  71.4702415   2.2210655  38.3377385  42.7395821  23.2304025  36.8907404
  42.7989960  23.2883096  37.8443384  41.8016577  23.1600308  36.7130351
  29.4511104  12.1223032  57.6774549  30.0221896  12.1939540  58.4422827
  29.3398666  11.1803055  57.5490093  33.7036824  17.6370490  35.5509090
  33.1505108  17.1653759  36.1736107  34.5963836  17.4867606  35.8619237
  16.3861465  10.7497859  63.9240026  16.8925536  11.4297915  64.3682766
  15.6182528  10.6207800  64.4807148  67.9059597  72.2195424   5.3428963
  68.4547516  71.6260637   4.8302153  68.2223078  72.1224727   6.2410763
  51.1486435  22.4378490  39.2394042  51.7129850  22.0089412  38.5961437
  51.7549515  22.8882527  39.8274183  77.0360752  36.5786427  17.2568777
  76.8266245  36.3016485  18.1488684  77.6441332  37.3092672  17.3695257
  48.5897207   8.1433630  33.1850171  48.4957552   8.2363737  32.2369909
  49.2302227   7.4404979  33.2944036  43.7188872  19.3880488   1.1219624
  44.3214365  18.8708891   1.6564825  43.3215233  18.7527706   0.5263499
  65.0814247  28.7685990  54.3150425  65.6494808  29.4684100  54.6372318
  65.3554010  27.9931355  54.8047590   7.9189482  74.7618427  19.4619158
   8.7694492  74.4434871  19.7644499   7.7353182  75.5193676  20.0174979
  29.8819927  74.3280017  53.2154751  29.1935066  74.3724774  53.8789797
  30.5571798  74.9290545  53.5302639  42.4023918  67.3789339  51.7263794
  41.9565348  66.5758651  51.4570713  42.6047615  67.8274029  50.9053087
  34.1650391  31.9068003  18.9490080  34.8537779  32.0730305  18.3053946
  33.8606834  32.7776384  19.2044377  57.2703505  26.0371232  48.2825041
  57.5425625  25.9402609  47.3699570  57.4387026  26.9570994  48.4863043
  39.2567110   5.8937514  42.1023798  39.1118217   6.6900766  41.5913963
  40.1355982   5.6067413  41.8545580  79.7517633  13.1928051   3.9556864
  79.2970324  13.2162368   4.7976497  79.0638447  13.3445656   3.3076361
  71.2166405  13.5030484  28.1224155  71.0472679  13.1475246  27.2499776
  70.6939650  14.3040562  28.1602526   9.5896462  72.0315214  28.1961966
   8.8625149  72.3298656  28.7425518   9.4356874  71.0934811  28.0839062
  29.7774186   6.7592301   7.7789858  30.0078964   6.3312759   8.6035899
  30.5770468   7.2132363   7.5130823  17.3321950  23.9912701  61.4780903
  18.0748463  24.5949268  61.4954042  16.6809762  24.4283915  60.9293890
  14.8175469  39.7885460   8.7049988  14.6909800  39.6237357   9.6393708
  14.4116440  40.6423919   8.5552624  54.8267269  10.7033443  38.5828233
  55.3117418  10.5757415  37.7675271  54.9986839  11.6136014  38.8238525
  52.6511499  19.8449160  14.6891812  53.1893273  20.5048539  15.1263121
  51.7501517  20.1076056  14.8774031  16.8766441   6.7880358   9.8301771
  16.2267485   6.0852851   9.8330715  17.7196207   6.3347449   9.8423031
  47.8030920  10.5111361  37.7246761  48.2224560  10.4163778  36.8694663
  46.8926811  10.2565026  37.5745296   5.6501488  42.7611946  48.0246067
   4.7218732  42.8218912  48.2501078   6.1032800  43.1658291  48.7643194
  28.2713747   6.1799669  40.1369619  28.8266468   6.8033719  39.6686983
  28.0445933   5.5211854  39.4806027  75.2014146  74.6847090  41.5479660
  75.6099496  75.3646363  41.0122108  74.2987571  74.9813209  41.6640043
  44.3651438   0.9181147  30.1137447  44.9403334   0.9835191  29.3514395
  44.9447107   1.0534897  30.8634138  36.9890070   0.1376761  52.1582413
  37.1677613   0.5191511  53.0177498  37.6615238   0.5086518  51.5869904
  15.2572874  70.0263064  29.2367864  14.6440843  70.1308112  28.5092592
  15.5077938  69.1029130  29.2081261  34.6959308  59.4647109  41.9711637
  33.8946489  59.9784922  41.8701220  34.5789865  58.9989482  42.7991867
  16.7708445  30.1610970  39.4629502  16.7980075  29.4890428  38.7818956
  17.3411024  29.8247266  40.1542473  68.8994531  17.3680153  24.1884306
  68.3916037  17.8863945  24.8126105  69.0916245  17.9748287  23.4735373
  73.5360380  39.1465318   7.6150730  73.9069410  38.6722239   8.3591774
  74.2097374  39.0932414   6.9371918  69.3864059   3.0622301  46.4844227
  69.0432596   2.5808972  45.7315636  70.3363562   2.9652393  46.4179754
   9.5747032  53.8486184  22.4716357  10.1237049  54.4488026  21.9670466
   8.9672747  54.4186618  22.9431322  52.6708364   2.9639938  24.9934673
  53.1085920   3.5639194  24.3895674  52.2772884   2.2996169  24.4278216
  21.5896593   1.7093911   3.3900669  22.2618614   1.6414180   2.7120140
  20.7794129   1.8755450   2.9082754  60.0175663  73.0209007   8.1336191
  60.0866266  72.7927961   9.0606716  60.4861494  73.8519348   8.0558852
  67.3055172  23.5346460  56.6690302  66.7747211  23.5565400  55.8727884
  67.6292133  22.6350880  56.7164421  63.4592199   5.6201798  39.4532251
  63.4078979   5.8977169  40.3678656  63.1098366   4.7290221  39.4533753
   1.0049572  48.3280267   8.6048821   0.4099693  48.4950234   7.8739050
   1.8715468  48.2772555   8.2015494  60.3372093  47.6637365  -0.2467319
  60.2678748  46.8254228   0.2100542  60.9567591  48.1714930   0.2772692
  31.8130592  74.1747980  50.5215454  31.3251451  74.1524628  51.3447523
  32.7203945  74.3283231  50.7849932  49.2591047   6.7510134  62.3595142
  48.8711786   6.9815707  63.2036638  50.0074863   6.1976379  62.5829792
  29.9125242  32.0707870  41.6324949  29.1133714  31.5888810  41.4195299
  30.3858447  32.1283913  40.8025074  71.6665550  54.2834760  19.8773840
  71.7616554  54.5564975  20.7898787  71.3558050  53.3795931  19.9289683
  45.8277845   8.6538535  53.1879139  44.8792076   8.7289870  53.0840588
  46.1830521   8.9124054  52.3375225  31.7870688  14.2658007  39.5026278
  30.9718299  14.6417546  39.8347020  31.5303087  13.8044226  38.7042332
  67.1563911   4.0475479  55.3563404  67.4960089   4.5597613  54.6224928
  66.2089300   4.1794357  55.3223324  62.6268765  67.1099104  13.5048083
  62.2668120  66.3713707  13.0137423  63.2078859  67.5497498  12.8841618
  66.2658548   8.3011389  35.7704043  65.3807688   7.9825091  35.5934048
  66.4555454   8.8965368  35.0453162  64.9835157  15.6079459  51.6061640
  64.7585869  16.5327609  51.7079258  65.8860588  15.5451655  51.9187403
  34.7735405   2.4154286  53.2534075  34.1923499   1.8376213  53.7479639
  34.5461416   2.2567739  52.3372459  36.4451718   1.2592494  45.9530449
  37.3969483   1.1743201  46.0090876  36.2563467   2.1074429  46.3544750
  58.6741611  61.3356318  13.2914046  57.8036162  61.2064614  13.6678341
  59.2526718  60.8034863  13.8376454  66.9298550  29.9331685  10.4282025
  66.4971872  29.7038229  11.2506560  66.4833137  30.7278599  10.1361445
  54.1151714  17.5986075  65.1966143  54.6556759  18.3829284  65.2911282
  54.6247101  17.0240104  64.6252680  49.6920729  16.8221354  62.2607613
  48.9250278  16.2498522  62.2415018  49.9847031  16.7998695  63.1718588
  73.5221910  12.4627507  29.7955537  72.9805660  12.9811656  29.2004752
  74.4149399  12.7680373  29.6342134  25.8957151  71.0050960  41.4923954
  25.8805803  70.3636225  40.7821035  26.1882643  71.8160804  41.0765219
  60.0517607  19.4763601  48.2065201  59.8197269  19.8745453  47.3675680
  60.4025173  18.6164546  47.9746485   6.3428257  71.7557179  61.3907146
   5.4444168  71.4476337  61.5097618   6.3141201  72.6796289  61.6393042
  31.2156187   6.0529080   4.9310807  31.8698584   6.1282292   5.6257227
  30.4281603   5.7403937   5.3765801  59.8732519  28.4630966  52.3840666
  60.2557087  29.3302178  52.5184536  59.7444105  28.4022236  51.4375353
  41.1345329  56.7096640   3.3163813  41.3159409  57.6488985   3.3504704
  40.3044834  56.6430237   2.8443602  14.2170992  53.3777298  28.7664202
  14.0691176  53.7943961  27.9174593  15.0618448  53.7209620  29.0576723
   1.7697977   2.4253334  34.5562291   2.4546082   1.9018459  34.9724340
   1.0558032   1.8067151  34.4021010  72.1527004  42.2468424  53.5082626
  72.1789551  42.2307873  52.5515604  72.8376675  42.8677654  53.7562752
  28.0563831  16.6228259  63.3988380  28.6166024  15.8466911  63.4001446
  28.5844922  17.2986889  62.9739332  67.1989679   1.1571128  25.7581162
  67.6326275   0.5301909  25.1792026  67.3578358   0.8189218  26.6393781
  74.3282076  65.1563658  29.4694880  74.0653177  64.5951213  28.7400130
  75.1396271  65.5691375  29.1737727  41.3739729  22.6447558  53.9341593
  41.3877058  23.1060576  54.7727537  41.8470430  23.2224536  53.3352423
  75.7509565  21.7320275  61.9108868  74.9405861  22.2413921  61.9019222
  76.0677004  21.8017054  62.8114700  69.0227648  70.4078664   3.3923415
  68.2956597  70.8637394   2.9683951  68.6465975  69.5781364   3.6860684
  66.4451047  71.3091101  44.6428374  66.1728784  71.8494047  43.9010790
  65.9324881  71.6394200  45.3806475  56.4443684  42.2915649  52.2220659
  56.6818523  43.1808043  52.4849033  55.5700731  42.3794460  51.8424416
  11.9429385   4.4420471  11.2883929  11.0605489   4.4726601  11.6580990
  11.9270765   3.6931696  10.6924322  12.9608101  43.1911373  52.2919989
  12.1447128  43.4557390  52.7164984  13.1957764  43.9363575  51.7391205
   3.1908598  17.1263231   6.6961315   3.3367291  16.1927213   6.5433482
   2.3187771  17.1714820   7.0881346  66.1811829  20.3130841  60.9658861
  66.1482906  19.4311726  61.3365412  65.9672165  20.1922107  60.0407743
  21.7540121  24.2803288  41.4855051  21.5338349  24.0355897  40.5866957
  22.3144484  25.0508332  41.3934851  67.7870560  26.6354656  39.6730924
  68.1754589  26.8068767  38.8151932  67.3487902  25.7903934  39.5730615
  44.0801750   2.9263821  12.8329686  44.1979634   2.6024237  11.9399908
  44.1498696   3.8777485  12.7537564  42.0860624  16.3199019  51.2355900
  42.5777626  15.7399333  50.6541252  41.4006662  15.7633793  51.6053772
  77.8658757  68.2430529  44.6575069  78.4812436  67.7972441  45.2395773
  77.2464213  67.5615667  44.3965769  64.7232886  71.8691577  17.6695517
  64.0553661  71.5702500  17.0524958  64.7299143  71.2028112  18.3567026
  71.6442585  66.4806986  60.9021235  71.4245796  67.3632002  60.6035137
  72.4849081  66.5812778  61.3486910  15.9518761  25.7854176  46.6992092
  15.6410831  26.1442685  45.8680248  15.2301353  25.9356213  47.3097515
  30.2471256  15.0467968  49.3836212  30.1771045  15.4877138  50.2303314
  30.7438493  14.2498314  49.5689440  69.5345116  35.7021451  47.4988079
  68.9360857  34.9751067  47.3269606  70.3933001  35.3734469  47.2329521
  61.7511415   8.6647636  39.0018320  62.7065849   8.6545062  38.9447761
  61.4700937   9.1504651  38.2263708  71.0844421  12.3263407  33.7828636
  71.3323593  12.7422774  32.9571748  70.2313137  12.7049744  33.9951015
  42.9896883  60.1109408  42.1959972  43.8233332  59.6440803  42.1385050
  42.8348163  60.4347407  41.3086414  61.2737608  12.8345478  43.7784719
  62.1295881  12.5054395  43.5037279  61.4281845  13.2085621  44.6459389
  41.4530987   3.4508872  63.4042501  41.8917793   3.9406329  62.7085876
  40.7768578   2.9463544  62.9521799  69.9440050  25.6858540  37.2543740
  70.6946564  26.1815357  37.5815654  69.2242336  26.3168287  37.2490978
  59.1938925  49.3124866  57.9436255  59.3537331  48.6487865  57.2726679
  59.6310806  50.0972748  57.6131678  26.8081570  24.1228151  41.0372400
  26.7193818  23.4183145  41.6791344  26.1577034  23.9181423  40.3654861
  59.0266275  18.9681160  39.0288186  58.8405514  19.2107272  38.1217647
  59.4566298  18.1153023  38.9652538  10.5099022  36.1607265  43.9121580
  10.1320910  36.9775867  44.2380905  10.2067184  36.1013246  43.0061865
   2.1915001  17.2625422  28.1904578   1.4392609  17.0192289  28.7300515
   2.3056644  18.1998646  28.3473897  65.3515434  11.0111952  64.4291401
  64.7061253  11.5205824  64.9192381  66.1891270  11.2288380  64.8381805
  48.1556463  34.0297651  60.1642942  47.7472353  33.5733294  59.4287014
  49.0877247  33.8271713  60.0841761  30.0301443   0.1784601   2.2428492
  29.3914257  -0.2234015   2.8317288  29.4997345   0.6220260   1.5809277
  49.0361738  28.1008697  26.3889837  49.3327093  28.9924049  26.2060523
  49.7989416  27.6689053  26.7734647  32.9374194  19.9584115  45.4044580
  33.6888552  19.8624158  45.9895754  32.8481913  20.9035802  45.2822971
   8.5835499  10.5776918  25.6986141   8.2969994   9.8963982  25.0903726
   8.1539101  10.3570950  26.5250397  68.2971811   3.6216944  42.5003481
  68.8263512   2.8944802  42.8280210  68.3936691   3.5785019  41.5490055
  68.3865118  25.6299496  30.4276776  67.8141356  25.3161764  31.1277938
  69.1597033  25.9643364  30.8822012  79.6539354  17.9103971  47.5043726
  79.4503927  18.8125288  47.7512741  78.8195038  17.5502014  47.2040081
  68.7557074  71.4930786   8.0427101  67.9497286  71.6047873   8.5468415
  68.9971825  70.5766358   8.1770733  31.7973804   1.9288741  58.8674212
  31.9750547   1.0068666  58.6815023  31.1427450   1.9106068  59.5655251
   7.1740765  22.4833965  28.4881830   7.7551884  22.1526051  27.8032637
   6.4856285  21.8220592  28.5582042   2.9234165  32.6229143  64.5954609
   3.6372227  32.3693299  64.0103054   2.2738689  33.0267048  64.0199041
  51.7551947  41.2782049  55.7113981  52.5495195  41.5820599  55.2721357
  52.0409441  41.0586500  56.5981722  63.1561089  43.3605766  55.1570511
  63.0513954  43.3077002  54.2070675  63.9853239  43.8223124  55.2812815
  39.9734306  13.0371165  42.4815989  39.9261642  13.6506653  43.2147789
  40.0480986  12.1765018  42.8939056  47.5774431  23.3552194  20.3015304
  46.9837093  23.6132717  19.5964634  47.7790833  24.1730428  20.7562137
   5.4111832   2.1700378  46.9108534   6.3255095   2.4463853  46.9730759
   5.0176615   2.7823964  46.2892485  48.5690308   8.4839529  43.8351154
  48.1435585   9.2560685  43.4622288  49.0838051   8.1222928  43.1137037
  31.3974214  21.8117738  29.9130154  32.2278047  21.5473771  30.3089833
  30.8118606  21.9537306  30.6567883  10.2199215  18.1573212  45.0538778
   9.8597569  19.0441763  45.0530624  10.1396412  17.8670406  45.9624577
   2.4552373  68.5063081  54.7485590   3.2913283  68.5985010  55.2053833
   2.4808959  67.6242202  54.3777561  61.3003734  66.6454618  15.8864152
  60.6362251  66.3174247  15.2801716  62.0775131  66.7753880  15.3429091
  55.1451874   5.8519733  64.7121525  54.6059370   6.1385560  65.4492521
  54.7046137   6.2078035  63.9404583   5.4438762  74.5270610  58.6918783
   5.4986814  74.6435215  57.7433729   5.9769014  73.7520363  58.8692236
  56.6424847  10.0983453  20.4618478  57.1658421   9.6758342  19.7808111
  56.3624191  10.9255683  20.0700593   8.5217384  64.2814051  52.5797415
   8.0182246  63.8543128  51.8867064   9.4069175  63.9299416  52.4840307
  65.5268335  17.2325289  61.7910147  64.8390150  16.9322145  61.1969233
  66.3416624  16.9465506  61.3780975  62.4604750   2.0237216  48.1537008
  63.3466339   2.2680542  48.4206390  62.4702644   2.0928590  47.1990538
  67.3982430  31.2531924  22.7915955  66.7352915  31.8239689  23.1801128
  67.4621916  30.5140829  23.3964610  61.8648624  16.6256273  36.3120151
  61.1208391  16.9626975  36.8110585  61.5971088  16.7093909  35.3968501
  37.4242452  66.7155301  44.9645996  38.2794145  67.1417706  45.0215006
  37.2457556  66.6610913  44.0257692  54.4651004  53.1433775  13.8598564
  53.6036750  52.8610052  14.1671732  55.0016495  52.3512675  13.8900116
  24.7254887  34.7755174  14.6377781  24.6263781  35.2291055  13.8007191
  25.6142416  34.9889036  14.9220637  46.5686560  15.7946420  32.4619532
  47.4336338  15.4134834  32.6128268  46.4246273  16.3674402  33.2152057
  73.7042761  44.7291565  59.5681763  74.6358633  44.5873260  59.7362947
  73.6500216  44.8685217  58.6227322  43.4445858  26.5655756  62.2774410
  43.1503487  27.4589014  62.0996094  44.3925333  26.6426778  62.3854923
  30.2705673  64.7984385  44.5340252  30.2109579  63.9488625  44.0971041
  29.3628458  65.0322627  44.7279310  42.8812170   2.0451513  65.1399279
  42.3391438   2.3812431  64.4261789  43.4787703   1.4285091  64.7169399
  71.9350529  27.4969101  37.6184416  72.6282406  27.9239178  38.1218195
  71.5311861  28.2057858  37.1178198  71.7927599  13.6792958  31.5501428
  72.4093533  14.0821302  32.1615100  72.3284483  13.0813253  31.0288906
  63.8032242  32.2600372  13.4974364  64.5694252  32.7341910  13.8204602
  63.3833095  31.9175293  14.2864827  51.9611216  11.0092187  58.1843138
  52.0667315  11.9315183  57.9509878  52.6326799  10.8516324  58.8479471
  36.0797361  75.1197340  57.1833611  35.1458315  74.9517350  57.0575333
  36.4646629  74.2520883  57.3068714  79.3359861  63.5280870  42.3574352
  79.9310956  63.7012707  43.0868769  79.2928872  62.5732981  42.3049879
  64.0647984   1.7401238  31.5819287  63.2737064   1.9315994  31.0781956
  64.0950251   2.4250367  32.2499204  36.1350492  53.2362460  36.1440635
  35.9054140  52.9877280  35.2486634  36.0657362  54.1908907  36.1529207
  34.9200236   8.0104246   1.8374852  34.8405539   7.1944752   1.3433770
  34.0427100   8.1646672   2.1878651  64.9720240  35.4064584  25.4703546
  64.6579981  35.6882071  26.3295603  64.8452568  36.1697841  24.9068880
  77.9771423  22.4277759   5.1650900  78.0409575  22.8805709   6.0060042
  78.8765907  22.1702290   4.9628738  59.1183138  39.8300099  44.2141485
  59.8511648  39.9909782  43.6197996  58.9828300  38.8831973  44.1764021
  26.9145527  60.6973900   4.9690941  26.2858954  60.5555977   4.2613390
  27.3724404  59.8610963   5.0538519  71.7303181  24.4060040  60.8362246
  72.2975731  24.7122788  60.1286554  71.0040379  25.0293899  60.8478117
  12.3166040  69.8032658  51.5077162  11.4163283  69.5936721  51.7563200
  12.2273568  70.4484283  50.8062649  34.0669394  54.8314476  65.0633812
  34.9845839  54.6889782  64.8312998  33.6680532  55.1742220  64.2636108
  51.4858055   5.1230317  63.5982132  51.4847898   5.1335287  64.5553589
  52.1843815   4.5111787  63.3661366  53.9516612  37.6411478   3.9269522
  54.8499437  37.8673034   4.1681412  53.9254352  37.7458925   2.9758623
  32.6953701  73.5985445  30.9181309  31.7806820  73.8646113  30.8243990
  32.8090052  72.9003607  30.2732611  45.0276409   1.6723886  17.3352125
  44.1668450   1.8564549  17.7112273  44.8421036   1.3862529  16.4408186
  39.9787951  36.3689590  47.2933674  39.4442153  37.0505619  46.8860912
  40.7950783  36.8116212  47.5256681  60.0600086  21.1590567   6.5825299
  60.7861649  20.6285277   6.9103459  59.3509899  20.5321684   6.4392069
  55.6374550  19.4160807  46.8903065  56.4559984  19.6736109  46.4661646
  55.8419943  19.4157803  47.8253937  58.2052374  43.9266014  56.7095661
  57.9533768  44.4841003  55.9733629  59.0608025  44.2595720  56.9804287
  47.6453924   9.3418586  64.6358395  47.4141741   8.4598291  64.3446445
  47.5367451   9.3164062  65.5865145  21.4029789   5.2508885  44.7156715
  21.2439013   6.0631573  45.1964474  21.9741488   5.5087543  43.9921379
  72.6459980  35.9972644  51.3174248  72.6471901  36.7035675  50.6713820
  73.3224916  35.3926110  51.0124874  40.1045132   3.8291937  50.2997828
  40.4263067   3.8945279  51.1989021  40.8058500   4.2034441  49.7665930
  39.1263012  63.6432575  61.1841869  39.2134384  64.1596209  61.9854403
  38.3202366  63.1422483  61.3085938  25.2466049  48.2307305   8.2628182
  25.1579180  47.7820613   7.4219445  24.5714560  48.9090230   8.2447508
  61.4412594  16.7940629  47.5027657  62.3244047  16.4974797  47.7225876
  61.0494614  16.0552430  47.0370722  34.7465662  74.5135700  47.3783970
  34.6659902  75.0943342  48.1350040  34.2014221  73.7578689  47.5973988
  10.1241249  35.3490901  62.3607683   9.6725410  36.0539675  61.8966103
   9.6330589  34.5595312  62.1334362  14.5594096  19.3803489  56.5141582
  13.8175499  19.9627090  56.3506508  15.0893533  19.4385552  55.7191706
  57.4264288   0.6752738  35.5161309  56.8359995   0.0680938  35.0700831
  57.7915955   1.2136133  34.8139381  16.8693247  47.8094639   3.0336455
  16.2458649  47.0959570   3.1694296  17.2273531  47.9835917   3.9041212
  19.2360773  52.0222534   3.1859234  19.0386715  51.5951969   2.3523262
  20.1692619  52.2289254   3.1340817  44.7855091  38.2286215  64.6671343
  44.1530275  38.9312649  64.8171043  44.4493198  37.7631855  63.9012527
  79.5113290  18.5473037  55.9239626  79.1051246  19.3081260  55.5087805
  79.4851627  18.7431061  56.8605566  66.3015290  30.0700219   2.9998711
  67.1829601  30.3570129   2.7612379  66.3516518  29.8992844   3.9403895
  79.5494843  13.1685817  62.8906727  79.3459654  12.2480679  62.7249384
  79.0663481  13.3806634  63.6893225  58.2537590  11.2360134   1.6269520
  57.6023041  11.8647328   1.9376734  57.7491890  10.4477587   1.4262131
  21.2140107  23.0595207  62.6395273  20.5153990  22.4129772  62.5387621
  21.7202425  22.7500510  63.3906555  46.6486740  24.0017152  58.3677101
  47.4797392  24.4173002  58.1378317  46.7270374  23.8103080  59.3022966
  49.1284977  13.2578697   2.1227530  48.7210404  12.7275171   2.8075436
  48.7836682  12.8992214   1.3050154  55.4822493  19.7321153  59.7666740
  56.0868025  19.2035532  59.2457438  54.6233749  19.5667756  59.3777943
  73.0222031  69.5159067   4.5266846  72.8967520  68.9137568   3.7932614
  73.9467808  69.4238414   4.7567156  68.6722660  13.8620579  38.5068297
  69.1290903  13.4498119  39.2400408  67.9460335  13.2692897  38.3133411
  31.7422819  32.1235704  43.4455729  31.5521193  32.7732754  44.1222954
  30.9938526  32.1712065  42.8507471  72.0774794   5.9074360  49.7802448
  72.2831774   6.4771724  49.0390825  71.4140368   6.3882852  50.2750778
  70.2344322  15.9747171  35.2528143  70.5965042  15.5100274  36.0072660
  71.0009670  16.3077724  34.7862005  68.5019541   8.5876971  30.8185172
  68.7548494   8.2096428  29.9762869  68.2168293   7.8383839  31.3414574
  27.6420059   2.1465899  30.8371949  27.7742138   3.0251671  30.4810214
  28.0548992   2.1734358  31.7003465  55.5090666  48.9306211  17.2666168
  54.9040318  48.3487368  17.7265882  55.5625677  48.5695219  16.3817573
  57.4450541  23.9766073  39.8059678  57.4238348  24.8395848  40.2195549
  58.3713913  23.7355447  39.8021603  67.6486588  32.4056149  61.3358498
  67.2387218  32.2443962  60.4860306  67.9678631  31.5472960  61.6144753
  65.7031345  13.5516262  43.4505701  66.0078621  13.6261022  44.3549109
  65.7923031  14.4355345  43.0942202   1.8834919   9.7515821  35.1379204
   1.8823666   8.8839895  35.5422902   2.6552719   9.7509384  34.5717239
  29.4090533  29.8147345  58.8564491  28.7207508  30.4701161  58.9702272
  30.2051187  30.3261280  58.7115669  61.9099621  59.3370365  38.6025429
  62.0878319  60.2695810  38.4802532  62.7557567  58.9114450  38.4620523
  33.4622288  23.8884211  43.5197115  33.3530903  23.7593269  44.4618654
  33.3853316  24.8346186  43.3971167  38.7637377  15.9308255  54.3702412
  38.4420729  15.1195896  53.9769745  38.4380054  15.9064174  55.2699852
  64.4660854  35.0585985  16.1115146  65.0819492  35.6233406  16.5784276
  64.9303246  34.8062634  15.3133667  47.7267218  21.1703634  37.3883104
  46.9460678  20.8645511  36.9264746  47.6003075  20.8790565  38.2912993
  62.0080662  19.1309285  40.0298071  61.8796968  18.4571064  39.3621874
  61.3607836  19.8037255  39.8186231  55.1592064   8.4580672  42.6460028
  55.3298426   7.8236228  41.9498730  55.5766773   9.2643243  42.3428583
  39.0759659   5.2518028  63.8804388  39.7109890   4.5606589  64.0683126
  38.3599877   4.8033503  63.4304428  26.1127619  69.6321838  24.6173167
  26.3079599  68.7897049  25.0276327  25.2269701  69.8428982  24.9126124
  31.7634511  27.6715899  25.2382445  32.3883462  28.2183480  24.7620177
  31.5352392  26.9759846  24.6215725   2.8487724  12.4329042  62.3280096
   3.1213421  12.9296577  61.5565348   2.0353073  12.8525710  62.6079941
  64.8879051  13.6985719  32.0868921  65.0392485  12.7798116  31.8650627
  64.7968245  14.1373229  31.2410593  51.1049986  20.0591660  56.8955946
  50.4524326  20.2938676  57.5553703  51.0928297  20.7890463  56.2764359
  55.8326725  51.3139819  15.6303275  55.9395222  50.7266473  16.3785625
  56.6383270  51.2067412  15.1247036  50.6291103   8.6030614  58.2542658
  50.7320976   9.5520550  58.3252335  51.1153221   8.2528889  59.0007305
  24.7663212  34.3113089  43.8510132  25.3129578  33.6385798  44.2570400
  25.2957606  34.6452355  43.1268454  38.8234635  60.5000867  11.0806397
  39.4760438  60.7443465  10.4243592  38.0399963  60.2896156  10.5725935
  43.8538790  26.5224433  30.4553246  43.1325674  25.9604502  30.1722908
  44.6088552  26.2136388  29.9544454  43.4517738  65.6697668  11.6658524
  42.5168213  65.8732714  11.6919831  43.7765380  65.9243597  12.5295332
  26.2355781   5.5471271  31.6949296  26.4119458   4.9359876  32.4102139
  25.2829552   5.6404382  31.6890264  28.1941748  25.3753281  38.4498525
  27.8959346  26.2768817  38.3294845  27.9234862  25.1503325  39.3399858
  43.7095404   8.2961136   5.6529582  43.1465864   8.8379645   5.1000476
  44.3937540   8.8930202   5.9559250  21.2461990  11.1323774  51.2046432
  21.3643497  10.7283437  50.3449726  20.3258747  11.3949585  51.2214375
  75.5660673  45.3172590  23.3550528  74.8704287  45.9516426  23.5279063
  75.8929630  45.5510463  22.4863032   3.5734794  10.4669595   8.9025503
   2.9735732  11.0074151   9.4166052   4.4180360  10.9116626   8.9746273
  13.9883083  10.9549761  42.9163647  14.2840809  10.3195930  43.5683155
  14.6559567  10.9235454  42.2311783  63.3395433  30.3712606  58.0899096
  63.7050438  30.1745009  58.9524221  63.4480095  29.5602846  57.5931358
  74.0422964   1.4958392  39.7188306  74.5392847   2.2303134  40.0790834
  73.5456038   1.8753509  38.9939165  57.4761486  25.5631948  53.0628681
  57.1592760  26.4093876  52.7469826  56.7667866  25.2323008  53.6138153
  54.5657206  17.0966709  55.9286499  53.6575508  17.3858249  55.8400583
  54.5089531  16.1428261  55.9851360  46.0037422  33.3767390  44.9155855
  46.0215330  32.4667525  45.2119684  46.8514013  33.7322354  45.1826525
  78.5161638  58.2071352  56.4375257  79.1322041  57.5066090  56.2230921
  79.0712166  58.9573860  56.6503143  19.2357201  11.4568663  42.0319271
  20.0682682  11.8181872  42.3361254  18.6156506  12.1813476  42.1148014
  22.8418306  72.3611086  39.5497942  23.4269480  73.1155940  39.6178102
  22.5564674  72.1975156  40.4487038   4.0457430  56.4071967   2.9938057
   4.9915590  56.5121938   3.0969504   3.9512243  55.7751860   2.2811631
  78.1255150  16.0492313  57.3856497  77.3694372  16.1343610  56.8048525
  78.4543514  16.9428563  57.4832916   6.1427679  62.8285064   1.9428137
   6.1475697  63.7686433   2.1226719   5.2151003  62.6020230   1.8767432
  68.6027619  67.7188982   3.8371256  68.9723297  66.8407501   3.7448815
  67.6879545  67.6227965   3.5723093  23.8649740  58.2422771   1.8534449
  24.4252577  58.2865013   1.0786179  24.1536560  58.9732899   2.3998049
  20.6105828  17.3366046  17.3067069  20.1789474  17.4248242  16.4569187
  20.5079007  18.1949329  17.7177548   7.0383778  59.4402088   0.2620486
   7.2939577  59.5402207   1.1790589   7.4542418  58.6237325  -0.0148222
  59.2165899  15.6583416  41.5292454  58.4461737  15.2751327  41.1099100
  58.9376116  15.8341455  42.4278545  43.5541964  14.2447364  53.4123802
  43.4506464  14.8738825  54.1263008  44.2646742  14.6018887  52.8795624
  12.5316515  67.4230375   7.8486803  12.2020092  68.2972278   8.0569104
  11.7481604  66.9160499   7.6357725   5.7730526  16.0954833  49.2060232
   4.8988384  16.4468455  49.0371275   6.3619179  16.8343449  49.0525341
  27.5622502  64.9313559  44.9711302  26.9215241  64.2435540  45.1517466
  27.0506420  65.7403530  44.9676207  50.6002998  18.0743229  60.2254629
  50.3694296  17.8054142  61.1146307  49.9553204  17.6385701  59.6683693
  74.9794146  54.3390848  30.6705645  74.7137400  54.6948387  31.5185526
  75.0253626  53.3934082  30.8113364  11.2677807  15.7676756  43.5905981
  10.7609409  16.5125322  43.9139128  10.9854645  15.6621194  42.6820946
  24.5551001  16.1553087   5.4165057  23.7530981  16.0242882   5.9223393
  25.2477824  16.2075606   6.0750607  42.4294745   4.0677443  14.7446850
  42.8738533   4.2185679  15.5789641  43.0617987   3.5742750  14.2222956
  67.3998976  74.1749859  65.1420784  67.2607279  73.9916277  64.2129707
  67.2489786  73.3357906  65.5770540   9.1918034  33.1376004  13.8596594
   8.2974667  33.1847477  13.5217702   9.7429127  33.3674192  13.1115353
   4.9007744  24.9689627  48.5240984   4.6883434  25.6583905  49.1532183
   5.7866711  25.1790166  48.2286310  75.3722239  20.5989242  29.6044970
  75.3640842  21.5267563  29.8396492  75.7920504  20.5734348  28.7446570
  62.5160524  27.0911683   9.8744467  62.4977442  26.5616895   9.0772322
  62.5019284  27.9956891   9.5615986   6.9667759  41.9075941  25.4905680
   6.3093987  41.7569251  24.8113135   6.4596977  42.1533956  26.2643126
  79.1160536  55.6249905  40.2077723  78.6977243  55.3035545  41.0064602
  79.2618465  56.5566540  40.3720379  43.2822227  17.1373820  59.3622589
  42.6909447  17.8081095  59.7039366  43.5465622  17.4662769  58.5030842
   9.1179890  70.0370026  58.2384014   9.7759384  69.5397472  57.7525282
   9.3555683  70.9530163  58.0945063  13.4075581  25.4597225  11.8811634
  14.2244040  25.5309811  12.3750428  13.0923759  26.3605967  11.8082693
  32.2350731  68.6484565   9.3292979  32.1162262  69.5257630   9.6932247
  32.8558293  68.7692846   8.6107663  61.7556810  46.6415262  35.5755091
  62.0287800  45.9181595  35.0112486  62.5755358  47.0364475  35.8723354
  70.0464153  41.0333633  56.9226742  69.6561146  40.5609369  57.6580048
  69.9656963  41.9568110  57.1613407  29.8574963   2.2020651  39.4386673
  29.9738922   1.3184715  39.0894699  30.1502648   2.1407581  40.3479290
  62.3746014   2.4020670  45.2699327  61.6758633   2.7096325  44.6925259
  62.9647017   3.1512564  45.3519535  43.7475256  73.9946488  44.1639376
  44.4712643  73.3957163  44.3475580  43.0488352  73.7143966  44.7551441
  11.4870590  55.0423574  63.0881834  10.7941479  54.7296953  63.6698627
  11.0226769  55.3794718  62.3220682  32.7937828  32.2245589   7.4131373
  32.4607550  33.0867806   7.6619318  33.1491314  31.8617859   8.2245329
  69.0254723  20.4790583   3.6573199  68.9664112  20.7277289   4.5797613
  68.4218155  19.7414818   3.5689619  57.8169107  35.1448107  22.2291613
  57.8032541  35.8910751  21.6298842  58.6973906  35.1551270  22.6045060
  32.1036377  61.9647755  15.5858019  31.9511261  62.0177592  16.5292910
  31.2352028  62.0677628  15.1966456   5.3520909  69.6442188   8.9533928
   4.9658051  69.7705759   8.0867651   5.3634348  70.5195727   9.3405083
  57.0510598  69.3319072   5.5093077  57.7169367  68.7621226   5.1243571
  57.1310993  70.1542868   5.0260714  53.2674586  14.8792067  16.2487868
  53.1302010  15.6988468  15.7738283  54.1620194  14.9431458  16.5833071
  71.6316366  55.5544710  57.4533272  71.3315105  56.2299728  58.0614805
  71.7746401  56.0203362  56.6294622  20.9241568   1.2093988  18.0321482
  20.8926235   1.0075274  18.9672831  21.8438708   1.4128032  17.8619078
  29.3375145   8.0760803  10.6146315  28.6753975   7.6866141  11.1857298
  30.1645361   7.6991978  10.9150008  66.9227171  11.2758327  59.6074724
  66.3767719  11.6219163  58.9014959  66.6851568  10.3501952  59.6621609
  64.2033291  34.2376900  59.8159885  64.1607523  34.9729681  60.4273653
  63.2940722  33.9553046  59.7172928  46.9277573  17.0705175  47.6403141
  47.7623558  16.8257773  47.2405958  47.1128988  17.8902698  48.0985260
  53.9098584  14.2757073  24.3170336  53.3368813  14.5893755  25.0167063
  54.6939980  13.9660588  24.7703341  69.1304299  62.6186980  19.0853289
  69.5574566  63.4130658  19.4060496  68.2187887  62.7080049  19.3631056
  68.0047039  62.3379027  53.0036879  68.7834362  62.1998357  53.5429049
  68.3426956  62.6915680  52.1809435  74.9039122  72.6345696  13.2756880
  75.8374449  72.5825204  13.4807280  74.4915672  72.0150413  13.8776711
  75.1258802  24.0133238  49.2808628  75.3398085  23.3572674  48.6174965
  75.9146261  24.5513868  49.3486881  11.4707174  64.1467418   6.5145329
  12.3311844  64.3488397   6.8819454  11.6152182  63.3641900   5.9825877
  10.9058231  21.6922235  53.9190435  11.6386360  21.7633772  54.5307350
  10.1273674  21.8127584  54.4628239  12.9725975  28.1547761  35.2144098
  13.7202114  28.5173655  34.7391987  13.2658524  27.2886515  35.4973531
  51.5291691  75.5306339  30.8410668  50.7315111  75.0600863  31.0830450
  52.2406054  74.9799109  31.1678624  59.1253853  36.6142106  58.0847979
  58.2091761  36.8665433  58.1993580  59.5900393  37.0758986  58.7827778
  41.8566595   1.4118543  16.0327414  41.0861050   0.8791080  15.8361128
  41.5137326   2.2992745  16.1381796  62.8675600  68.1551255  28.5982493
  62.0102640  68.5786356  28.6419848  63.4426805  68.7252821  29.1085318
  50.5725670  33.8067937  50.9581232  49.9815130  34.4370937  51.3699532
  49.9966383  33.2335210  50.4522562  69.9917984  15.4877830  46.0084152
  69.6149445  14.6171689  46.1358738  70.7569313  15.3386009  45.4529476
  70.1059815  65.3396119   6.4635733  69.5930191  65.2996935   5.6564120
  69.5575281  64.9063672   7.1175841  15.6211323  17.1519494  63.3209562
  14.7007031  17.0027161  63.5372496  15.6893868  16.9235885  62.3939037
  71.9330549  51.6390038  45.2461863  71.3651848  51.9492388  45.9515285
  71.3657236  51.6133976  44.4756603  77.4604654   3.6169106  43.3801985
  77.8488111   2.9564533  42.8064251  77.4277210   4.4097897  42.8449392
  64.3459654  23.3076429  59.7072983  64.0354300  23.1814027  58.8107157
  64.2690516  22.4433160  60.1113462  42.0776180  64.0074967  41.5658522
  42.1452907  63.4119891  42.3121929  41.8726400  64.8574578  41.9554424
  68.6030899  23.2749739   2.9177311  68.8806473  22.3845711   3.1330851
  69.3409573  23.6452999   2.4333313  33.4846916  66.3595332  10.5951432
  34.2635384  66.1090006  10.0983027  33.0681648  67.0367612  10.0621298
  60.0427866  51.9688797  59.4669819  59.7140217  52.1834469  58.5939980
  60.6018591  52.7097178  59.7011423  80.0004768  16.0364735  65.0304842
  79.3052769  16.5275061  64.5925188  79.5485926  15.5353081  65.7093573
  44.6210705   7.3989430  15.5237082  45.1533972   7.1939888  14.7550419
  43.7646805   7.6336518  15.1663092  44.7447954  19.4167080  46.8548849
  44.1200815  19.9572554  47.3383883  44.8962055  18.6604681  47.4218062
  36.1340547  17.8132033  16.1644745  35.9780264  17.2297764  16.9071054
  36.0281682  18.6935222  16.5251112  43.7661743  62.1205378  56.5437889
  44.6119356  61.6726255  56.5267420  43.3263969  61.8324280  55.7438946
  77.5272223  57.3550357   2.5889376  77.6908728  57.8510465   1.7868021
  77.7636191  57.9565968   3.2949665   8.9645523   6.1756653  40.2077198
   9.4981903   6.1670858  41.0023165   9.5801491   6.3944292  39.5081353
  66.7717453  70.6508388  16.1133459  66.3754746  71.2328829  16.7617491
  66.0816570  70.5089773  15.4653624   2.5004620  44.9259758  63.7616348
   3.3463234  44.6552849  63.4045935   2.7146286  45.6203842  64.3846560
  57.9051971  20.2196479  20.8262110  58.5912323  20.8786058  20.7195902
  57.6537085  20.2826428  21.7476320  38.5760060  69.3919696   6.0808113
  39.2985287  69.9729313   5.8427599  37.9310551  69.5139732   5.3841141
  13.2904285  17.3370147  58.4278154  12.8157372  16.7311680  57.8587389
  13.7370914  17.9315650  57.8251314  11.1781830  45.2486801  62.2611856
  10.9187836  45.9961462  61.7224503  10.3983349  44.6945906  62.2934723
  19.8097740   4.4157591  19.8616103  19.0928398   3.8364258  20.1196841
  19.9286448   4.2479363  18.9267615  54.8048925  13.6546409  32.6156759
  55.7296038  13.6645436  32.8627586  54.7020674  12.8517282  32.1048045
  10.9930744   3.4360767  53.0793428  11.0159054   2.7882696  53.7836504
  10.7414570   2.9365612  52.3025465  24.8823252  42.1432243  29.8972109
  24.9581852  42.1795528  28.9437083  23.9671221  41.9121169  30.0560358
  69.1713381  46.0031939  58.5084486  68.7300158  45.9767056  59.3574286
  69.2210340  46.9345760  58.2933044  52.1813869  67.2727585  58.9147377
  52.6515675  67.9112434  59.4509315  52.4469709  66.4229536  59.2662048
  21.8810930  47.1121527  31.2399939  22.5943461  46.4771791  31.3056544
  21.6832819  47.1542575  30.3044012  35.5992532  17.1954608  64.6864939
  35.8192635  17.7188063  65.4571676  34.6422648  17.1844745  64.6696758
  46.2999569   1.6227117  21.1932925  46.2933432   2.5263252  20.8775881
  46.9101368   1.6311136  21.9307497  70.3379917  31.1228251  51.9178057
  69.6770430  30.7531643  51.3323736  69.9803066  31.9719958  52.1770477
   8.7492222  58.1550121  52.3503542   9.4254917  57.5504732  52.6560211
   8.0191559  57.5898361  52.0977449  45.1759577  28.5324311  33.2780743
  45.7230186  28.1539893  32.5897861  44.3238974  28.6632466  32.8620076
  23.3973259  28.8099337  63.2978010  23.7882942  28.5208035  62.4733114
  23.3944458  28.0273294  63.8489437  26.3133383  14.9316144  64.6228552
  27.0892787  14.5280099  65.0117636  26.6353369  15.7456708  64.2357349
  28.0190645  16.8661490  14.1402987  28.1340681  17.8146591  14.1980294
  28.9061438  16.5235462  14.0309742  71.8129063  32.0108461  28.5965419
  71.8124342  31.8602681  29.5418239  70.8929491  32.1582699  28.3770394
  54.9771214  40.9322023  49.4067383  55.1968145  40.1899624  48.8436699
  54.7614813  40.5365896  50.2512646  21.9656796  31.5065575  25.8865905
  21.9595760  31.1975765  26.7925310  22.2276634  30.7415533  25.3743792
  56.0367489  42.4363661  57.7319479  56.5450716  43.2455683  57.6768589
  55.1286411  42.7288008  57.8097868  32.8457199  12.7022877  21.4017371
  33.1012570  12.3597231  22.2582320  32.6834379  11.9226446  20.8706549
  52.8574368  75.6135048  23.2000044  52.8326317  75.4678287  24.1457251
  53.1085344  74.7656240  22.8335646  22.9764071  57.3320545  16.6391447
  22.6640597  56.5054597  17.0071295  23.4491911  57.7509298  17.3583487
  40.1713219  66.8029465   5.0635174  40.6206360  67.3557533   4.4241789
  40.2816239  67.2617401   5.8963278   4.6885628  50.1300097  58.6032772
   4.0461201  49.9796915  57.9098082   5.4908222  50.3686905  58.1389093
  21.6315546  48.6466696  -0.0481149  21.1156168  48.5664119   0.7541302
  21.6647902  49.5880248  -0.2183410  29.9326553  63.7045850  12.4544504
  29.9612370  63.1943478  13.2638148  29.3592491  64.4436826  12.6573780
   1.8407717  40.2181797   6.5574435   2.4235191  39.4702615   6.6887930
   1.9963350  40.7793380   7.3171357  59.1802883  43.6243248  48.1812620
  58.9714336  43.1209898  47.3943329  58.3300161  43.8085556  48.5804272
  73.5990095  44.6303177  42.7005911  72.8865528  45.1150656  43.1173134
  73.3536577  44.5914555  41.7761850  51.0843440  55.8667793   3.8782194
  50.6223866  56.6747441   4.1018704  51.2154051  55.9200169   2.9315260
  30.8800545  68.9276470   5.3203944  31.0956326  68.3786668   6.0743025
  30.4439011  69.6917524   5.6974152  29.9631157  59.5719899   8.6414746
  30.2541008  60.4838862   8.6387137  30.7410088  59.0731110   8.8909272
  14.9564022  62.9469538  51.5581512  14.6060413  63.8327599  51.4641857
  15.2943653  62.9167557  52.4531937  30.5702567  39.0860415  60.7766581
  30.5822229  39.0456891  61.7329359  31.4047384  39.4929504  60.5436420
  54.2648077  53.2075930  59.4392061  55.1904631  52.9690218  59.4889784
  54.2492819  54.1467571  59.6234941  20.0841605  25.3408184  11.7216566
  20.5365502  24.5458594  12.0038155  19.2015730  25.0469008  11.4960936
  31.2064781  66.9999184   7.3668507  31.6177216  66.1835541   7.6508644
  31.4732590  67.6435007   8.0232457   0.3577751  43.0782986  56.6712475
  -0.0632816  43.1768703  55.8172989   0.5106682  43.9754391  56.9678879
  65.2393389   8.8192433  57.8402853  65.5278349   9.0839744  56.9668341
  66.0507965   8.6686563  58.3251429  11.0241646   5.8365411  60.7413244
  11.5704769   5.5512685  61.4737177  11.1340755   6.7870873  60.7165527
  69.3075609  18.3327246  34.2831969  69.5819187  17.4667954  34.5850682
  69.9440002  18.5631883  33.6063933  10.2032986  74.4187750   0.8398083
   9.9743500  75.3399982   0.7166651  11.0692110  74.3318333   0.4412201
   8.1808653  70.6942572  24.9705580   8.1824961  71.5600194  25.3788260
   8.0696240  70.0853481  25.7006911  62.7880832  32.7640213  16.5926150
  62.2336956  33.5404273  16.6705778  63.5963579  33.0001773  17.0477560
  51.0326242  24.6952963  43.8379526  51.4182615  25.5371404  43.5954237
  51.7843342  24.1270351  44.0060139  45.4908466  66.5685987  51.2349939
  45.3905392  67.1404743  50.4739904  44.6935511  66.0389948  51.2433577
   3.3897629  59.4968309  20.6313017   2.6700058  60.1194944  20.7336405
   3.1657972  58.9989700  19.8450449  73.4208441  35.1717186  48.2796478
  73.5435009  34.6711731  49.0862703  73.5431576  36.0838556  48.5428476
  23.8839808  69.3204035  15.3150347  24.4167938  69.8157896  14.6929959
  24.2061987  69.5907344  16.1748770  75.1739883  54.5071459  28.0647540
  75.8321619  55.1158714  28.4001470  74.6569920  54.2660141  28.8333893
   0.0525001  57.2354995  35.3448129  -0.1204201  58.0875825  34.9444532
   0.9735278  57.0619701  35.1503181  74.4531689  69.3971943  44.3079138
  75.2238378  68.8440310  44.1802025  74.0957937  69.5168953  43.4280396
  12.5639572  27.1239473   8.4278134  13.0343046  26.3615073   8.0906323
  12.4066439  27.6686593   7.6566008  37.8644787   2.5549164  33.2277563
  36.9589793   2.8379765  33.1005648  37.9923712   2.5801935  34.1760329
  61.7512846  68.1902122  33.9359450  61.3735104  67.5015593  33.3888888
  61.0602427  68.8491821  34.0026951  78.6357021  23.4508038  57.6676464
  77.8206348  22.9922795  57.8717375  79.3083620  22.9695511  58.1494761
  41.6162434  64.6920122   7.0471648  41.8104115  65.5765452   7.3572138
  40.6755486  64.7012748   6.8704012  46.1854795  75.2250047  52.4386358
  46.1743454  74.2741951  52.5484943  45.2894215  75.4474222  52.1859646
  40.5190039  10.7199705  43.5074949  41.1564159  10.2520561  44.0469360
  40.4969215  10.2313077  42.6847219  72.9168034  31.3201356  50.9058428
  71.9993401  31.3021374  51.1781931  73.3852243  31.6673374  51.6649628
   5.0670666  36.5786529  41.5062380   4.9632305  36.4374995  40.5652142
   4.2282909  36.9440746  41.7876053  64.2531729   7.1573550  47.8826094
  64.1056108   8.1011277  47.8213787  65.1996231   7.0697558  47.9957247
  59.4950151   6.7033702  45.4893541  58.6317062   6.9524503  45.1593685
  59.3108225   6.1514366  46.2493992  57.8255987  67.6139688  57.4173307
  58.4083223  67.6934624  58.1725454  58.3286524  67.9753685  56.6875648
  -0.2031526   5.7827164  56.1026144  -0.3265629   4.8839928  56.4080572
   0.6547108   6.0358692  56.4435101  36.2338244   8.1804695  27.0547083
  36.7481934   8.0949536  26.2520006  35.8435999   7.3158016  27.1823767
   0.2184052  33.7272835  54.9087906   0.4424137  33.2078242  55.6809378
   0.9999889  34.2530966  54.7388697  76.4190708  22.4966231  11.8674544
  76.8451725  23.0625334  11.2237051  75.5506836  22.8811589  11.9868401
  80.1947880  30.5081439  31.6781211  79.4085360  30.5840182  32.2187471
  79.9357033  29.9333096  30.9579325   3.4063286  48.0551815  49.3565702
   3.0907196  48.9383411  49.1651297   4.3587917  48.1211185  49.2880964
  76.2649437  55.2537920  17.6339987  76.0954710  56.0535981  17.1361807
  76.2185331  54.5527090  16.9839552  77.6888323  36.7771530  52.4244356
  78.5281181  37.0525599  52.0556831  77.6053238  35.8582330  52.1697903
  49.8255348  19.8545516  46.2140131  50.0214291  18.9540362  45.9553051
  48.9223385  19.8220801  46.5293169  61.6184187  64.6063375  53.0702639
  61.4392328  64.6251726  54.0103531  62.4333525  65.0987053  52.9718590
  63.6794853  61.8948841  31.3112259  63.3607244  62.4248648  32.0418000
  64.5222378  61.5548134  31.6118217  54.1106653  31.4112258  56.6094780
  53.2531261  30.9861970  56.5949726  53.9540100  32.2520280  57.0392942
  12.7582005  60.5036031  62.9425335  13.1297354  60.3666102  62.0710802
  13.4104399  60.1393138  63.5409546  43.8806711  -0.1470766  21.1241797
  43.6754261   0.2038303  20.2575949  44.5560395   0.4388037  21.4660147
  52.8542029  32.5754442   9.2621544  53.2701765  33.4322157   9.3577698
  53.2172095  32.2222605   8.4499195  76.6681576  66.2615490  64.1560555
  77.4426270  66.6120052  63.7160492  76.1125946  67.0260429  64.3081379
  27.9362434  20.1734042  54.3389654  27.0470280  19.8309743  54.2480373
  28.1545776  20.0313735  55.2600479  60.1020336  14.1916585  33.1016088
  60.4950285  15.0619781  33.1674433  60.2946043  13.9089084  32.2076273
  46.4094830  62.3824835  52.5645256  46.7967272  63.0651331  52.0165682
  47.1330738  61.7832565  52.7477598  10.4075283   2.5094414  64.4660234
  10.2643341   1.7885008  65.0791931  11.0308212   2.1613400  63.8284016
  63.5784769  28.5167074  49.8415184  63.0783796  28.3610320  49.0403318
  63.0642462  29.1649914  50.3226852  66.9373322   0.8979673  35.1705050
  66.6353941   1.2776868  35.9956598  66.1543179   0.8659758  34.6208692
  77.4922367  67.8071799   9.0697172  78.4146544  68.0539955   9.0029553
  77.3847052  67.1062721   8.4267596   8.3938259  17.1512377  51.1388254
   7.9929108  16.4627135  51.6693258   7.6746887  17.7516711  50.9424782
  18.6846482   3.6674967   2.1099690  17.8148543   4.0569916   2.0206145
  19.0057360   3.9891806   2.9523781   6.3304085  41.0153055  21.7248297
   6.1936897  41.8657494  22.1423054   7.0344013  41.1682892  21.0945749
  62.3346949  63.1027412  26.1313725  62.8072214  62.8070641  26.9095254
  61.7126322  63.7513256  26.4609361  66.0691404  61.2707376   5.9136957
  65.8831835  61.2943220   6.8523622  66.5338659  62.0895338   5.7409507
  67.6949978   6.5186203  32.6632428  67.0611238   6.1453372  33.2756948
  68.5031796   6.0334623  32.8296614  10.5548059  21.7502108  22.3418120
  10.0390636  21.2055483  21.7471865  11.3812553  21.2780228  22.4430636
  77.1914339  37.3257136  60.2489758  77.1935320  36.4494729  59.8637104
  76.7314196  37.2201133  61.0817194  19.5425453  73.9665379  30.7144240
  19.4487562  73.0824889  30.3596190  19.1457548  73.9188828  31.5842036
  37.9122292   0.8240357  22.4796084  37.7280079   1.6107002  21.9663313
  38.5278546   1.1155572  23.1521014  62.7850151   6.3514018  30.1625538
  63.6957359   6.0917020  30.3017616  62.2743320   5.7035929  30.6481218
  14.4937792  65.7340612   0.7708767  15.3654375  66.0541906   0.5385807
  13.9102974  66.1426748   0.1314905  78.6979481  72.9455508   3.0946139
  79.3834206  72.6440062   2.4984291  78.9468189  73.8441982   3.3107785
  71.4283180  70.4922104  35.6752896  70.9579039  71.2716866  35.3797293
  72.2780609  70.5450296  35.2378154  58.1949234   8.9338017  37.0193458
  58.8468266   9.6346945  37.0192266  57.3783684   9.3661457  36.7692471
  10.0592985  60.2684201   1.3653162   9.4687929  60.4175200   2.1037606
  10.2787199  61.1462511   1.0530690  50.5551720   9.5387477  55.3426552
  50.2979898   8.9005405  56.0080719  49.8270226   9.5436269  54.7213650
  58.9759608  48.8403393  22.7489641  59.2277976  48.1714060  23.3856276
  59.6348258  49.5272984  22.8500250  56.3128887  17.6783314  16.4460066
  56.7925488  17.9992380  17.2096613  55.3959404  17.6809254  16.7206553
  74.2731857   6.5409863   2.9389542  73.3984709   6.8979412   3.0928591
  74.4690418   6.0378689   3.7293619  40.3393555  18.9650083  42.7807617
  41.2122965  18.8500535  43.1562519  40.0619364  18.0799651  42.5441837
  34.0789833  64.6912755  13.9865664  33.5688534  64.0881242  13.4459999
  34.9724045  64.3498410  13.9485243  11.1732143  39.6299362  26.5062737
  11.1584133  40.3316069  27.1571755  10.6096405  39.9463034  25.8002019
   8.8776058  36.4617276  56.8531513   9.5775455  36.5742040  56.2099838
   8.6941666  37.3479319  57.1649599   0.8297053  67.9339780   5.9580639
   1.2917366  67.5573720   5.2091149   0.1869335  67.2681345   6.2024620
  27.0918694  51.0381676   9.2114333  26.8410912  50.4095484   8.5345438
  27.3014107  50.4984774   9.9737051  62.7963305  34.0818453  49.6949291
  63.5755301  33.5885477  49.9513292  62.1025276  33.7455034  50.2621555
  23.2318341   2.4860659  29.0349177  23.8518702   3.2120028  28.9656714
  22.7261292   2.6775255  29.8247603  57.3980379  60.3849936  53.1356525
  57.8361368  60.2744150  53.9794970  57.4798203  61.3192272  52.9439354
  61.7646551  28.2815075  44.0347862  62.3905134  28.3125997  43.3112097
  62.2801924  28.5126138  44.8074722   7.0383195  73.6999664  28.1797457
   6.3494734  73.0440468  28.2869506   6.8502549  74.3566006  28.8503385
  76.3058615  51.4281940  38.9471221  75.7657576  51.1243057  39.6766257
  76.9703722  51.9827986  39.3558669  57.6009794  54.7776176  11.0811594
  57.7446314  55.7207121  11.0026291  56.7403861  54.6998979  11.4929465
  66.3445282  34.8930287  49.7381830  65.6559563  34.3907857  50.1739025
  66.7286205  34.2795253  49.1118336  18.1702700  39.3334592   6.1712960
  18.0118647  38.3910728   6.1160925  17.9061165  39.5690414   7.0606497
  32.8021836  13.1649327  56.5428066  32.6462102  13.5534179  57.4036121
  31.9313622  13.0897260  56.1526251  37.3594700  10.5156126  49.3132571
  37.8282820  11.3172426  49.5452765  37.0583044  10.6651440  48.4170607
  24.2873815  72.3499226  53.8435888  24.6721033  73.2087517  54.0186167
  24.9589495  71.8835880  53.3458281  33.0761566  47.4713041  23.3915881
  32.6405468  48.3187522  23.4827498  32.9894962  47.0635404  24.2532423
  47.7429247  15.5744302  55.5768061  47.5819492  15.1667500  56.4277554
  47.3970890  16.4623666  55.6673670  61.9674063  26.5707850  23.3729982
  61.1299372  26.8268847  22.9866171  61.9309902  25.6150651  23.4118104
  36.3046827  73.4587039  12.5643042  36.6191139  72.6384153  12.1841839
  35.9477123  73.2067098  13.4159497  11.9347424  57.3622751  53.4671259
  11.7713684  57.2010279  54.3963909  11.8434280  58.3100271  53.3688211
  61.4331961  61.9124460  57.2978210  62.0456696  61.5652466  56.6493130
  60.9279585  61.1507273  57.5819874  20.1505322  61.3089228  62.8326035
  20.3765053  62.1809530  63.1562328  20.9940285  60.8748341  62.7049017
  54.7338772  65.8865881  63.2979822  54.7824478  66.3329458  64.1433430
  55.5148363  66.1785269  62.8277683  36.0853897  32.8729096  17.1778849
  36.9355236  32.7818384  16.7475298  35.6759440  33.6211338  16.7434386
  60.0176334  58.7627554  51.8628216  60.7951880  58.2535028  52.0915222
  59.5255327  58.8290882  52.6811552  31.6532313  10.8284321  11.6806200
  31.4873778  10.7554665  10.7407263  32.0355831   9.9849215  11.9225529
  11.0325665  50.1926184  42.6236391  10.4798836  49.5053005  42.2516584
  10.6416077  50.3785229  43.4773493  49.7025875  24.7614036  58.5613718
  50.5266336  24.2836033  58.6556276  49.9035553  25.6473289  58.8630029
  17.6976818  60.6484985  27.1737075  17.8583569  61.5704536  26.9726801
  18.1920761  60.1687574  26.5091348  57.3072481  38.6881375   7.1437645
  56.8090916  39.4603181   6.8758005  58.2178593  38.9828920   7.1558374
  13.1249565  55.1921511  43.8332033  13.8324112  54.6588802  44.1956282
  12.3722118  55.0045300  44.3939209   8.4424919  51.0528803  54.6508169
   9.2151875  51.4926720  55.0054502   8.7932343  50.4234028  54.0207672
  66.3718840   5.5911518  40.5473661  66.5221187   4.6544291  40.6746912
  66.1304303   5.6717564  39.6246338  16.8505898  24.1336609  44.2548704
  16.7543497  24.8637463  43.6433649  17.5888958  23.6299587  43.9122105
  66.0829067  31.9811583  59.1089058  65.4694748  31.3635778  59.5070601
  65.5477858  32.7450013  58.8934469  14.8757404  47.6307964  54.1660166
  15.4221195  47.9236221  54.8953676  14.7451252  46.6959476  54.3248558
  71.7297840  35.0649238  53.6843061  71.9559956  35.6928468  54.3704319
  72.2024298  35.3740287  52.9114580   8.2597675  48.2931413  33.6560419
   9.1572609  48.4878279  33.3861712   7.8129759  49.1392733  33.6301020
  58.1767273  40.5864382  47.5375462  57.5236082  41.2843847  47.5879478
  57.6711178  39.7784615  47.6256323  75.1536175  57.9976095   5.8564595
  75.9550377  57.4743976   5.8710364  75.3492209  58.7187304   5.2581671
  77.9060030  50.5150414  53.4235573  77.1026373  50.0762701  53.1437159
  77.7830458  50.6648350  54.3609333  53.1906843  47.0317459  43.6996937
  53.3444738  46.9864511  42.7560139  52.2667933  47.2685957  43.7807035
  14.2010012  65.9815158  30.4664973  14.9879637  65.5639161  30.8165530
  13.6645880  65.2545513  30.1502493  56.5808296  43.9456797  60.8286858
  57.0777416  44.6089792  60.3497839  57.0512199  43.1285286  60.6637001
  53.7633168   1.9432464   3.1829670  53.0579792   2.5395909   2.9317644
  54.2309223   1.7678848   2.3663739  32.6899376  61.2596835   4.9667528
  32.5227966  62.1827211   4.7762326  33.3028927  60.9818067   4.2860869
  68.2831383  44.3250990  52.9878092  68.5546637  43.4072304  52.9921722
  67.7358198  44.4166708  53.7677383  69.4760656  25.7341933  60.8938169
  68.9686728  25.5504251  60.1032400  69.3112278  24.9833298  61.4641380
  76.8272686  70.0955772  18.8107526  76.0626745  70.5572796  18.4665704
  76.6132164  69.9288368  19.7286928  45.3609883   4.4741001   4.0645245
  45.2606951   4.4516697   5.0161913  44.7249018   5.1268139   3.7719706
  75.2650928  42.5762224  49.4270945  74.8982763  42.2861385  48.5919142
  75.9233522  43.2280302  49.1860914  50.7734871  31.5117073  59.6810961
  51.3319492  30.8883095  59.2166281  50.9603786  31.3570118  60.6070375
   9.4391518  20.6756296   6.4140776   8.9677983  19.8962918   6.7085055
  10.0583248  20.8619585   7.1198681   4.5961708  54.7275352  24.2685747
   4.0503830  53.9585876  24.4330931   4.1995377  55.4202318  24.7968602
  72.7204418  13.6918330  54.6301842  73.4977484  13.1345570  54.6685410
  72.8678846  14.3552816  55.3042221  40.6884098  62.8782940  53.0269814
  41.5249681  63.1000948  53.4358883  40.1042032  62.6927137  53.7621641
  64.7828627  41.4150810  56.5088224  65.6286764  41.1278772  56.1648178
  64.1661549  41.2519073  55.7951880  27.7681004  42.1691313  17.0673540
  28.5243355  41.6805878  17.3924139  28.1381499  42.8011742  16.4510706
  71.4105463  57.3365545  59.9739218  70.5516958  57.4259567  60.3869867
  71.8586397  58.1587219  60.1726389  47.2108593   2.8019262  48.5469246
  46.5720215   2.7061201  49.2532825  47.0370808   2.0621658  47.9648638
   6.0843128  20.3969836   4.6416563   5.3954453  20.6566763   4.0298912
   6.7316765  19.9488997   4.0972519  77.5075579  59.9881887  50.4201889
  78.0493402  60.5421686  49.8582125  77.4652576  60.4596710  51.2521410
   3.9710278  14.6285617   5.6550360   3.3470005  14.9365938   4.9978101
   4.8281426  14.8667395   5.3016853   8.5025257  57.0896006  46.8191862
   7.5845856  57.0727444  47.0899820   8.4698433  57.1944761  45.8683109
  50.5534554  58.2947731  49.8840189  50.5377007  58.6723137  50.7634735
  49.6506166  58.3697033  49.5749903  58.3032417  32.4915338  46.3479853
  59.0603542  32.0358896  45.9800196  57.6617098  32.5023365  45.6376648
  13.9757198  47.1378088  41.3116837  14.4243473  47.8739405  41.7277098
  14.4596142  46.9907427  40.4990053  39.6738468  10.8484593  19.9822596
  40.4429184  10.7627287  19.4188765  40.0263678  10.8372965  20.8721140
  62.9071236  21.0021973  55.0499296  62.2426081  20.4134893  55.4078007
  62.5069094  21.3622594  54.2584658   4.2058701  50.8627605  15.3727210
   3.2624382  50.7477951  15.2589154   4.2858833  51.5940523  15.9851229
  64.7289085  34.7369647  46.0778809  63.9685917  35.0730014  45.6032991
  64.5443726  34.9341178  46.9961977  55.8863020  60.7526731  42.3094130
  56.6307497  60.9882641  41.7557669  56.2469769  60.1352167  42.9457283
   9.9643463  62.6577950  54.6735239   9.8934692  63.6055422  54.5595741
  10.8611530  62.5196028  54.9782848  75.3370714  62.8274441  46.5278196
  74.6520853  62.2923613  46.9287109  75.4345417  63.5739899  47.1189260
  78.2006836  61.3481855   6.2824124  79.0579176  61.2968063   5.8596277
  78.2903051  60.8136129   7.0713538   9.2844572   8.9239288  17.7266383
   9.5087042   9.6492458  18.3096099   8.3300486   8.8665844  17.7718389
  55.7466446   4.1900196   9.8470333  55.4455124   4.6312227  10.6413248
  56.2810360   4.8446026   9.3973902   4.1129380  49.3768349   0.0860098
   4.4625550  48.6697331   0.6282404   4.7082024  50.1110783   0.2368954
  51.3922596  36.8322873  54.7731256  50.5210495  36.4862442  54.5795298
  51.7569399  37.0557523  53.9167976  35.8554787  72.0438671  53.0011606
  35.9975285  72.8738976  52.5460720  36.7239517  71.7904711  53.3138561
  53.5841846  63.3270979  62.4567032  54.4891071  63.1311035  62.2139406
  53.6492968  64.0960836  63.0229664  75.9659576  53.0443048  20.7089806
  75.5978775  53.9240551  20.6265759  75.3811264  52.5962591  21.3200974
  68.1608776  74.6307019  46.9104099  68.6924271  75.3883593  47.1546364
  67.7981285  74.3157346  47.7383232  70.4294348  62.6863432  44.6675491
  70.1980972  61.9922829  45.2848005  69.5963717  62.9421902  44.2715931
  15.4722923  41.0050678  38.5594392  15.8794731  41.1569548  39.4122958
  14.7388119  40.4187822  38.7452221  79.3189430  44.5250463  22.4840331
  79.6896076  43.9712334  21.7969179  79.9739313  45.2098751  22.6190543
  55.0660944  66.4528179  42.3904562  54.1410732  66.3804770  42.6256847
  55.0717926  67.0035839  41.6076040  26.8386879   2.5725628  42.1857786
  27.5282040   2.7665974  42.8207207  26.0381117   2.9034878  42.5929689
  19.2275320   3.0370035  17.4558810  19.6481787   2.2445359  17.7894667
  18.2931744   2.8291645  17.4530772  73.2795000  37.7840567  49.1209602
  72.8299427  38.3587360  48.5013819  73.3614016  38.3081865  49.9177074
  21.9496380  29.4436302  10.0605706  22.5089918  29.1631356  10.7849196
  21.3809143  28.6923208   9.8923043  29.2805424  73.7995519   3.2591942
  29.0876045  73.4143366   4.1139534  29.4335976  73.0478157   2.6867417
  75.8366346  47.6026249  58.0348873  75.0902843  47.9445362  57.5426531
  75.4732895  47.3685074  58.8889360  25.4050488  62.6307631  38.5931611
  25.8728260  63.3345699  38.1436396  24.5603031  62.5807428  38.1457996
   7.2327847  48.0194664  55.6969929   7.1129459  48.9227295  55.9902430
   6.9964451  47.4875879  56.4569139  22.3985230  13.1555786  13.9940289
  21.5666710  12.7690974  14.2676857  22.4183451  14.0105524  14.4239786
  54.2775488  55.5614233  60.8850431  53.5029936  55.3617144  61.4107847
  54.8440361  56.0607767  61.4732361  61.6332725  34.1714989  54.8519525
  61.7577080  33.3738790  55.3662994  61.5154079  34.8615299  55.5047920
  10.1978249  65.9608746  30.0483537  11.0875744  65.6079245  30.0501370
  10.1124901  66.3910198  29.1975164  58.4864613  74.7461857   2.4376038
  58.9068695  74.6091832   1.5886477  59.0104838  75.4286207   2.8570250
  61.3122225  70.2937508  59.9609470  60.5922318  69.6663427  60.0257540
  61.9935131  69.8273182  59.4766855  77.9225063  60.4381847  24.8929167
  78.3004141  59.6593380  24.4844842  77.3535490  60.8099461  24.2188907
  10.2941746  13.6697435  52.4462128  10.2368683  14.0084815  53.3396387
   9.6074432  13.0047011  52.3977041  63.8330698  46.9457674  28.3350945
  63.6722183  47.0366096  29.2742991  64.5489073  47.5550747  28.1546569
  59.6612501  40.9453964  54.8191881  60.2948236  41.1008596  55.5196476
  60.1917696  40.6597471  54.0754271  22.0961176  46.8993988   5.5893687
  21.6287886  47.1379223   4.7887781  21.4044796  46.7310753   6.2293175
  10.9937901  41.5173149  37.1492815  10.3356213  40.8878994  36.8545341
  11.8304104  41.0774374  36.9982553  45.0160013   4.1530314   6.9183853
  44.5209061   4.9363604   7.1581868  44.4558893   3.4244147   7.1860197
  67.4830567  20.7315054  18.9383295  66.7647682  20.1055470  19.0303591
  68.2739102  20.1924744  18.9533976  28.3011233  24.0080061   3.0369309
  28.1547629  23.2880297   3.6504868  28.2771860  23.5955038   2.1735075
  76.9321381  14.1606417  21.4576033  76.4516579  13.3336630  21.4959696
  77.0997940  14.3829527  22.3734072  77.9927969  66.3588953  55.8621502
  78.5402727  66.9275331  55.3207159  77.0998383  66.5310335  55.5634451
  17.4091190  39.8318529  55.8955050  17.3996681  40.4206896  56.6500998
  17.2006363  40.3946972  55.1498699  38.9828478   6.1587515   8.3316162
  38.0805098   6.4705363   8.2623127  39.1968285   5.8472243   7.4521902
  76.9427620  39.6235123   9.5994547  77.4984680  40.0062981  10.2783516
  76.0554158  39.6858492   9.9529436  37.3627459  20.8283081  23.2205370
  37.6584660  19.9276629  23.3532599  38.1245600  21.2793770  22.8566626
  68.9034306   8.8620701  27.8619078  69.5246064   8.2009974  27.5563696
  68.3498894   9.0401640  27.1015719  53.5601044  45.7422543  52.2832918
  52.7605915  45.2784014  52.5319910  54.2185163  45.4360390  52.9069567
  72.7335453  13.0046237  37.4055648  72.2969580  13.7102711  37.8827286
  73.1601429  13.4419513  36.6686869  49.3143307   8.1843558   8.3325270
  49.7715031   9.0249386   8.3580139  49.0536295   8.0811539   7.4173096
  55.4450607  66.8474150  31.9258142  55.2975655  67.6412296  31.4116764
  55.9881020  67.1348763  32.6597762  18.7512961   3.0824829  59.6834993
  18.7954226   4.0195395  59.4932222  18.9897480   2.6591326  58.8587904
  53.2948732  34.9004745  55.3689098  52.6655436  34.2773533  55.7320833
  52.7580023  35.6293774  55.0579405   7.4791855  22.6621652  57.3114872
   7.7512974  23.0490899  56.4793348   8.2851738  22.3051906  57.6845646
  38.4911766   2.9029060  16.3727546  38.5644188   3.7419392  16.8276072
  38.7934818   2.2570969  17.0113194  68.3507252  47.4609756  54.8545933
  68.0055380  47.8835249  54.0681267  68.5383558  48.1845379  55.4524994
  72.9316092  28.4642816  53.0350399  72.3708200  28.9958477  53.6000061
  73.6728239  28.2240391  53.5910177  34.8875796  18.2677355   9.1818360
  34.0116488  18.5298815   8.8985375  35.4015147  18.2383194   8.3748415
  61.8364668  49.8873615  60.0515699  61.0716629  50.4628086  60.0644016
  62.1731234  49.9563169  59.1581821  58.9904308  61.9967937  64.5568180
  59.2256641  62.2917986  65.4365158  58.4146881  62.6832819  64.2199421
  66.6498085  13.8926388  46.1706972  66.8077370  14.8098064  46.3945150
  66.3127013  13.5037685  46.9777727  79.6941090  45.4028368  60.7532644
  79.3339825  45.0091696  61.5479755  79.0371847  46.0454369  60.4854059
  61.1346566   0.2633538  42.8047827  61.6987549  -0.0919328  43.4916571
  60.8875405   1.1316052  43.1230620  63.5804272  38.1141615  45.4349184
  63.7352514  38.4552431  44.5540524  62.9677868  37.3899007  45.3070593
  76.3311525  46.8484922   6.5544442  76.3467690  45.9076305   6.7298487
  76.7480751  46.9393440   5.6976155  72.6413155  42.3533297  60.2113914
  73.1150723  43.1828928  60.1513386  72.8086567  41.9207811  59.3740559
  71.4473677  54.5541191  33.8975167  72.3531389  54.8565388  33.9635277
  70.9592581  55.3225374  33.6016846  70.6140900  59.7529507  37.6173568
  70.1298285  60.5571747  37.8042984  71.5244436  59.9691200  37.8192520
  11.1435360  37.0683551  59.8217821  10.3363747  37.3660111  60.2414560
  11.0360092  36.1206627  59.7408438  59.0766083  16.6820183   9.6671036
  58.1945835  16.3992920   9.4255665  59.5046746  15.8866968   9.9840525
  59.2299366  71.4341402  43.9830875  59.1952991  71.3776398  44.9379873
  58.5977602  72.1175480  43.7605047  16.9466772  66.8324055  18.0180720
  16.8684664  67.7555408  17.7773741  16.1065951  66.6187467  18.4240797
  73.6796141  48.4238625  44.2262793  74.4094992  48.0597925  44.7272348
  72.9655457  47.7996159  44.3553495  50.3843164  34.3565297  58.4848881
  51.0331297  34.7248673  59.0845537  50.5725431  33.4180689  58.4753561
  43.4563208  14.5505822  49.6197605  43.9382029  14.6564829  48.7995148
  44.1283512  14.3341994  50.2661276  52.5231457  56.5761614  45.9157991
  53.3011341  56.0270739  46.0130930  52.5749588  56.9083071  45.0195694
   4.6556133  72.4032164  34.2251301   5.1646370  72.7030325  33.4719825
   5.3130669  72.1516466  34.8737383  59.6989380   2.2209182   2.5832871
  59.8268257   1.3315811   2.2532061  59.0961396   2.1186676   3.3197811
  36.2191715   4.3400360  38.8298607  35.8739796   3.7388540  39.4899011
  35.4523029   4.8223091  38.5207319  37.0900904  37.6974192   0.5148104
  36.5951859  36.9468680   0.8434037  37.4279009  37.4089279  -0.3330633
  68.5013390  39.8765945  15.6148994  68.1098080  39.3884563  16.3392293
  67.7544165  40.2433634  15.1418090  76.0765505  36.0666275  40.9116316
  76.7192173  35.4192543  41.2016726  75.4213619  35.5568457  40.4351044
  67.4884510   0.5261714  44.9646330  66.9726706   1.2401596  44.5899057
  67.6983833  -0.0350434  44.2181778  62.8619324  42.7060833  20.9384516
  62.6978813  41.7940083  21.1781290  63.6778103  42.6793518  20.4386118
   4.5250120   4.2122341  39.7138715   4.4085016   5.1410557  39.9137354
   5.3656044   3.9852787  40.1115179   6.0692253  11.1632801  48.0314970
   6.3058891  10.6259895  48.7874985   6.6402950  10.8528305  47.3288345
  36.8041979  20.8564320   0.3962735  37.7270733  20.8728018   0.1427582
  36.3803994  21.4713707  -0.2024576  54.0549517  52.3998213  28.3358955
  53.1655550  52.0461273  28.3461547  54.6013927  51.6832924  28.6587310
  22.3152485   4.6467377  39.5576525  21.5787401   4.6474195  38.9462709
  22.8505459   5.3932644  39.2886162  49.3090283  18.4298458   6.2417677
  49.9226080  18.3867445   6.9751814  49.5131050  17.6584234   5.7131031
  64.9997555  47.6632920  12.9311589  65.2113472  47.7524605  13.8604096
  65.2364575  48.5085716  12.5494412   6.9629520  35.3565526  42.9853153
   6.4165157  35.4269958  42.2025776   6.5684837  34.6449471  43.4895468
  53.2040058  29.1739931  14.4154957  53.8160168  29.7978296  14.8060110
  52.6004540  29.7164097  13.9078120  16.0678429  72.0815802  64.2809629
  16.4995331  71.2272549  64.2842007  16.6407341  72.6413918  64.8050308
  38.4602394  69.1996087   8.8875655  38.5090962  69.0984287   7.9369858
  37.5265923  69.1331019   9.0878371  35.8308779  29.2054882  21.1176947
  36.0993611  29.4670382  20.2369383  35.4634177  30.0012818  21.5023020
  39.0108143  15.2732411  16.3482264  39.3166148  14.4509545  16.7310599
  39.7435128  15.8782711  16.4636496  72.9974457  66.6695704  26.0669592
  73.1344315  65.7303490  25.9431437  72.1122023  66.7373957  26.4246920
  33.8695455  68.8005066  47.2330952  34.7169828  68.9074993  46.8010807
  33.6434841  69.6792459  47.5379610  79.8440313  57.1974611  51.4569330
  80.2274513  56.7823696  50.6843328  78.8992596  57.1481848  51.3112831
  61.2713757   2.9354406  64.7413683  60.8605042   3.5952116  65.3000498
  61.5385189   2.2427250  65.3455305  18.2969612  67.5974512  30.1571083
  18.8207001  66.8650484  29.8322725  18.3943314  67.5581217  31.1085320
  36.7784447  67.4477053  55.9397125  35.8399815  67.3859024  55.7616568
  36.9103664  66.9081688  56.7192841  41.3893738  65.4257597   2.8997782
  40.9467831  65.1355972   3.6973694  40.8962002  66.1966290   2.6191119
  67.5140047  28.4360552  30.0801492  67.3654795  28.6976504  30.9888530
  67.8838301  27.5553441  30.1418400  40.4297863  45.7574024  17.3861006
  40.5508553  44.8191967  17.5322035  39.5164763  45.9205857  17.6216296
   5.3385239   9.4813242   1.4459685   6.0793476  10.0817814   1.5287808
   4.6737271   9.8385134   2.0347670  38.3606949  -0.1057123  32.2381425
  38.1924858   0.8006979  32.4957323  39.0836277  -0.0469755  31.6135263
   0.9773296  59.7542286  56.7533350   1.4859623  58.9513206  56.6399097
   1.5832657  60.4568672  56.5180206  55.0976692  22.9130879   1.9409970
  55.5444657  23.3096352   2.6888970  55.3438603  23.4618988   1.1963967
   7.6715841   3.9836479  30.3612661   7.3737278   4.6707798  29.7651482
   7.2351732   4.1800047  31.1902523  18.0361071   8.8478542  43.3599043
  18.1845083   9.4136120  42.6021957  18.7055578   9.1121651  43.9909458
   1.7154640  53.5589933  38.7275910   1.1513561  54.3257236  38.6269164
   1.1085171  52.8211737  38.7865496  43.5701370   1.3328248  36.1785841
  43.5982561   0.4688234  35.7675576  43.9241791   1.1919669  37.0566750
  58.5018635  31.8117309   6.5933704  57.6704597  31.9067001   6.1286372
  58.5387325  32.5704622   7.1757787  79.0545177  26.3446236  20.1240277
  79.1649151  27.1995234  19.7078681  78.5615778  26.5292811  20.9234929
  57.7173376  12.6258516  40.9625149  57.1247578  13.3192110  41.2529182
  58.1709623  12.3493886  41.7587709  43.5019258  70.3265624   0.7268555
  43.4256462  69.4031518   0.4865932  42.6006988  70.6085520   0.8834019
   1.0861057  12.5144160   8.7558794   0.9484142  11.8587077   8.0722725
   1.8874020  12.9681778   8.4946030  60.0059704  54.8639153  21.2724233
  59.9644283  54.2669462  20.5253410  59.1077522  54.8987674  21.6014004
  48.3213762  72.4631475  26.9206858  48.3212713  71.9847002  26.0916376
  49.1391567  72.9604994  26.9100928  77.6893950  -0.2522087  18.9268553
  77.5857162   0.5972389  19.3557155  77.3016119  -0.1318091  18.0600452
  41.3652468   5.9476763  33.0449462  41.5499258   6.7704153  32.5919271
  40.4170799   5.9540105  33.1759906  74.8355484   2.0685470  35.1871085
  74.1060877   1.4607428  35.3083181  74.6539736   2.7849662  35.7953882
   0.9132842  69.2682474  26.3212347   1.8334869  69.1002147  26.5242720
   0.8845881  70.1968061  26.0906100  67.7502251  30.7324147  50.8068848
  66.9528818  30.4285455  50.3731298  67.4371195  31.2688875  51.5351629
  54.1645765   2.3800857  53.5037947  53.3210564   2.1522146  53.8946724
  54.8124981   2.0861374  54.1441250   8.5131973  21.1683202  26.5692377
   8.5023159  20.3314900  26.1046624   9.4372314  21.4169741  26.5931821
  38.9999155  59.4794666  31.9660735  39.6966461  58.8486170  32.1472549
  39.0390400  59.6141469  31.0192037  75.5453590  63.7844752  53.9159012
  75.3219322  64.0088951  53.0125999  76.4856438  63.6068057  53.8929844
  37.8644982  18.0909909  22.8153303  38.4926834  18.2988025  22.1236494
  37.5269356  17.2266187  22.5805071   2.5393524  30.6852801   3.0662230
   2.2104016  30.8974202   2.1927145   3.1258860  31.4097722   3.2837561
  53.7324242  61.4678072  29.4432473  53.4895996  62.1499108  30.0693464
  54.6505073  61.6458689  29.2391586   4.6108765   2.1747023  32.5428009
   3.8856739   2.2933988  31.9294214   5.0736851   1.4015979  32.2197771
  38.0093932  12.9400539  38.0822754  38.7895298  12.8968632  38.6352229
  38.0357552  12.1335125  37.5674677   5.7005539  38.1231704  22.0579794
   6.3205233  37.7250223  21.4469508   5.9208622  39.0546356  22.0497683
  50.0211191  15.4492307  20.2393222  49.9269962  15.8153093  19.3599129
  49.2986774  14.8262358  20.3180027  77.7341700  37.0745039  33.2759237
  78.1798458  36.2657166  33.5278535  77.6310968  37.0055223  32.3267937
  30.5957750  71.4000314  38.7522960  31.4784960  71.7674543  38.7973428
  30.3774122  71.4149134  37.8204560   7.4376816  22.6698279  41.9701099
   8.3622402  22.4226427  41.9880772   7.0799107  22.3184013  42.7854204
  28.3807755  21.6572046  13.6846256  27.8624988  21.4677382  12.9024982
  28.3712840  20.8395004  14.1821229  76.8229103  19.1095674  31.4168525
  76.0045528  19.4316614  31.0389948  76.8354797  19.4699240  32.3035431
   7.5766033  13.1488121  25.0815058   7.0844502  12.9338741  24.2891598
   8.1236023  12.3794174  25.2397990   4.8417610  33.6401844  32.4624419
   4.6709293  33.9320016  31.5669608   4.4765038  34.3322515  33.0136752
  47.5951151  74.3199022  20.5487633  47.4158625  73.5296953  20.0391817
  47.6529840  75.0177490  19.8961580  42.4236111  64.4926249  14.8315239
  43.1680731  64.1344463  15.3149641  41.6786054  64.3814074  15.4221463
   8.6163181   4.0221894  17.9254103   8.2215065   4.6541166  17.3245585
   9.4621128   3.8116390  17.5297689  10.1129192  28.5535097  55.6518221
   9.5980686  28.3659196  54.8669863   9.4924015  28.9666438  56.2522459
  63.8290691  43.8220119  12.1882880  63.8966179  43.3792400  13.0342329
  62.8965139  44.0157032  12.0931208  15.7590618  51.3088252   5.3933457
  15.3638354  52.0078387   5.9143189  15.6052914  50.5136599   5.9035424
  53.0608086  54.8485803  50.1917076  52.4437527  55.1762318  50.8460140
  53.1549553  55.5694984  49.5690966  66.0739807  65.1613246  51.0684443
  65.2871803  65.3789644  50.5686283  66.2255100  64.2341911  50.8848906
  27.0849041  71.8564465  52.8402138  27.4142937  72.3223495  53.6087608
  27.1110062  70.9329348  53.0905628  68.5283947  46.1465836  36.3814974
  68.6020470  45.3973961  36.9727063  67.9238081  45.8547306  35.6992006
  67.8906631  24.3968916  63.4742212  68.3401442  24.0150952  64.2281675
  67.2487593  24.9955845  63.8560057  71.7022896  24.6047378  45.9365559
  71.7291212  24.9933243  46.8109179  71.9818735  25.3096676  45.3524876
  64.4438791  32.9378986  54.0536737  64.1882515  33.8595891  54.0166140
  63.7397289  32.5135756  54.5439291  45.6423763  73.5636424  17.6898706
  45.4480842  73.1381697  18.5250080  46.1091093  74.3636442  17.9315090
  29.1212324  67.6630806  15.4889274  29.5379928  67.8764426  16.3238049
  29.7500852  67.9504572  14.8269677  74.6552944  16.1424756  29.1958857
  74.5927811  15.3366995  28.6830044  73.8375282  16.1744392  29.6923470
  16.1181870  36.9368114  11.0686425  16.1311188  36.0269259  11.3655833
  15.3048458  37.0144829  10.5699757  78.5128975  24.7655201  41.3001251
  78.8828993  24.9944401  42.1527243  78.2286119  23.8568282  41.3985825
  60.1080894  63.2291222  51.5499592  60.6485796  63.8119030  52.0833158
  60.1794195  63.5814714  50.6628323  26.1145071  70.7182561  38.2224059
  26.8745664  70.2598839  38.5807776  26.3374809  71.6461616  38.2966042
  41.0099987  60.3824567  36.3183713  40.3170112  60.0197493  35.7666063
  41.0465101  61.3085805  36.0792184  40.6270841  63.4241663  36.2129974
  40.4993013  63.2652770  35.2777672  41.4436582  63.9211809  36.2621260
  64.5838867  23.2908669   6.8559006  65.0705754  23.5927716   6.0889510
  65.2561795  22.9579821   7.4504116  36.3802290  15.9412622  22.1394777
  35.6411982  15.7091248  21.5771818  36.3500142  15.3016520  22.8509688
  75.3267050  37.8481245  22.9096866  74.6961927  37.8657222  22.1897054
  75.5719185  38.7647510  23.0357718  76.5300274   5.7741988  41.6072750
  77.0759153   6.4133221  42.0652676  76.4961767   6.0911697  40.7047129
  53.8432455  32.4984550  60.8748913  54.5673370  33.1057310  61.0270119
  54.2668009  31.6527915  60.7276249  10.2687592   4.3421102  35.6050611
  11.0578198   3.8003373  35.6151772   9.6287769   3.8426492  36.1121988
  54.6407557  21.9622588  52.9861450  54.6677351  21.1260676  52.5210810
  55.4427862  22.4110746  52.7186680  63.4015846  10.1665831  44.8289013
  62.5053406   9.8545253  44.7039986  63.4947872  10.8843088  44.2024708
  50.5714086   1.2378798  62.9085089  49.9470762   0.5160771  62.9822984
  50.9031395   1.3595091  63.7981105  56.8552307  53.2040333  44.1796494
  56.6459755  52.4733137  43.5978508  57.7975372  53.1283306  44.3298626
  48.8131714   4.7539389  30.6993103  48.1133699   4.1903850  30.3692889
  48.9696455   4.4440666  31.5913463  69.2621613  36.4352846  37.6153326
  68.3261538  36.3361216  37.4412918  69.6895885  36.0823298  36.8349743
  49.5711140  62.4033832  37.5354385  49.9008421  63.0638420  38.1447887
  50.0187401  62.5934469  36.7109776  30.1540378  74.4863317  30.5200219
  30.3519682  74.6631668  29.6003556  29.7604612  75.2978305  30.8406401
  42.8777504   0.7851221  26.8699884  42.7832937  -0.1673017  26.8558884
  42.3254013   1.0698354  27.5980544  52.4757147   6.0497040  13.0794024
  52.0869493   5.1903313  13.2424128  53.1737232   6.1241508  13.7301517
  18.4203009  75.3381563  62.4460316  18.5545210  75.7089859  61.5738487
  18.2124571  74.4176797  62.2855425  13.5925331  58.4222879  21.8335036
  14.1286554  58.4032001  21.0407713  14.0343943  57.8239073  22.4359396
  78.8281437  52.3620953   1.7494086  78.5957380  51.8748440   0.9589604
  78.2640024  53.1351091   1.7288092  49.8642401  74.6995227  24.7627449
  49.3760113  74.1077181  24.1903543  50.0869564  75.4438933  24.2036891
  57.2140360  32.8099847   9.7808439  57.3301029  33.3059478  10.5912650
  56.8407154  33.4408665   9.1653323  74.3898153  24.2699218  54.3759727
  73.5633755  23.9945221  53.9792585  74.9976158  24.3389988  53.6397457
  26.0964489  22.2929382  42.8179646  25.1413512  22.2416067  42.7807665
  26.3479781  21.6204500  43.4509945  42.5648216  61.6557502  49.1460466
  42.5626758  61.7910694  50.0936317  43.4783367  61.7797576  48.8884640
  62.7818966  16.5944636  22.1222401  63.1955385  16.5849102  22.9853988
  63.3425093  16.0377836  21.5818191  47.2911882  24.8624992  17.6871967
  47.5001526  25.6697130  18.1572723  47.2015858  25.1337051  16.7736042
  19.4461094  -0.0620327  15.8772162  19.7490679   0.5459752  16.5515879
  19.8116623   0.2824893  15.0624159  58.3892540  50.0463270  29.4125938
  58.8343624  50.3056287  30.2193642  59.0258983  49.4987248  28.9531875
   9.3294853  47.7246475  47.6094294   9.9417252  48.0649757  48.2617903
   8.6415905  47.3023319  48.1239033  16.6833061   2.8229672  55.7208633
  17.3476929   2.1347815  55.7558155  15.8618683   2.3553993  55.5696678
   2.2090061  58.8012681  37.1238205   2.2299392  58.5045991  38.0336448
   3.0670603  59.2012844  36.9825312  23.8588375  33.8966537   3.0884963
  23.3444637  33.2443118   3.5640004  24.6004719  34.0829873   3.6642432
  41.6417507  73.7874057  16.0908628  41.9290117  73.4444209  16.9370747
  42.1419338  74.5956450  15.9777343  62.2047278  29.1927667   7.1301249
  62.3259827  28.5967572   6.3910034  62.1120163  30.0566603   6.7284754
  42.6572136  51.6693257  40.3421879  43.2972053  52.3653149  40.1930428
  42.0904116  52.0094751  41.0344791  51.5878439   9.5671564  41.2531757
  52.0782137   9.2284054  40.5041647  50.9209585  10.1343453  40.8661366
   7.5095883  29.5929046   9.4832066   8.4534111  29.4334783   9.4801358
   7.2216931  29.3098517  10.3510931  49.4204807  22.7413201   9.0228432
  48.8395548  23.4961057   9.1180253  49.6937323  22.7635384   8.1057447
   8.4919876  18.6173558  54.2624044   8.2173676  17.7005184  54.2474318
   9.1249985  18.6661065  54.9787569  10.2645309  40.7779649  57.0667794
  10.8727224  40.0722778  57.2866383  10.2585561  40.7995552  56.1098411
  76.1142874  18.2790864   7.8839356  75.3434896  18.3664179   7.3231530
  76.4242220  19.1763890   8.0064893  48.7951708  10.2052307  34.9528360
  48.7788296   9.4903243  34.3165398  49.2688227  10.9092999  34.5099235
  46.4555076  74.9416604   2.8086218  45.9350542  75.4222465   3.4523579
  45.8317188  74.7113541   2.1200897  11.6441873  71.0821634  19.3076324
  12.5922469  71.1345269  19.1864991  11.2811068  71.2811502  18.4446096
  66.7448517   3.4234490   1.5639094  66.6810318   4.1068067   0.8966902
  65.9924003   2.8555717   1.3978747   9.6435204  55.3571023  36.1939410
   9.1143980  55.7107522  35.4789618  10.4431143  55.8831813  36.1830691
  78.4462070  10.5368507  20.4640675  79.2254210  11.0916924  20.4293180
  78.4822750  10.1271284  21.3283920  40.7197666  23.0961156  32.7612734
  40.0930977  23.8080978  32.6324296  41.4836502  23.5177040  33.1549454
  61.7398487   9.4975128   4.9749211  62.5879799   9.0538635   4.9841622
  61.9569813  10.4282704   4.9222258  42.5939373  58.3530413  35.0853825
  42.5805286  57.5802492  35.6500459  42.1430305  59.0281009  35.5925417
  53.5952381  52.6002549  51.5614796  53.3442024  52.8036117  52.4625111
  53.6403374  53.4521460  51.1273384  24.2047838  70.5204528  48.2438278
  23.8271335  71.2955414  48.6595821  24.1634945  69.8426740  48.9184713
   9.6093025  55.1621427   4.9841908   9.8117676  56.0488106   5.2826193
   9.4175043  55.2612390   4.0516547  58.0162910  54.4030475  15.4531348
  57.6107506  55.1402449  14.9967265  57.9853920  53.6842059  14.8218322
  67.9317955  65.3445559  42.5644732  68.1633858  64.5408260  42.0990515
  67.1085266  65.6243472  42.1642542  71.0721775  23.2356896  11.2568024
  70.3818842  23.8152732  10.9346178  70.7030674  22.8392066  12.0459727
  39.7815704   5.4056805  14.6543372  39.9856925   5.9775496  15.3942907
  40.4307652   4.7042891  14.7074842  39.6104836  26.5117359  53.3510828
  39.4599295  26.9346690  54.1964769  39.0732551  27.0098352  52.7350330
  17.0881188  13.4305716  42.6480103  16.7235219  13.9309299  43.3780384
  16.6769707  13.8076389  41.8701887  50.1818562  17.2667766  53.1840372
  50.5925465  16.4752507  52.8361130  49.2420530  17.0958424  53.1225061
  50.6247044  30.0335717  16.3584256  51.3396788  29.4982600  16.0142088
  50.1911402  29.4704556  16.9996393  62.1856165  32.0426130  56.3121223
  62.7996159  31.8341684  57.0162439  61.9170380  31.1905479  55.9684849
  54.5851517   3.1747302  38.9145041  54.0439749   2.8696603  38.1862926
  55.4074335   2.6940185  38.8196278  12.4025864  57.5720549  49.7612762
  11.9257206  58.0138969  50.4638529  13.3117050  57.8476429  49.8786926
  45.2789406  50.7178687  15.1556456  46.0753588  50.7643532  14.6266949
  45.5020574  50.1245402  15.8728695  69.3401480  39.6158838  62.9811478
  70.0278187  38.9766788  62.7947092  69.7553301  40.4651165  62.8306007
  66.1225418  52.0535587  39.7535729  66.1627582  51.7935752  40.6739140
  65.5120281  51.4328383  39.3558049  13.7042946  40.3860807  54.6618032
  13.3404964  41.2256050  54.9430084  14.0563339  39.9973321  55.4625368
  70.9091711  26.6927218  52.9458714  71.7088413  27.2070169  52.8351212
  70.2010536  27.3048854  52.7457237  37.4261832  19.8749471  52.0401525
  38.1900406  20.4499841  51.9944811  37.7557015  19.0703321  52.4404573
  56.5432664  37.9193169   4.1160754  56.8931862  38.4504254   4.8314169
  57.1246978  37.1600591   4.0748814   0.9478226  72.4207677   1.3779381
   1.0810175  71.5830793   1.8215254   0.4941979  72.1926440   0.5665139
  48.3971930  16.8677759  21.8936419  48.7927914  16.3066101  21.2266874
  47.5243521  16.4992011  22.0297837  76.8243647   0.7287195  37.0865798
  76.9064379  -0.1614016  36.7442632  76.1155415   1.1178993  36.5743828
  72.8776550   2.7021956  24.4615579  73.4928274   2.1114659  24.8961067
  72.8403997   2.3871607  23.5584521  77.7665424  22.0237327  51.3586855
  77.1972895  22.5980735  51.8708515  77.1769571  21.5907383  50.7413197
  56.0393095   4.1939154  35.4055667  56.4247990   3.7029830  34.6798849
  56.4739513   3.8491660  36.1856079   7.4608559  17.6112354  41.5749598
   7.5914425  16.6804767  41.7562580   8.2103199  17.8570604  41.0326385
  57.2481489  29.0362620  45.0513840  57.6280117  28.7602949  44.2172480
  56.4921093  28.4617329  45.1720095  14.7825951  20.6496191  25.6406522
  14.4274086  20.1401591  26.3690209  15.5172009  21.1312199  26.0209846
  57.6863766   8.0959809  54.1685438  56.9934320   8.1231910  54.8283339
  57.4958038   7.3121566  53.6532450  49.0186119  18.4080207  33.8047218
  49.5734882  17.6331949  33.8941002  48.1603527  18.1257474  34.1208625
  30.2472820  34.8093693   3.1999996  29.7760716  35.0439452   2.4005202
  30.4996624  35.6489043   3.5843352   1.0540813   7.5171363  48.6838293
   1.8845505   7.0598400  48.5518169   1.2767262   8.4449250  48.6072159
  70.9396744   9.9666262  56.0813284  70.5830956   9.1411072  56.4093542
  70.3939724  10.6408846  56.4860678   4.4792408   4.3159887   8.7822962
   4.5933193   3.9133969   7.9214019   4.9549336   5.1445860   8.7241441
  33.8747349  48.5218372  18.2571581  34.3775883  48.7969221  17.4905470
  34.4395390  48.7300195  19.0013960  45.5324078  19.6894383  41.2387323
  46.3290310  19.7994649  40.7195854  45.8175707  19.2093325  42.0161676
  17.4372810  16.6165948  43.1564426  17.1565956  16.2699115  42.3095369
  16.8553585  17.3596883  43.3158302  76.1284208  30.0133324  13.3579159
  77.0820141  30.0204611  13.4405887  75.9113789  29.1008329  13.1669426
  35.5947260  48.1919788  22.9933214  35.6974701  48.7127923  23.7898326
  34.7631744  47.7331828  23.1127501  13.4640831  13.9256489  51.5990973
  13.6171669  14.8679566  51.5294456  12.5321812  13.8488829  51.8038273
  18.6199039  18.9869475   5.5017167  18.1253857  18.2211053   5.7935572
  18.5776848  19.5948589   6.2398857  78.5998726   2.6193663  10.6425107
  79.0187359   2.3956925   9.8113936  77.7738905   2.1357504  10.6322360
  76.6622210  50.5868864  14.8969948  77.4735355  50.2641106  14.5048046
  75.9786606  50.3318882  14.2773592  54.7578382  21.5895748  24.8359489
  55.0871325  20.8875155  25.3971195  53.8419962  21.3603640  24.6780682
  59.0544796   3.7837887  14.3745351  58.5400438   4.3177852  13.7691939
  58.4063482   3.2466856  14.8302579  41.9701958   7.7511513  21.5910149
  41.8028593   7.4901640  22.4966168  41.9180822   6.9353056  21.0931063
  31.0355572  64.9232017  47.2795486  30.6950954  65.0196575  46.3901615
  30.4133133  65.4016243  47.8274107  64.0482903  15.9244108  48.8542318
  64.0403938  16.8268073  48.5350895  64.2070913  16.0043752  49.7947741
  76.5226460  35.3452778  24.2679834  76.6386557  36.1684418  23.7934589
  75.6081390  35.1075125  24.1150904   4.4789928  31.1968851  62.8851414
   4.2771286  30.9987307  61.9706917   4.7525734  30.3584361  63.2571411
  52.1555618  56.7721044  12.5659323  52.1975378  56.4599883  11.6620219
  51.2704615  57.1251236  12.6565659  18.2836155  72.6436027   8.0438846
  18.1976990  72.1810239   8.8774741  17.8256754  73.4727626   8.1817776
  59.1335154  11.2111151   6.6705203  59.6471691  11.7606592   6.0785794
  58.3251905  11.0320258   6.1901397  14.0135044  18.9611256  27.6858068
  13.2983345  19.0382004  28.3173299  14.5163292  18.2034421  27.9846716
  35.7384342  28.9951706  27.7891517  35.9550041  29.3979073  26.9482398
  35.2906841  28.1816673  27.5568581   8.3803410  18.8739383  25.0686765
   8.0708450  18.0493855  25.4435778   9.2304558  18.6584902  24.6851110
  43.5324100  64.5128619  50.7383680  42.5900558  64.6595584  50.8201170
  43.7226347  63.8197385  51.3705301  79.1218567  28.6713696  28.9427686
  80.0453186  28.4853625  28.7729287  78.8928080  28.0985117  29.6746182
  20.0586660  26.2025091  55.7388833  20.6004484  26.3195309  56.5192714
  19.8727615  27.0928643  55.4406562  26.7988720  67.4771990   2.0913390
  27.7232781  67.6701988   1.9349936  26.3339844  67.9655995   1.4119414
  59.7815895  29.5228195  59.0683603  59.7715950  30.4673982  58.9137554
  60.6731606  29.3378520  59.3635178  70.1273346  50.6602621  43.2637548
  69.2290878  50.8553076  42.9966593  70.2247763  49.7207975  43.1083632
  48.1617069   3.5560778  33.1698060  48.2923985   2.6403999  33.4161472
  47.2155809   3.6394271  33.0509186  47.7903227  72.5529923  39.7942638
  46.9186310  72.6717605  39.4170690  48.2128910  73.4060072  39.6941042
  77.2483921  17.0376062  33.7891364  77.7342558  16.9908261  32.9657388
  77.9155540  17.2198558  34.4508839  75.9026814  47.5163317  53.4013128
  76.1798429  48.0274963  52.6409674  75.8629608  46.6147518  53.0822420
  32.5810661  52.3226001   9.3229702  32.9027119  51.7273738   8.6458567
  32.6882782  53.1955136   8.9451340  68.5645975  74.6838531  58.5913697
  68.1241907  74.9889765  57.7981648  68.3150686  73.7626562  58.6645880
  70.4817677  57.2050858  33.1698895  70.3893232  57.8607273  32.4786448
  70.8496380  57.6877213  33.9101338  57.0003510  59.1457462  44.3523216
  57.2885752  58.4806108  44.9774218  57.6417446  59.8508358  44.4400787
   6.7372269  25.7991886  37.5450754   7.3059410  26.5098238  37.2487664
   7.3402351  25.1066017  37.8151417   5.5676598  26.6310310  26.5759206
   4.6110100  26.6159201  26.5471864   5.7854980  26.3327432  27.4589849
  61.8145323  48.2586956  26.6483545  62.4332952  47.6670551  27.0765209
  61.5311480  48.8527727  27.3433352  76.7430449  43.8079071  52.5317669
  77.2519398  43.4786320  51.7909336  76.1286926  44.4302797  52.1425962
  45.6921183   7.2290697  18.0480841  45.3009115   7.4532976  17.2037485
  45.0186335   6.7168608  18.4956339  10.0381130  30.8911490  15.1746845
   9.8630852  31.7586064  14.8098373   9.6109814  30.9009409  16.0312450
  56.5416002   2.7698034  24.1631246  56.1554050   3.6071110  24.4200301
  56.8829727   2.9237339  23.2822132  65.4839945  27.9155755  51.7325020
  65.2889061  28.2893133  52.5918579  64.7032213  28.0973172  51.2094355
  16.8537945  46.7499065  37.9743266  16.7634052  47.3174095  38.7398338
  15.9721035  46.4092445  37.8232861  75.7819653  25.7602453   3.5647056
  76.7328167  25.8664346   3.5936728  75.6359959  25.0906157   2.8964841
  39.1125607  20.9655881  48.2752466  39.1917706  21.7833734  48.7663507
  38.1733656  20.7809758  48.2673168   3.0918449  28.0646610  48.7685871
   3.7044853  28.2414889  48.0546951   2.4083942  27.5260592  48.3698034
  75.8954430  42.2200966  30.3180385  76.0453987  42.4275780  29.3957067
  74.9527073  42.3335886  30.4388618  17.2839871  65.6290473  33.7685374
  16.8967142  66.4267959  34.1288832  16.5402880  65.0419058  33.6328677
  73.0594397  20.9552145  35.4758620  73.4823418  20.0965500  35.4848790
  72.2283125  20.8176446  35.9303260  72.9179716  39.1444063  15.7090783
  72.4380064  38.3311200  15.8653772  72.6836538  39.7065091  16.4475679
  22.6051798   0.0882650  25.7745528  22.2245445   0.2155329  26.6435480
  23.5342970   0.2882792  25.8884072   4.0504211  33.2287526  10.9297359
   3.2251591  33.0100632  11.3625669   4.0651363  32.6756501  10.1486516
  36.0542345  24.2083812  35.5494285  36.6871476  24.9214530  35.4646921
  36.3365674  23.7288237  36.3282394  63.1996540  59.5914697  26.7327785
  63.2316116  60.1119243  27.5354862  63.3944897  60.2162873  26.0342979
  72.1735716  42.4673176  48.1792593  72.3501730  43.0397272  47.4326754
  72.3263216  41.5835285  47.8448677  12.2956699  14.7016728  30.6119084
  12.5314087  13.7739563  30.6122017  11.6905636  14.7952676  31.3476515
  23.9263290  39.0087533  29.6629572  23.4976143  38.2209945  29.9974203
  23.2457489  39.4569850  29.1608334  62.3678112  11.2565732  63.5635853
  62.4608135  10.6370902  62.8398275  62.6648617  12.0921576  63.2033205
  32.6355063   3.9396849   2.6580933  32.6117979   2.9994765   2.4801138
  32.6012503   4.0037146   3.6125353  19.7080082  19.8867214  56.7223215
  19.0872234  20.5335140  56.3868713  19.3536896  19.0444076  56.4373684
  68.4147644   3.7029880  52.1723509  67.7648449   4.3743849  51.9648314
  67.8987837   2.9551336  52.4735308  71.6098642  30.7854652  36.3210893
  71.4364576  31.6502261  36.6930437  70.9551001  30.2155519  36.7244697
  69.7713757   3.2331115  39.2123389  69.3029451   2.6103079  39.7681451
  69.1639614   3.4190768  38.4963107  74.6513310  57.2132184   9.9808529
  74.5319977  56.3789870  10.4347828  73.9580097  57.2282054   9.3210724
  77.3334503  60.3184271  27.4707556  78.1540680  60.0170279  27.8605986
  77.5373125  60.4336834  26.5426445   0.4094166  18.8300478  52.0009089
   1.2302822  18.5053504  52.3710108  -0.0303036  18.0469775  51.6697311
   7.4696487  43.4225416  56.1428165   6.6061348  43.0978823  55.8875322
   7.5167889  43.2622099  57.0853138   2.3316616  12.2889864  44.6194601
   2.2287697  13.0802071  45.1482487   1.9157833  11.5993643  45.1368523
  36.4769501  10.6752038  31.7249799  36.0347313  10.8758855  32.5498438
  35.7709450  10.6261456  31.0804772  35.9330324  70.9732421  30.6531882
  36.8229822  70.6248357  30.7063913  35.9536938  71.7659252  31.1893392
  22.0543487  69.5961580  64.0265265  22.3018368  70.4659138  63.7126717
  22.4683340  69.5251403  64.8866439  79.6248960  25.2998471  27.9555154
  78.9249086  24.9278092  28.4920216  79.1768456  25.9011078  27.3605609
  64.4668913  21.0818982  34.1720104  65.1308632  21.6298604  33.7535501
  64.5872450  20.2174783  33.7789130  43.0066780  53.3335518  29.5142245
  43.6240915  53.2824825  28.7845492  42.3074631  53.9050054  29.1967869
  73.0075312   9.2358768  58.0511665  72.8767920   9.7918546  58.8192987
  72.4162340   9.5969701  57.3906994  12.3466343  46.6580725  48.1923389
  13.2786411  46.6738558  47.9747200  11.9102329  46.4641333  47.3627758
   0.8876270  42.7235508  46.4203310   1.1694092  42.3282719  45.5953550
   0.7658524  41.9812727  47.0122957  74.8663044  27.1337795  40.9305239
  75.2913427  26.2762499  40.9156179  75.0761318  27.4901271  41.7937851
  74.9352789  38.9601445  46.4190245  75.0396872  38.9428616  45.4676914
  75.4229641  38.1964087  46.7274094  23.2404751  52.4739027  19.1606736
  22.8160519  53.2549810  18.8056910  23.0789131  52.5208521  20.1029730
   5.4045910  15.2729833  29.5191860   5.6296772  14.9014318  28.6662388
   4.4478363  15.3021061  29.5228052   7.4265999  28.8621211  34.4604135
   7.8893322  29.0257621  33.6386275   6.5227551  29.1220117  34.2822051
  43.0696774   6.9331402  54.2703199  42.1842861   7.1922362  54.5256281
  43.5715866   7.7480507  54.2859268  72.0136305  69.6866216  13.1887034
  71.7184254  70.5465068  13.4881762  71.2872788  69.3543495  12.6612213
  77.7216530   9.7651660   5.5414224  77.2899961   8.9412719   5.3153682
  78.1841564   9.5770437   6.3580817  43.7496697  36.0009232   4.1352204
  43.4450089  36.2152186   3.2534674  44.6588646  35.7270184   4.0145138
  15.3255981  38.9444304  64.0404510  15.5772347  39.5622110  64.7269344
  16.1206764  38.8272476  63.5204983  63.7108234  73.1336126  50.2906799
  63.1548504  73.8134043  50.6714916  64.1092018  72.6995637  51.0450888
  61.1901140  46.1486530  22.2135997  61.3271856  45.2585745  22.5379491
  60.7732010  46.6077280  22.9427528  20.1234383  61.7142296  24.5385528
  20.8069080  62.3698235  24.6774602  19.3163628  62.1468782  24.8172545
  15.2784008  37.5455356  31.7460728  15.1656479  37.0318341  30.9463048
  14.5694870  37.2544694  32.3196268  73.6314678  35.2743030  28.6392188
  73.9839792  35.2552199  29.5289373  73.8563490  34.4185352  28.2740855
  50.8566713  24.9207163  11.2579978  50.6720448  24.0741611  10.8511984
  51.8033361  24.9170351  11.3995838  14.5258469  37.2665310  35.7377744
  15.4665798  37.2102427  35.5701828  14.1354221  37.3902440  34.8726201
  37.8925549  14.8483362   2.6009825  37.0723234  14.5224085   2.9714278
  37.6235329  15.5342951   1.9899777  55.6967115  33.8830471  63.6399412
  56.3318682  33.1925845  63.8298464  54.9321651  33.6575413  64.1698933
  68.8785219  48.3544254  34.8228693  68.7285423  47.9121876  33.9873075
  68.5592270  47.7372742  35.4812026  70.7903801   7.3667279   5.1989296
  71.4448773   6.7252341   5.4752425  69.9508129   6.9322291   5.3491524
   9.3943924   1.5976976  29.5373631   9.3195766   1.4555033  30.4809809
   8.7644428   2.2934157  29.3492961  20.8181576  50.7682346  14.7074020
  20.1893572  51.2309407  14.1535568  20.2784160  50.2141665  15.2712429
  13.0693096  15.9826326  27.7473712  12.3782486  16.3746715  28.2811999
  13.8401550  16.5237153  27.9184246  73.0829048  50.7357740  58.8856220
  72.4777079  51.3469505  58.4655857  73.9493275  51.0156202  58.5902691
  64.9627829  23.2491660   9.6384537  64.3192959  23.4891486  10.3052115
  64.8224020  22.3130846   9.4960505  66.6350698  30.0983834  20.3107572
  65.7002878  30.1946568  20.4928398  67.0531893  30.1514387  21.1701679
  51.3109398  58.8271856  26.3385081  51.9130325  59.1948462  25.6915593
  51.3488388  57.8821659  26.1910939  11.3222927  32.6718855  59.3390989
  11.8018288  33.4688616  59.5651579  10.4858345  32.7577758  59.7964859
  27.8088707  13.1953394  22.0432615  27.6107639  13.7249112  21.2708998
  28.7423271  12.9982328  21.9655252  59.8674917  15.6514561  64.4244671
  59.1761208  15.4607594  63.7905312  59.8286963  14.9252701  65.0468683
  68.7830639  24.4640541  23.8384199  69.6193171  24.0437031  24.0389776
  69.0123510  25.1869392  23.2543802  11.7050880  45.6990576  53.9025736
  11.0234016  45.1012945  54.2095089  11.3822216  46.0180664  53.0598259
  12.8011936  51.6414165  26.6875672  13.3158249  52.3100138  27.1396422
  12.3281998  52.1219635  26.0081673  79.0703011  35.0716305  37.6679754
  78.9905787  34.7894216  38.5791469  79.9418354  34.7786355  37.4018717
  64.8810244  18.4083915  51.7410231  65.1312733  19.2410100  52.1414614
  64.1459751  18.6290860  51.1689758  68.4805489  30.7533097  25.7819200
  67.7962351  30.3859854  26.3414025  68.2457876  31.6768432  25.6913447
  76.2956806  65.9946408   6.5914038  75.5753084  66.5368022   6.2699154
  76.3032242  65.2358379   6.0079697  10.3273382  56.7642500  11.5560797
   9.7120800  56.3096537  10.9807280  10.6082192  57.5274219  11.0511950
  53.2954502  18.2417595  36.1382413  54.2467403  18.1715012  36.0585833
  53.0907869  17.7995646  36.9621396   4.8386333  44.9031710  53.3828497
   4.4447468  45.3660225  52.6433563   4.1392658  44.8538374  54.0345192
  65.6811905  55.5678129  57.4126291  66.6319036  55.6751204  57.3832798
  65.3536129  56.4156437  57.7128029   4.9068302  59.0932226  46.2649059
   4.0229267  59.3247795  46.5500832   5.0736946  58.2419014  46.6694212
  59.9702787  24.7427464  50.0679922  59.0258360  24.8584342  49.9637222
  60.1663208  25.1302743  50.9210014  46.1166239  10.6394482  47.1452713
  45.9408283  11.5033090  46.7723465  45.9066629  10.7324803  48.0745125
  14.2206329  49.1633224  35.5084491  14.5054001  49.6705914  36.2685919
  13.4577316  48.6752844  35.8183312  71.5321445  41.9876766  20.8126378
  70.9537792  42.7459431  20.7304645  71.1322021  41.4547443  21.4998531
  69.5852900  15.3863335  30.6777668  70.3602886  14.8294497  30.7518744
  69.0473890  15.1499963  31.4334345   5.0329060  14.3381166  45.8905077
   5.9211582  14.4196069  45.5432320   4.4806141  14.2396522  45.1149321
  73.2280731  42.8705740  23.5656810  72.6273060  42.8735256  24.3108654
  73.4293461  41.9455671  23.4239554   4.9075897  52.5392518  55.8250519
   4.7098501  51.6127488  55.9618786   4.1036375  52.9950878  56.0742572
  47.1757555  21.5222096  64.0653419  48.0329609  21.6164470  63.6499500
  46.6758490  20.9733462  63.4611273   1.8627304  54.9167871  64.8825121
   2.5888104  54.3465614  64.6297693   1.0773891  54.4067335  64.6842241
  78.5797787  42.3486280  58.9900160  79.3828535  42.3201942  58.4699249
  78.0770779  41.5889215  58.6961365  20.1184029  41.1474323  48.0659866
  20.6340260  41.4048433  48.8302517  20.3990215  40.2517366  47.8783607
  19.9212936  14.8588024  60.7348496  19.2505983  14.1892420  60.8693319
  20.1904491  14.7484337  59.8229256  74.6691608  11.1638403  37.7899599
  74.0156174  11.8589342  37.8671217  75.5098104  11.6189194  37.8394437
  73.0360270  22.1565843  33.0330729  73.1243324  21.7253304  33.8830447
  73.4345961  23.0177188  33.1588531  63.0393505  41.6966677  14.1058362
  62.2559309  41.1726618  13.9387977  62.7659130  42.3320866  14.7674286
   4.5894093  55.4198408  31.4918756   4.9790329  55.9307766  32.2013640
   3.9074272  54.9002171  31.9174576  10.3731197  47.4845934  39.4573855
   9.7161621  46.7884398  39.4602537  10.5906528  47.6124334  40.3807306
  62.9923868  15.0100756  53.6069489  63.4374666  15.2727747  54.4126320
  63.4605551  15.4736888  52.9126024  63.4449339  39.4020939  20.7481813
  64.0273333  39.5423889  20.0016141  62.6342535  39.0719724  20.3608179
  69.3072987  41.7942238  53.2092237  69.0226507  40.8984756  53.0280018
  70.2613115  41.7613220  53.1384373   7.3125595  26.7103004  40.4978132
   7.4745983  25.8489251  40.1130962   6.3648361  26.8274856  40.4321861
  54.7635407  21.1131668  56.5113640  53.8708633  20.8050585  56.3550854
  55.2904457  20.6668782  55.8484745  73.3639240  36.6720057  25.8199215
  73.9612341  37.4098468  25.9425640  73.5336161  36.0995579  26.5680790
   2.0491928  36.9994307  18.4326220   1.7583698  37.2282767  17.5498509
   2.5064701  36.1653805  18.3254635  70.2246714  44.6360970  38.9045453
  70.3838873  45.3763247  39.4901586  69.6852684  44.0354872  39.4188857
  72.8757238  18.6351264   9.7170788  72.8983879  17.7901447   9.2679411
  72.3586798  18.4731507  10.5061674   2.7721586  48.6417498   3.6003950
   3.1238451  48.5860945   4.4889096   2.8789606  49.5614924   3.3577040
  72.7658081  49.7153234  23.0565286  73.3576775  49.0713167  23.4453416
  72.5314951  49.3427801  22.2065067  78.1861925  40.4575634  27.6516438
  77.4801636  41.0673761  27.8658462  78.3397388  39.9742270  28.4634566
  41.3953070  66.2962358  43.0245113  41.4569763  66.1733203  43.9717817
  41.8574146  67.1180051  42.8590345  17.5738567  32.5011778  35.4588199
  18.1499714  32.8942227  34.8031950  17.2282356  33.2457423  35.9511662
  68.5274839  20.4842663  39.7278738  68.0450869  20.5986428  40.5466795
  68.7582827  19.5554173  39.7136068  17.4857767  68.9574680  52.6164242
  18.3328684  69.0973029  53.0396411  17.2510059  68.0573473  52.8420314
  57.9671955  14.4087994  29.3228102  58.8940525  14.6257508  29.2223167
  57.5324059  15.2557111  29.4224787  70.8807564  48.4368610   3.5925558
  70.4183865  47.7437735   4.0638047  70.9292507  48.1216526   2.6900458
  15.9658188  25.9785199  25.7221842  15.3362030  26.6244864  25.4019713
  15.4752296  25.4626060  26.3620186  50.1260471  25.0755692  18.4946823
  49.5854139  25.1320076  19.2825687  49.4975519  25.0714803  17.7727330
   8.8128081  36.5997712   2.4954155   8.6894217  36.8252409   1.5733698
   7.9733076  36.2274866   2.7653673  60.1859379  49.3224621   9.6922016
  60.3059196  49.4598722  10.6318581  60.4042006  48.4006071   9.5551574
   2.9610867  56.9713306  59.3186474   2.7790875  56.2971067  58.6640263
   3.4554619  57.6392269  58.8435221  34.2172896   3.0019512  12.4826411
  35.0852238   2.6310578  12.6419047  33.7160717   2.2823920  12.0989159
  61.6060070  64.7793888  42.3779631  61.5098766  64.0985655  41.7120266
  61.5804199  65.6004154  41.8865442  79.4270372  14.7110260  60.6280327
  79.5553350  14.0712881  61.3283968  78.4766436  14.7776246  60.5356169
  42.6525167  70.2703320  32.0466948  41.8257622  70.6443732  32.3513150
  42.8362278  69.5614492  32.6631117  66.6962372  11.9216576   0.5007914
  66.9278942  12.0593729  -0.4176828  65.8605992  11.4558449   0.4697922
  10.1481384  73.5872316  45.1839066  10.0571007  74.4889832  45.4917860
  10.8778519  73.2331228  45.6921959  19.7073788  66.1128616  11.7276049
  20.5091900  66.6263342  11.8259645  19.0684551  66.5573454  12.2847831
   3.5250038  33.6428213  35.8465219   3.6345428  34.3889141  35.2569604
   3.5599941  32.8772354  35.2730393  18.9013523  35.9050679  19.4386125
  19.6537918  36.3281965  19.8521686  18.2276577  35.8967185  20.1185369
   4.0125698  43.0307674  45.8088684   3.7344116  42.1155119  45.7748032
   4.2730183  43.1682014  46.7196417  75.1910830  69.0587234  32.1652889
  75.3731012  69.9728823  32.3830318  75.5719519  68.9393234  31.2952805
  70.4773045  12.9019356  60.8694601  70.0528908  13.2258570  60.0749922
  69.8119354  12.3588562  61.2920570  63.9550781  23.6335707  45.6579447
  64.8211908  23.8807487  45.3339291  63.3696842  23.7844372  44.9157953
  32.7302204   5.6525841  23.9584711  32.9997813   4.7489443  23.7941435
  31.8411623   5.5780211  24.3052367  73.6748552  60.3827572  21.9076324
  74.4712067  60.1153660  21.4487648  73.2285500  59.5609093  22.1116090
  73.8863039  43.0380535  37.7102447  74.1390085  42.5069857  36.9550347
  74.6755457  43.0771303  38.2504272  50.0733410   7.1766796   4.5082739
  50.1364361   7.2155848   3.5539511  50.2701174   6.2651863   4.7243622
  73.2443714  36.5988088  55.4521465  73.9418411  36.7638063  56.0866070
  73.6473322  36.7750931  54.6019793  20.6900448  35.3251672  58.8053465
  20.5721516  35.7738280  57.9680681  20.4713005  34.4118071  58.6205339
   4.2920441   9.1731209  23.1016612   3.9782948   9.6521246  23.8687015
   3.4957737   8.8593811  22.6729941  67.8013897  21.2770247  44.3511677
  67.7092886  21.5000272  45.2774620  68.4959459  21.8541622  44.0337801
   7.2010941  18.4568131  15.4821944   7.7818913  18.2235992  16.2064314
   6.3736385  18.0224955  15.6893539  21.1818737  18.6685634   8.1810629
  21.2751812  19.1206741   7.3425394  21.8653053  17.9984796   8.1692314
  29.7435386   1.9954738  52.7234849  30.1665313   2.5061140  52.0331523
  29.6696003   2.6028762  53.4595749  57.2719578  52.0719718   6.4072162
  57.5642303  52.0294332   5.4967201  57.5127415  51.2221192   6.7760092
  50.1522354  67.1215772  46.1208534  50.7289699  67.8271579  46.4137077
  49.3893579  67.5711130  45.7572985  33.7909645  24.0732670  54.5808744
  34.7038025  23.7865996  54.5529985  33.5361904  24.1511345  53.6614943
   2.2634644  19.9013305  28.5655951   3.1648773  20.1988101  28.4423304
   1.9165463  20.4675412  29.2550063  74.0957928  46.4483976  26.7372513
  73.2623720  46.7098284  27.1287751  74.2139816  45.5387306  27.0106864
  61.3210396  72.2707429  48.0055857  61.8649868  71.5461575  48.3143520
  61.2066845  72.8290217  48.7746620  43.8277964  52.9402184  37.7918315
  43.6906341  52.1233844  37.3120403  42.9480461  53.2973932  37.9130840
  64.8793411   9.2526102  12.7153862  64.9275494   9.8743546  13.4415698
  64.4281197   8.4917510  13.0810666  64.3367100  16.7561233   2.2643411
  65.2602720  16.6625035   2.0308863  64.3298721  16.7506599   3.2215008
  27.4748714  32.2708437  64.8665060  27.3271663  31.9559709  63.9747257
  28.3486946  31.9514993  65.0916173  35.6029743  51.1943579  27.1424127
  35.2989143  51.0953188  26.2402105  35.8059448  52.1260595  27.2258425
  27.1753925  32.4598742  44.6094656  27.8323692  32.8468633  45.1881313
  27.3177380  31.5161633  44.6827745  45.9421778  13.2030940  29.8700047
  45.9949207  12.3211551  30.2382898  46.8514585  13.4988284  29.8254752
  61.6896439  20.4157090  31.1367154  61.3262510  20.6061769  32.0015287
  61.6929102  21.2606287  30.6869030  71.3771152  47.4279213  15.1024401
  71.4239407  46.4742231  15.0353277  72.2670364  47.6958847  15.3315079
   4.1028923  22.8745055  29.8636508   4.2477364  22.6649809  28.9409637
   4.0123409  22.0229387  30.2912807  64.6485758  19.5512807  25.3927398
  65.5582380  19.5989490  25.0986838  64.5662451  20.2586246  26.0323644
  70.8747387   5.6811947  30.3090668  70.6022882   5.2079028  31.0951948
  71.8095636   5.4922354  30.2276540  73.6795092  20.6795692  45.9652233
  73.3419657  20.8489561  46.8447685  73.1798267  19.9229431  45.6585169
   7.5984615  16.7587590  26.5821958   8.1873173  16.2055504  27.0954561
   6.7254681  16.4086020  26.7596936  52.9903412   3.9033607  21.9838834
  53.3209848   4.1276592  21.1140585  52.9254389   4.7428030  22.4392462
  78.8898659  34.4841027  18.3037555  78.7197018  35.2903914  17.8167486
  79.8423624  34.3907619  18.2871616  46.2950996  57.4884342  12.2711873
  46.3867954  58.4393369  12.2111189  47.0563797  57.1444105  11.8039274
  66.9167233  33.2283831  25.8379149  66.7396307  32.9187942  26.7261839
  67.0882797  34.1645026  25.9402871   5.5232853  20.3059125  28.3798552
   6.0242695  19.6142721  28.8121557   5.2385658  19.9148786  27.5538683
  66.5512848  26.5867639  10.1624370  66.3548470  25.8518457   9.5814538
  66.5637684  27.3509502   9.5861632   1.5010876  41.7919493  22.4911189
   2.2296089  42.2765923  22.8791928   1.9025749  41.2740993  21.7933559
  55.9126285  71.1367627  44.4843769  56.3805298  71.3936197  45.2789402
  55.4804901  70.3146886  44.7160673  54.2743107  43.1861313   2.5673989
  53.4105941  43.3640875   2.9396275  54.6424338  44.0520664   2.3916844
  63.5303185  62.0468890  55.0031853  64.0671084  61.6528677  55.6908178
  64.1540000  62.5256347  54.4572401  18.6020434   9.7176838  54.3701935
  19.5377636   9.5168787  54.3885565  18.1973481   9.0208101  54.8867416
  55.2408266  18.9001453  33.3436251  54.9007940  18.1851363  32.8056931
  54.4737673  19.4381595  33.5395622  46.8741945  71.6903969  48.0124426
  46.1061463  72.2163775  47.7895594  47.6176194  72.2706633  47.8486109
  33.9740147  49.7045852  28.8424662  33.3004870  50.3316571  29.1058615
  34.6334692  50.2350916  28.3953551   9.2319898  74.8568221  55.4056740
  10.1077012  75.2003655  55.2286386   8.7829784  75.5688523  55.8613396
  24.0415072  40.9814548  60.0667953  24.8526025  40.5801439  60.3787327
  23.4033585  40.2680445  60.0733376  68.5809223  21.7138424  16.1745432
  68.0524997  21.0016527  16.5348032  67.9749982  22.4518910  16.1084345
   0.9168612  21.7036238  30.4716852   0.2344381  21.0735121  30.7029608
   1.5337001  21.6677418  31.2027434  13.3958793  34.5216393  59.6469641
  13.6955035  35.2391863  59.0887690  14.0645170  34.4530940  60.3284788
  57.5438400  68.9356078  23.9801577  57.0172712  68.3527102  23.4331778
  58.1491157  69.3556060  23.3690337  75.7146289  70.0891914  21.7594984
  74.8127677  70.0717224  21.4392260  75.7916143  69.3039026  22.3013762
   9.0484059  59.0867281  25.9084797   8.4903026  59.6042681  26.4889169
   8.5280031  58.3091831  25.7064104  33.5491692   5.1470127  10.8540085
  33.9334523   4.4212523  11.3457707  33.3520399   4.7758141   9.9940184
  44.5304750  13.1493845  58.3235625  43.8226228  13.0051317  58.9515475
  44.1176878  13.0367079  57.4673251  60.1572224  44.5401301  37.1820334
  61.0352298  44.9183871  37.2295550  59.7611304  44.7470905  38.0285052
   3.2536231   5.5231180  45.5915526   3.4306918   5.1482668  44.7287920
   2.3423921   5.8124008  45.5445841  51.9869562  54.4021882   8.1456784
  51.2971779  54.7278847   7.5674418  51.7445656  53.4925403   8.3189419
  51.3021660  23.3143845  29.1026858  50.6277059  23.6107674  29.7138193
  50.9310685  22.5301543  28.6983279  16.7227042  61.6177559  34.3972588
  16.4467156  62.1941996  35.1098394  17.6750779  61.7097902  34.3699360
  12.6520883  18.3009567  15.6879214  11.8095313  17.9751435  16.0044268
  13.2770501  17.6141777  15.9202746  58.5524021  42.4953976  17.8985098
  57.8639789  43.1589928  17.8545073  58.8149671  42.4833336  18.8189200
  67.9435019   7.3059883  54.2240313  67.2487383   7.8482762  53.8505820
  68.4938113   7.0732775  53.4762076   1.4886175   5.4159918   2.2845772
   1.4132606   6.3695708   2.2493914   1.4672982   5.1400748   1.3682535
  74.2501336  38.7591910  61.1985588  74.3441069  39.3464994  60.4485750
  73.9877456  39.3315125  61.9195509  77.5221102  26.3100662  22.9095629
  77.8814285  26.8611851  23.6048296  76.5738146  26.3612213  23.0293539
   3.4047090  28.7445870  32.4125460   3.7291299  29.3783751  31.7727927
   2.4557148  28.8696566  32.4135760  78.5812285  56.4378239  15.8401945
  78.1010320  55.7267226  15.4159621  78.2269957  57.2347786  15.4457167
  13.9625965   1.7800179  23.9580324  14.1578947   0.8885565  24.2468050
  13.6060892   1.6734185  23.0761221  30.5868166  66.7469444  20.1683596
  31.3578644  66.7699565  20.7350901  29.8776769  67.0855846  20.7148722
  18.1538665  55.8966923  61.8209839  18.6024630  56.6497517  62.2055578
  18.3167553  55.9752369  60.8810234   0.4403534  69.5863690  33.2137945
   1.2756958  69.7922649  33.6333636   0.2436533  70.3568162  32.6809195
  66.8666987  31.3809481  36.6132906  67.3327975  31.2908211  37.4444655
  66.9393353  30.5190649  36.2032679  33.7036109  69.2018747  64.5917177
  33.3698702  68.5333204  63.9934826  34.2166877  69.7871923  64.0345955
  50.0441309  67.2335948  11.2733725  50.6620308  66.5454520  11.5201357
  50.5609199  67.8409518  10.7439593   3.7983214  20.5573168  31.2591914
   4.0110408  19.6533671  31.0271147   3.6549937  20.5343094  32.2053221
   3.2081138   0.9007230  28.2491759   3.8858353   1.5453902  28.0458811
   2.4924265   1.1079874  27.6482943  74.9259012  30.6139460  25.3858736
  74.7212593  30.0226584  24.6614912  74.0806787  30.7855501  25.8010653
  22.9023682  30.6088867  38.7513140  22.9215037  30.1856890  37.8929594
  23.0400883  31.5373602  38.5637072  52.3635865  17.4293843  21.0893706
  53.1633052  17.3273411  20.5733565  51.6758020  17.0491448  20.5429247
  24.9512665  18.6921015  33.3520392  25.0808255  17.7437344  33.3454398
  25.8044069  19.0520849  33.1095579  17.9587412  63.6839342  64.4612551
  18.8727856  63.9546299  64.3747663  17.6019681  63.7589216  63.5761976
  10.0259005  34.9175253  34.1203287   9.6206056  34.9998846  34.9835757
   9.5536696  35.5450907  33.5731676  67.4068972  40.7143499  31.1474112
  66.8237301  41.3944210  31.4845351  67.9609438  40.4828198  31.8928412
  70.3383347  48.9770223   8.0143812  71.1237379  49.5082523   7.8833655
  69.6190163  49.5368780   7.7221897  48.1650420   5.3858925  59.0303755
  49.1216203   5.3514553  59.0320921  47.9391118   5.8086754  59.8588991
  76.9416945  17.0318070   3.1242541  76.7712466  16.0986128   2.9964665
  77.2209351  17.3443213   2.2636774  48.7064501  55.8743931   1.9989470
  48.6189076  56.5166892   2.7032355  49.6035739  55.9850206   1.6840485
  49.2827892  46.4218473  50.0618887  48.4456873  45.9701347  50.1688910
  49.4056177  46.8965006  50.8839846  51.2406989  68.1152786  20.4144266
  50.7555052  67.9573979  19.6045569  51.7384812  68.9147820  20.2434328
  54.8779555  55.2601506  11.6438940  54.5565578  54.7445430  12.3835448
  54.8970314  56.1600520  11.9695452  77.6028268  16.0813465  42.0935992
  78.0845945  16.0736885  42.9206923  78.2354204  15.7723561  41.4450720
  12.1116887  20.3794565   1.9326952  11.1994468  20.3781548   1.6427925
  12.3371731  21.3065186   2.0098093  74.6538274   2.0638218  27.5656584
  74.6870963   2.8042069  26.9598940  75.5645673   1.9264808  27.8262785
  65.5850631  38.6531639  47.1832180  64.7832840  38.4644961  46.6955853
  66.2918585  38.4078097  46.5861607  31.1332237  63.8252081   5.7486847
  31.2944850  64.1074552   6.6490010  30.4326575  64.3995156   5.4394797
  49.5465037  62.7895416  19.6992949  50.0954863  62.7867879  20.4834154
  50.1304551  63.0810131  18.9990977  60.9079574  35.3219929   5.5035714
  61.5539496  35.2818527   4.7983673  61.3682775  34.9796572   6.2698248
   0.0465523   4.6123162  11.9977644   0.9512078   4.7751560  11.7307213
  -0.1674999   3.7624397  11.6128996  72.8008616  64.8646688  37.2395182
  73.6215502  65.0437784  36.7805839  72.5947839  65.6836176  37.6901650
  12.2564517  17.5531616  34.3978766  12.2076594  17.7380362  35.3357867
  12.7114807  16.7128411  34.3427447  47.7253103  62.4746895  27.1305776
  47.6359892  62.9210520  27.9726076  48.4038019  61.8161058  27.2793937
  72.3403888   2.2029700  20.9847334  71.6254322   1.5683189  20.9368876
  71.9160883   3.0516949  20.8587721  68.3837716  30.0100365  42.6806811
  68.8825397  29.7721472  41.8990973  67.5991218  29.4633427  42.6396826
  56.9977062  18.7173786  18.8019541  56.6982640  18.0492821  19.4185618
  57.1857490  19.4805088  19.3483141  13.4694517  38.1412005  60.7493162
  12.8810215  37.7244091  60.1198196  13.3552563  39.0795922  60.5989504
  24.9371719  36.3209724  58.8527250  25.2342200  35.6283331  58.2626009
  25.7409143  36.7614317  59.1288185  66.9563624  72.4989380  32.7978972
  66.3684150  72.4708332  33.5527209  67.5222202  71.7345800  32.9064730
  36.0674777  56.0375752  36.2652281  35.8213212  56.5513899  35.4960516
  37.0136496  56.1601915  36.3423994  30.2137261  47.0028837   2.2909334
  29.7192448  46.5110840   2.9465655  30.4322638  46.3555701   1.6205147
   9.8920690  16.7968312   0.5596331  10.6140386  16.1685171   0.5450991
   9.7889649  17.0218506   1.4842776  13.3172356  32.2985592  14.6118811
  13.2010757  31.3501683  14.6693114  13.7808596  32.4334612  13.7853936
  15.8978258  23.7190809  30.7146147  15.8233868  23.3150807  31.5791777
  14.9966894  23.9303246  30.4705599  48.4937696  16.2666788  26.2487677
  48.9699806  16.9119301  25.7261732  47.9789482  15.7738199  25.6097964
  55.3629752  66.2002768  17.4272421  55.0768872  66.7339839  18.1685618
  54.8666164  65.3862776  17.5124625  59.1426419   1.9609323  39.4139555
  59.7129081   1.2868967  39.0442255  59.6755783   2.7560129  39.4065550
  55.4290487  24.5988407  54.8586729  54.7561906  24.8385134  54.2214564
  55.3443597  25.2517691  55.5534724   9.8469317  24.1959667  59.8330498
   9.7026527  23.3029914  59.5199823  10.2878284  24.0861058  60.6755257
  23.1126642  35.2458668  60.3597689  22.2411036  35.4301572  60.0095558
  23.7136173  35.5608320  59.6845770  33.5106182  59.7289371  23.7336254
  34.0671134  60.4701328  23.4945059  32.6655078  59.9234152  23.3284092
   9.1261643  43.9661837  35.6291008   8.3040726  43.9434004  36.1188745
   9.7523290  44.3688631  36.2307644  34.2875650  74.2032160  10.7777909
  34.8016050  74.3735661  11.5670756  33.6176582  73.5796537  11.0581950
  11.7355919  71.6263771  61.7470264  11.3224268  71.3196754  62.5541592
  12.6618612  71.7159319  61.9711637  62.6395355  25.3026524   7.7336768
  61.8345134  24.8427382   7.9716948  63.2972710  24.6112385   7.6590756
  21.8776929  52.0802416   3.1425789  22.2464284  52.6557519   2.4724654
  22.2935569  52.3635484   3.9568451  28.3762442  20.3499069  38.6478403
  28.4029661  20.4134026  39.6025542  27.7218281  20.9963169  38.3830241
  45.7393213  70.6824054  28.1328371  45.0961550  70.9299173  28.7971476
  45.9970196  71.5108790  27.7285460  49.0869304  51.3790609   6.7514828
  48.2055756  51.3627769   7.1245459  48.9459797  51.4363600   5.8064535
  14.6491896  25.2737513  33.8276175  14.7946917  25.8387175  33.0687502
  13.7236821  25.3927937  34.0409067   4.8334989  64.0049171  41.8913460
   4.6999720  64.9511003  41.8353510   4.8371094  63.7092543  40.9809589
  43.9030489   4.6343733  52.9952669  44.6056696   4.1916443  53.4712362
  43.9047845   5.5268742  53.3411980  74.2621414  54.2349282  37.3655585
  73.5592334  53.7307587  37.7753905  74.7266261  53.5993901  36.8209723
  54.1622921  73.6085428   2.0699194  54.6963402  73.6967482   2.8593806
  53.9994904  74.5090069   1.7890433  78.9359991  11.2962618  17.1788767
  79.7642653  11.7278233  17.3885516  79.1534774  10.6928101  16.4683989
  68.0976456  17.3613310  49.4993162  68.8608104  17.0335805  49.9751234
  67.3733026  17.2736573  50.1188946  20.2536618  25.2041521  19.6638468
  21.1479317  25.3096476  19.9884775  19.7825848  24.7933712  20.3888205
  56.8549486  71.3811721   8.3145407  56.9930526  72.0633282   7.6574066
  57.4671169  70.6867255   8.0711821  58.0862518  52.6865424   0.5526284
  58.5330363  51.8408741   0.5144385  58.7044235  53.3020319   0.1585892
   6.5993142  58.9109278  50.1544666   5.9646297  59.4936275  50.5714417
   7.4371451  59.3647289  50.2457619  38.9040677   8.5428610  52.5194147
  39.4478409   9.1908636  52.0714930  38.5700624   7.9842081  51.8175772
  61.3888093  63.5204782  23.3815363  60.9389802  64.3508996  23.2256964
  61.4388629  63.4504213  24.3348578  43.8280984  64.6461715   5.2721861
  44.4627210  64.3383922   5.9193018  42.9869660  64.6150412   5.7279948
  72.6999125  72.9440162  57.8539085  72.1288369  72.8603031  58.6175156
  72.1785161  73.4330740  57.2173548  40.5594298  62.9600586  33.5709360
  40.5586203  63.7794103  33.0760744  41.1883720  62.4035014  33.1116942
  75.7575175  42.0326519  63.9087486  76.3730716  41.3264990  63.7120867
  76.0983553  42.7878904  63.4295082   7.5142109  20.9759927  63.2895088
   7.5050771  20.5678129  64.1552687   7.9030186  20.3146958  62.7170181
  16.9244753  23.3694020  23.5523394  16.7258250  23.8628092  24.3481520
  17.3741375  22.5838032  23.8635710  25.4309750  58.7979078  60.5185175
  26.3655758  58.7538481  60.7205391  25.0500822  58.0528307  60.9832907
   0.1636402  51.0359287  39.0098834  -0.5390185  51.3678741  39.5687342
   0.7174066  50.5244160  39.5997381  68.5240742  61.4534296   9.4635704
  68.6930891  60.9009494   8.7003973  68.5759064  60.8548893  10.2087525
  44.6331032  73.2638277  26.3786200  45.2100381  73.6665596  27.0276049
  45.1861461  73.1471624  25.6061152  37.3941299   3.8579346  28.0908036
  38.2963391   3.8362385  27.7717781  37.4148806   3.3511520  28.9025760
  10.3195059  19.1912067  56.2826777  10.8775258  19.8987305  56.6055632
   9.7974670  18.9323413  57.0420837  68.8823753  16.1417949  28.0360365
  69.1846567  16.0055017  28.9339685  68.2164412  16.8255246  28.1086779
  47.8254198  19.1098824  39.6907881  47.7475284  18.3661976  40.2883700
  48.6956425  19.4679203  39.8661497  49.3637892  61.2298526  22.6472262
  48.8923832  61.8754257  23.1737593  50.2409979  61.5989269  22.5446585
  11.1970626  21.5280857   4.6332911  10.4182969  21.2600746   5.1210669
  11.5807782  20.7071915   4.3248633  55.3523346  27.0106388  45.0111771
  55.4734727  26.2303806  44.4701099  55.0764748  26.6712166  45.8626032
  55.8470821  45.6096077  58.1370831  56.0456228  45.8657122  57.2364044
  56.7039919  45.4900503  58.5465240  62.1974751  20.6898857  62.3811769
  61.4953872  20.7632233  61.7347097  61.9122502  19.9877811  62.9659271
   4.5840322  39.3234101  26.8932226   4.0916883  38.5058823  26.8191889
   4.1488062  39.9210110  26.2852076  39.3984731   1.9555641  62.1354723
  39.2517158   2.4142386  61.3082409  38.8894983   1.1488415  62.0556068
  22.8811669  59.7738838  59.8198318  23.7320423  59.3927288  60.0365353
  22.7588964  59.5746851  58.8916063  42.3304367  62.6866865  44.1296768
  41.9830418  62.3422623  44.9524307  42.9210091  62.0027018  43.8140488
  75.8481161   6.8962898  36.3003043  76.5906517   6.5867701  35.7815722
  75.5083411   7.6445093  35.8094385  55.2905985  59.5592584  33.4375075
  55.2512094  60.4045953  33.8848189  54.4900819  59.5279469  32.9136542
  22.4117695  11.4533749  19.9265936  22.7741658  12.0136252  19.2402819
  21.8543516  12.0362559  20.4421213  40.2706671  74.4831753  49.3348169
  39.7607780  74.6951294  48.5529470  41.1051130  74.9341297  49.2061138
   5.9749495   5.4791584   3.6264065   6.4804231   6.0172167   3.0171278
   5.2972876   6.0672369   3.9598254  16.8807160  47.9302159  13.7866858
  17.3204075  48.6545887  14.2318610  15.9804617  47.9612007  14.1104391
  18.3220516   9.5773783  21.2408236  18.0704294   9.6626940  22.1604040
  17.9010569   8.7679091  20.9514120  71.8507080   4.0293350  34.6577528
  72.5760500   4.6473351  34.5672491  71.8447964   3.8014403  35.5874041
  21.9173132  14.3786993  40.2298525  20.9761463  14.5530596  40.2361563
  22.2360979  14.7549429  41.0502508  77.3880236  29.5243969  27.1204451
  77.9876654  29.4116488  27.8579691  77.8398530  30.1323023  26.5351752
  16.6900717  17.4553099   6.6827324  16.5326487  17.6813832   7.5994328
  16.2230288  16.6294375   6.5561083  52.3168111   8.5710182   5.9427574
  53.2706954   8.5778561   5.8634451  52.0164576   8.0790034   5.1785973
   3.3285772  58.5349694   1.0647562   3.7284457  57.8371659   1.5838030
   2.5903307  58.8349381   1.5950850  68.1728952  11.7229071  61.9549635
  67.6917605  11.5578928  61.1440924  67.5651853  12.2275200  62.4955920
  79.7205090  49.6782064  55.6954622  79.3672443  49.6130705  56.5827036
  79.7793688  48.7716436  55.3939486  11.2088071  14.1823092   0.4391173
  11.5722095  13.7808886  -0.3502056  10.4963790  13.5980931   0.6986788
  76.9401638  25.2051153  12.9791287  77.6635210  24.7142353  12.5892285
  76.7184202  24.7160282  13.7715033  31.6838299  57.1334400   9.6324757
  31.9953619  56.4128914   9.0847615  31.6902672  56.7786541  10.5214718
  73.1952886  36.2726202  14.0854386  72.7586036  36.7975130  13.4146002
  72.8931408  36.6438761  14.9143580  54.2970090   8.3462420   8.8459805
  54.0208317   8.4591379   9.7554949  54.0010720   7.4661865   8.6132840
  66.0899048  23.3340254   4.4535712  65.6393890  23.3075848   3.6094359
  67.0201652  23.3449497   4.2283419   1.9098163  34.2484379  47.8317690
   2.8074345  34.2113614  47.5014067   1.8719935  35.0639915  48.3314419
  77.6438539  31.6541567   7.2619847  77.2377913  30.8930531   6.8471793
  77.2153489  31.7188397   8.1154707  75.9430640  10.2711621   0.0588873
  75.7180516   9.6013203   0.7045773  76.8710916  10.1249399  -0.1244661
  28.9588677   8.9510479  39.4139555  29.2339789   9.0312615  38.5006598
  29.6075140   9.4556847  39.9046973  61.0519843  15.6746092  20.1157931
  61.5589587  15.8228865  20.9140566  60.6184940  16.5114584  19.9484614
  12.4539816  49.4314480  58.0852795  11.6986382  49.3185949  57.5082636
  13.0000138  48.6632586  57.9180670  74.6838038  20.8585682  15.8760432
  75.5739968  20.9024468  16.2251356  74.1328566  21.1973992  16.5816572
  11.9621812  33.0729428  28.2013491  12.5187432  32.6520720  27.5461081
  12.1384393  32.5919237  29.0099123  10.2439390  62.6942005  14.7193888
   9.7600757  62.4792233  13.9219645   9.8240291  63.4894314  15.0473002
  19.3050995  43.0890669  29.5723418  18.9727059  43.7581588  28.9739588
  18.8869896  43.2879461  30.4101065   2.1347033  22.4073687  20.2152232
   1.5972863  21.8892660  19.6160773   2.6602303  22.9664889  19.6430090
  33.6832833  71.4119196  62.6498890  32.9960537  71.9786215  63.0003166
  33.7431574  71.6517925  61.7251682  59.5355336  64.0151539  13.5866097
  60.1921545  63.8031330  14.2500332  59.3511294  63.1800499  13.1566742
  34.2283665  12.6374617  40.8188322  33.3510052  12.7770128  40.4624728
  34.4217478  13.4414711  41.3009241  66.1074726  35.5163183   2.5946835
  66.6097836  36.2751856   2.2979763  65.8788507  35.7201138   3.5015658
  16.7467722  29.0870334  23.8683108  16.5206286  28.7998487  22.9836539
  17.4374213  28.4853722  24.1462305  72.7917914  15.8895006   0.9268406
  71.8808429  16.0807600   1.1500576  72.7659254  15.6482735   0.0008992
  57.3590799  46.6025044  37.5935817  57.0162173  46.3068844  36.7502046
  56.9103094  47.4320293  37.7570939  37.3710819  54.3202306   6.9911125
  37.6735028  54.7632803   7.7838829  36.5805992  54.7965957   6.7372492
  56.4484310  39.7380447  63.3229065  55.5767965  39.6910357  63.7156916
  56.4180660  40.5151463  62.7648592  22.3780680  63.1196070  60.5990839
  22.3182416  64.0699100  60.5011988  23.3065033  62.9238176  60.4729700
  36.9172888  18.5860434  29.1586665  37.7443735  18.2699385  28.7950209
  36.9223277  18.2808342  30.0658968  45.6920624  72.5116682  52.8799582
  44.7412539  72.4271345  52.9510212  45.9487581  71.8219233  52.2679186
   4.6002399  13.3621016  11.7644909   5.0858914  12.5462141  11.8857220
   5.1504170  14.0311184  12.1718720  73.7228410  31.2199440  38.8471964
  74.2878215  31.5752592  39.5333269  74.0019672  30.3090039  38.7549570
  72.1796863  16.8381586  30.0825861  72.1817617  17.7868834  30.2096918
  71.3914411  16.5376368  30.5348948  75.9532540  26.8032112  35.8897665
  75.2967565  26.1551037  36.1451128  75.4457133  27.5843849  35.6697634
   1.6730748  30.5610266  13.8723687   1.1054646  30.8373966  14.5918635
   1.7346154  31.3306942  13.3066347  21.6115992  18.3498564  29.7197703
  22.0133011  18.9475956  29.0892294  22.0694988  17.5196686  29.5880774
  64.7010756  67.1480274  58.6210060  65.3573990  67.4777365  58.0071974
  64.5546865  66.2414360  58.3510065  25.9754883  31.5796986   0.2648094
  26.7579924  31.6830673   0.8063153  26.2951742  31.6527119  -0.6344721
  75.6095916  57.4257994  41.9779539  75.4579699  57.8875542  41.1533165
  75.3106865  56.5320253  41.8104601  77.5161688  30.5032768  40.9921244
  76.6464274  30.1040211  41.0115221  78.0963676  29.8309412  41.3492850
   7.2026812  38.6440411  26.8127898   6.3404118  39.0595045  26.8022517
   7.7796470  39.2996254  27.2046450   9.0622282  40.5986118  50.1701355
   8.8547808  40.7162762  49.2431211  10.0154698  40.6738758  50.2136803
  46.9761273  74.7215857  24.9068907  47.7819630  74.4011249  25.3120688
  47.2544237  75.0616087  24.0564993  -0.1533450  28.9959660  12.2932986
   0.4054986  28.5165920  11.6816405   0.4269778  29.2240992  13.0195311
  71.1489551  30.5748930   9.3222407  71.9267623  31.0815706   9.5557431
  71.2192242  29.7746697   9.8427561  58.4526321   9.3945862  18.5425019
  58.2522460   9.3918015  17.6065159  58.8671561   8.5465218  18.7012172
  53.2274624  52.6130106  17.2764757  52.5290295  52.8735115  16.6760042
  53.1093570  51.6694977  17.3863295  73.9664167  74.3868017  61.3094330
  73.7092727  74.9667406  62.0262146  74.9226492  74.4285107  61.2988853
  12.9110355  72.6054053   6.1654526  12.0023353  72.5546078   5.8689458
  12.8489025  72.8655962   7.0845086  70.6017928  24.7479000   7.7277926
  70.0204377  25.0718870   7.0398310  70.4453234  25.3331604   8.4688834
  11.9374477  29.2658606  32.2195891  12.2514569  29.8412934  31.5220908
  12.2244822  29.6906271  33.0279330  37.7350780  19.6360756  43.7573624
  38.5817584  19.9925877  43.4885454  37.9535624  18.9483048  44.3862247
  43.6368071  12.9177275  27.7986792  42.9558979  12.3325005  28.1305006
  44.3501555  12.8385964  28.4320143  65.1923796   0.7849241  64.9161816
  64.7555109   0.2451826  64.2573500  65.8921620   1.2284494  64.4367886
  72.6912324  17.0985737  33.9811209  73.5722034  17.1532145  34.3514422
  72.4907343  17.9934874  33.7069586  52.4697113  64.5139933  54.9775648
  52.8484869  64.4714308  54.0995264  51.5737057  64.1957140  54.8675728
  12.8709112  23.0544176   1.7635229  12.1481739  23.1196633   1.1393240
  13.0310928  23.9568176   2.0396641  74.1295397  73.5735750  54.7192383
  73.2237237  73.5632706  55.0284672  74.3077570  72.6668262  54.4696760
  20.9664216  53.5760881  12.1861819  21.3399764  52.6989855  12.1002796
  21.6810148  54.1074313  12.5372675  71.5487282  18.5724917   0.2163151
  71.3159482  18.7187376   1.1331871  71.2307124  17.6898852   0.0263098
  66.0383563  14.9192419   4.4436863  66.0630100  15.0526419   5.3912237
  66.9482796  14.7457781   4.2024782  78.2121103   9.0143814  13.3504656
  77.6763479   9.4132509  14.0361002  78.7574022   9.7307863  13.0254200
  47.8948973  17.1029320   8.3949831  48.1365709  17.6897278   9.1115645
  48.5421361  17.2794333   7.7122238  73.9949767  29.1626444  10.5009678
  73.4211628  28.3966532  10.4858998  74.8713224  28.8084307  10.3500202
  13.2064472  43.1602040   6.2726906  13.7186180  43.6569252   6.9107989
  12.7362238  43.8268032   5.7719305   3.0475532  31.9514933  53.3877447
   3.3022605  31.9986620  54.3092326   2.2688614  31.3948527  53.3826807
  76.2678807  59.3242207   9.9117735  75.6716864  58.5757580   9.8875359
  75.9460799  59.9090805   9.2257574   4.4261255   9.6890713  60.5421543
   4.8313990   9.2486073  59.7951746   3.8561955  10.3505016  60.1498318
  40.2904259   8.8654413   8.2036045  40.3423582   8.9801922   9.1524819
  40.8292042   8.0945244   8.0257347  11.9349280  44.8358055   4.6323422
  11.7862215  44.0007742   4.1886738  12.2908011  45.4081352   3.9526203
  58.4709339  38.2268658  28.1382922  58.5291986  37.6464882  27.3793391
  57.7486824  38.8199654  27.9313639   2.0926439  43.5167446  18.2341364
   1.8394028  43.0619564  19.0374258   1.4359080  44.2055264  18.1316546
   9.7151542  43.6344385  54.6196985   9.8360431  42.7289057  54.3340063
   8.9065272  43.6181498  55.1316404  44.7489882  50.7884836  64.7877789
  44.5174980  51.6473579  64.4342661  44.1032934  50.6310558  65.4766369
  67.2490593   4.1536070  34.4853544  67.8402706   3.7401653  33.8562536
  67.5372358   3.8246275  35.3368020   8.7412106  12.4084606  17.2698096
   9.2006313  11.8925944  17.9324129   9.0531694  12.0586910  16.4352015
  62.6496933  34.7748795  19.9691084  61.8756102  34.6598282  19.4179419
  62.3909234  35.4367867  20.6103209  59.3957572  12.8346386  38.8087157
  58.7120204  12.6719132  39.4585303  60.2100097  12.8316632  39.3119219
  23.3976589  22.0689192   8.3990076  23.9440094  22.4838629   9.0664986
  22.5200783  22.4166241   8.5577038  66.0361767  68.3494616  35.7643676
  66.4066410  68.0651236  34.9288201  65.3573799  68.9798069  35.5232787
  78.3659832  25.5603447   4.0343264  78.0564897  25.4679718   4.9353865
  79.2938130  25.3285589   4.0748146  17.4857889  29.1109267  53.6665800
  18.3249842  29.1936913  54.1194990  17.6965510  29.2535582  52.7438334
  46.3334247  69.0092243  26.2160853  46.2517329  69.3746008  27.0970229
  47.2105642  69.2652883  25.9309748  15.2824818  29.7756758  26.6910342
  15.6600033  30.5564966  26.2860373  15.1338421  29.1750946  25.9606627
   8.8536369  46.3111439  14.2012432   8.2911121  45.9319439  13.5259655
   9.4998490  45.6294003  14.3852690  16.9622074  29.5257750  20.8062819
  17.8546559  29.4342652  20.4725245  16.5287195  28.7092962  20.5579356
  43.9730072  74.9781179  51.1453724  43.7800884  74.0664244  50.9266710
  43.4447432  75.4885817  50.5316973  73.7481110  23.2605877  11.8022469
  73.7200658  23.6929360  12.6557806  72.8539674  23.3319559  11.4681128
  21.5817730   3.3468571  26.8635920  21.5862362   4.2876568  27.0399741
  22.0544855   2.9625168  27.6018694  42.6195288   4.6464777  27.7796412
  43.3627748   4.9213707  28.3165359  43.0160952   4.1925251  27.0360732
  34.6307659  30.9238815  43.6926556  34.8712516  30.2537060  44.3323946
  35.4599667  31.1751771  43.2858324  69.9560499  29.3946791  64.7938251
  69.6956378  30.2590108  64.4754744  70.0167191  28.8569093  64.0042973
  20.6199928  56.8481411   6.7422179  19.6981313  56.6663756   6.9248751
  20.6861832  57.8026165   6.7709473   2.6660901  22.5034451  64.1652632
   2.5929561  23.3852267  63.8000965   3.5089082  22.5012565  64.6190071
  17.3996437  47.3559046  60.0512457  17.1514285  47.7693939  59.2244196
  18.3363116  47.1811247  59.9599314  34.5396306  26.0692920   4.7373322
  34.4231930  26.1331107   5.6852749  33.6703905  26.2446393   4.3769053
  77.5922425  36.6714835  44.4073009  76.9163882  37.2445774  44.7692680
  77.1051186  35.9795856  43.9598417  63.5716526  21.8591013  38.3948496
  62.7002429  21.5210238  38.1884936  64.1721849  21.2600985  37.9512385
   8.1691885  37.4979925  41.1022234   7.2954720  37.3121214  41.4461756
   8.6670226  36.6973448  41.2676191  12.9666146  65.4097547   2.8796891
  13.5360583  65.6080760   2.1362952  12.9482456  66.2193670   3.3900050
  76.6622600  60.3483807  37.1847820  75.8852277  59.9698972  36.7734385
  76.8918667  61.0905181  36.6255450  65.9701341  37.3671126  50.8087635
  65.0493747  37.1114039  50.8639622  66.4404708  36.5429640  50.6830931
  13.6811888  27.8348947  25.2328634  12.8423572  27.8864861  25.6910443
  13.4811485  28.1031346  24.3360567  36.5037399   9.6836871  61.8566942
  36.8288570   9.0357661  62.4817753  37.0715767  10.4439139  61.9825840
  78.8924410  43.5621728  27.1350458  79.1514780  42.9333176  27.8085974
  78.7316396  43.0276419  26.3574484   5.5822909   9.8136002  65.1772451
   6.0262424  10.0296485  64.3572044   4.6759272  10.0883591  65.0385189
  27.3849750  32.0660305  61.9748449  28.3232760  32.2549725  61.9637156
  27.3029876  31.2324977  61.5114546  49.5714239  72.8657626  43.6719275
  49.2831997  71.9673239  43.5107851  50.3436366  72.7731319  44.2299032
   3.4206888   4.7964442  28.6517954   4.0936378   5.4688597  28.5458302
   3.5661969   4.4485131  29.5315695  56.3718482  60.3745569  11.5031126
  55.6636282  59.7310533  11.5267256  56.0250374  61.1299338  11.9778374
  23.6919546  15.9774888  14.9391818  24.1079259  16.6492856  14.3989146
  24.4172001  15.5631256  15.4066801  54.6355413   1.6056361   8.4455946
  53.9469849   1.0034409   8.7275198  54.6111135   2.3149576   9.0878561
  59.3351032  58.3806242  49.1798476  59.1849377  57.4359132  49.1451720
  59.5769741  58.5514464  50.0900915   7.0915663  22.4593091  52.1715784
   6.8563575  21.7093253  52.7178717   8.0486906  22.4694967  52.1779919
  30.2636790  44.6026850  61.8416691  30.1907945  45.4802418  61.4664221
  29.9180317  44.6924782  62.7297544  71.5734875  24.3089294  41.4356041
  70.9138393  23.6169672  41.4833879  71.9310796  24.3605709  42.3219967
  57.1046897  69.9609770   0.1999644  56.9857474  70.8859982   0.4154232
  57.7385446  69.9616994  -0.5172941  79.1496718  62.6474667  63.9655924
  79.8951410  63.2163095  63.7734318  79.2127455  61.9436598  63.3199120
  22.8605437  37.9500794  64.4278336  23.0885649  37.8134584  65.3473854
  21.9255018  37.7507997  64.3807697  53.2939335  54.9406339  38.6548880
  53.5098859  55.8721079  38.6106852  54.0539499  54.5002557  38.2745245
  53.5069748  50.1169063  14.7751740  53.9088627  49.2491020  14.8156145
  54.0052982  50.6410875  15.4021815  44.1895720  71.3876189  35.0612238
  44.6271571  71.2201537  34.2265395  43.3555504  71.7894854  34.8180273
  19.6401628  54.0825547   0.8026102  18.9164456  53.5078778   0.5531863
  19.8128363  54.6042110   0.0188425  40.5697747  35.6375116   3.3018092
  41.0078057  35.8350295   4.1296652  41.2814864  35.5629377   2.6660946
  49.7378481  63.4249543  54.6263027  49.5742992  63.6222409  53.7040424
  48.8820950  63.1718408  54.9724960  64.5559244  33.1349125   2.7888373
  65.0943188  33.8118448   2.3788050  65.0515108  32.8718081   3.5643366
  74.4189974  45.6752296  19.3333319  75.2890011  45.6111409  19.7273043
  74.5862623  45.9065367  18.4196833   9.4492429  64.2542839  60.3447676
   9.8165137  64.1624737  61.2239265   9.7487503  63.4744596  59.8774385
  28.1128455  53.1534709  27.7297571  27.7902129  52.6934995  26.9548014
  27.3273550  53.3312537  28.2470873  31.8423124  64.4107117   8.3359555
  32.2748914  63.5997071   8.6031226  31.0278889  64.4246139   8.8387039
  36.1320695  18.1197943  13.5615280  36.2636700  18.0196549  14.5043352
  36.2631574  19.0539922  13.3992890  69.7511583  41.0138226  48.6450243
  70.1610124  40.5033588  49.3433619  70.4519993  41.5775156  48.3174467
   8.6471029  55.9420993  27.1186522   8.1103178  55.4880430  26.4690855
   8.6877819  55.3381540  27.8601530  40.9127589  59.9560513   6.8198851
  40.5847152  59.0568651   6.8290833  41.8371400  59.8713912   6.5862587
  21.7941999  33.6251593  21.0995698  21.4671516  33.3410358  21.9531178
  21.8608880  32.8188133  20.5881119  35.0165334  44.6835490   9.9300173
  35.7001969  44.0161421   9.8716811  34.3768903  44.3183972  10.5413702
  78.5497944   4.0347606  48.1798410  78.1929718   3.8928610  47.3030424
  78.0128401   4.7374374  48.5461140  20.4431510  47.9756594  27.2851539
  20.1288056  48.5767984  27.9604673  21.3714623  48.1881523  27.1886253
  22.4968370  70.6753339  22.6900175  22.0799600  70.7484187  21.8314722
  23.0734675  69.9152698  22.6123598  17.8442236  50.6356944  21.5319517
  17.4453428  50.4867830  20.6746558  17.1016862  50.7533910  22.1244124
  56.4295670  70.7637347  12.9571608  56.9128510  69.9882592  12.6720122
  56.5409633  71.3913669  12.2430876   5.5529606   2.0880717  58.9593077
   5.4731756   2.3786643  58.0507803   4.7679448   1.5621932  59.1123867
  37.7282413  66.0139431   0.8214501  37.2365304  66.2305631   1.6136149
  38.2466658  66.7977537   0.6394986  23.1509423  27.0277883   2.7466658
  23.6732646  26.6460170   2.0412138  22.7450522  27.8001930   2.3531226
  47.6670514   6.1554566  16.2384775  46.9987385   6.6781607  16.6816119
  47.3769789   5.2502766  16.3513640  15.2744281  16.0253739  55.1018000
  15.8261633  16.4017761  55.7874727  15.4984629  16.5217960  54.3146515
  26.0264167  50.7797040  39.5994261  25.2484598  51.2699939  39.3336562
  25.7011674  49.9002208  39.7916582  77.3344668  47.8011942  50.0144386
  77.0738345  48.2744980  49.2243195  77.0651293  48.3710623  50.7348108
  52.5507733  57.3309375   5.8514384  52.1126338  56.7528488   5.2268723
  53.4834167  57.1550562   5.7270411  47.7480249  12.2442570   4.0810469
  46.8535350  12.4365177   4.3623951  48.2298969  12.1015682   4.8957089
  70.3090279   8.7205353   1.3451269  69.3904714   8.9871969   1.3079956
  70.7781486   9.4116678   0.8776930  63.4096127  36.5410399  51.4313316
  63.6504942  35.7019448  51.8239212  62.5326282  36.7209935  51.7700720
  56.2852294  69.9305933  34.4574666  56.2986160  69.9569898  33.5007238
  56.7783574  70.7060130  34.7253871   9.2449319  20.5638170  48.7657595
   9.2906040  20.4286718  49.7122669  10.0849497  20.2433681  48.4372520
  61.0825539  26.8309927  55.5615616  60.4788733  27.1684957  54.8998260
  60.8560896  25.9044576  55.6420517  19.8695195  18.4016180  43.1122017
  19.2816174  17.6587272  43.2490110  20.7392526  18.0085468  43.0394602
   1.7560481   8.5013378  43.2462025   1.9413289   9.3130565  42.7739573
   2.3857640   7.8713173  42.8958273  21.5366030  20.5790806  47.7546787
  22.1667862  21.0609937  48.2902765  21.0866046  21.2550306  47.2479010
  37.0928407  24.3382502  53.1427240  37.4269772  23.6307502  53.6941099
  37.8218794  24.5531321  52.5608635  37.8609034  58.5885300   3.8738182
  38.0020257  57.6866044   3.5859850  38.6032661  59.0737881   3.5137442
  33.6386395  23.3900642  49.7096825  34.2403173  22.9168153  50.2843571
  33.8861537  23.1166005  48.8263988   5.6086817  35.1733270  26.0570792
   5.4062023  35.0602017  25.1284006   4.8584309  34.7929289  26.5138605
   3.8936496  45.8739471  23.4993362   3.8286388  45.4803514  24.3694448
   4.0776867  46.7980909  23.6676359  17.5585403  30.3690435  32.9740313
  17.7959993  29.8759397  33.7593344  17.9917964  31.2156351  33.0826739
  78.2535846  34.8149109  35.0825644  79.0067834  34.3794107  34.6834850
  78.4506246  34.8237967  36.0192227  29.3658662  22.6541877  53.4023762
  29.4789362  22.8236198  52.4670982  29.2160654  21.7104435  53.4584236
  25.0882524  56.5311743  34.5740870  24.6650117  57.2930505  34.1783026
  25.9959459  56.5785934  34.2739657  56.7253491  72.6831712   0.9851530
  57.3144289  73.1394471   1.5860108  55.8850881  72.6624121   1.4431504
  21.2633681  35.7289886  50.2236748  20.8820701  35.1415181  50.8761501
  21.7106915  35.1467967  49.6095228  79.2531598  60.9802628  61.8124056
  79.2961201  60.6457615  60.9165859  80.1623359  60.9806395  62.1117878
  53.8275262  74.3431057  18.6395338  52.8958985  74.5373191  18.7424067
  54.2562529  74.8565640  19.3242148  23.1673217  31.3324499  64.7478199
  23.6351371  31.2367702  65.5774164  23.2385206  30.4731321  64.3322086
  25.6579685  21.4590573  49.1090918  25.7112217  21.6868877  48.1809235
  26.0995841  22.1797442  49.5583344  15.1207009  58.8911547  19.4844797
  15.0574150  58.9986958  18.5354498  16.0610380  58.8914694  19.6633795
  61.8298708  28.6798611  19.3283060  62.5380729  29.0967264  18.8374880
  62.2641806  28.0025330  19.8467997  62.7658006  19.5422746   3.6063984
  62.4609443  18.7999465   4.1281679  62.1733924  19.5662071   2.8549269
  24.6429181  18.3251798  48.6192942  25.4786110  18.4221399  49.0758562
  24.8482966  18.5078812  47.7024126  66.1767046   5.6013098   9.7547987
  66.5463786   5.0807181   9.0416649  65.7940130   6.3640061   9.3211296
  26.8290973  34.4882035  47.3612261  27.7150893  34.2242861  47.6094103
  26.4701271  33.7254381  46.9078350  75.6066659  34.1130400  43.3967161
  75.1178342  34.8897505  43.6687374  75.5453557  33.5176682  44.1437149
   9.7768569  48.9673233  53.6432123  10.6559646  49.2695093  53.4149885
   9.8938048  48.4878492  54.4633675   7.7423304  36.0691953  31.6754794
   6.7857289  36.1021876  31.6679597   8.0070150  36.8895793  32.0915866
  50.6162377  54.5544185  23.9154509  49.7838398  54.0871360  23.9861277
  51.2568113  53.9639200  24.3119505  44.0430300  12.3334971   4.1050843
  44.5513468  12.5598231   4.8839453  43.8822542  13.1718626   3.6720446
  16.3283420  40.4123449  49.4534588  16.7035902  40.2590036  50.3205824
  16.8115938  39.8218536  48.8755178   8.5711771  15.4388750  63.6246729
   7.7131343  15.8609605  63.6675358   8.7224299  15.1130927  64.5119286
  29.5639738  29.7410597  50.8798102  28.6433335  29.9969031  50.9363631
  29.6782344  29.4565465  49.9730376  56.3398644  59.8442044   5.9957579
  55.3854843  59.8683633   6.0650853  56.5765782  58.9544572   6.2575701
  59.3827978  73.3943946  60.2283144  60.3232298  73.5085875  60.3653479
  59.3060950  72.5488247  59.7863197   4.3643662   8.5799944  56.5849829
   3.5793447   9.0350091  56.2801313   5.0790811   9.1923636  56.4105749
  69.1394227  24.4092774  44.5189667  69.0944117  25.3613162  44.4304943
  69.9357742  24.2532945  45.0266314  32.6642992  72.0973100  12.7359274
  31.7785057  72.1056236  13.0986050  32.8554966  71.1705054  12.5920132
  40.4946618   8.7462368  26.9045904  40.1802914   7.8817930  27.1694353
  39.7017400   9.2271748  26.6675165  62.7347585  52.6362659  11.8207768
  63.4727760  52.5630392  12.4259213  62.3577043  53.4963884  12.0058468
  20.8834314  42.1294212  56.3793373  21.6709971  42.5144672  55.9950113
  20.3296089  41.9169474  55.6280947  18.8275888  63.7979783   2.5142315
  19.3582793  64.5742454   2.3353222  17.9643782  64.1447438   2.7397374
   4.8669109  58.7758732  22.6585555   5.6101096  58.6704588  22.0646071
   4.1809273  59.1661263  22.1169281  75.3236136   4.3882194  26.0428572
  76.0782945   4.9753633  26.0870218  75.0248667   4.4499898  25.1355720
  78.7473546   4.1051671  53.4586668  78.5620105   5.0409335  53.5375357
  78.3889001   3.7217075  54.2591047  28.2508279  52.7866699  22.4782637
  29.0513261  52.9820575  21.9911650  27.5745458  52.7070047  21.8055609
  33.8515386  71.9320022  55.9323597  33.0786381  72.1546509  55.4134321
  34.5913443  72.1994393  55.3870153  17.6799083  21.7720222  56.2333965
  17.2932696  22.5931382  55.9292459  17.5582695  21.7871833  57.1827173
  12.3445805  59.3452658  15.3802279  12.3822459  58.9981212  14.4889859
  12.4723693  58.5800685  15.9409121  35.3509327  55.4722347   5.2898482
  35.2802768  55.4137255   4.3370560  34.4654539  55.6873311   5.5829218
  30.0306535   1.9040596  48.5685015  29.5388079   1.1362971  48.2771969
  30.9087229   1.5703407  48.7525129  10.5139196  28.1746221  47.5973845
  11.0270858  27.6348495  48.1986666  10.4594696  27.6545167  46.7956638
  38.2557390  69.6956264  47.5821924  38.1769571  68.9371799  48.1607962
  38.5849652  70.3946873  48.1471300  22.7999759  23.3809495  32.7213836
  22.3163390  24.0020490  33.2659602  22.1664405  23.0958486  32.0629168
  15.9567312  52.3080920  36.6452742  15.3034738  51.6132711  36.7272162
  15.9956459  52.7041291  37.5158310  36.5467048  20.1071143  10.8805108
  36.0048079  20.4623151  11.5850782  36.0063314  19.4237137  10.4840362
  54.5502373  44.2645253  15.7114008  53.7750431  44.5096173  16.2166098
  54.3582817  44.5579346  14.8207262  76.9910189  72.9115357   7.7068404
  76.1115452  72.7428998   8.0449465  76.8542572  73.5070719   6.9700507
  76.4863452  44.0397692  59.6867609  76.3912567  43.7977505  58.7655544
  77.1876856  43.4751034  60.0115824  10.7967257  21.0107684  65.3342724
  11.1160219  20.7604051  64.4673204  11.2673998  21.8187904  65.5387163
  50.2824248   6.8615666  46.2602499  49.7220554   6.0862675  46.2266424
  49.7275503   7.5417843  46.6418913  62.1833353  22.5598278  35.4313925
  62.7980612  22.6700869  36.1567763  62.7375935  22.5168076  34.6521738
  40.1407715  49.6878483   1.8464735  39.5299288  49.3609466   2.5069598
  40.1560148  49.0052463   1.1756161  71.4599653  60.9586443  18.6708239
  70.6723162  61.4806594  18.8236121  71.4052149  60.2493991  19.3113020
  54.5814034  55.6311192  15.5555418  54.9069806  54.9741627  14.9402121
  55.0853177  56.4193751  15.3531721  28.4646726  11.1901236  49.1346931
  27.9407096  11.7440712  48.5560417  28.2164478  10.2960265  48.8997316
  51.5686461  31.0084649   5.4268483  52.3290249  30.8190699   5.9765604
  51.1297556  31.7360522   5.8675555   9.8368430  28.7151289  62.8175831
  10.7607996  28.6183929  62.5869799   9.4493091  27.8633332  62.6163530
  49.8939221   9.8648253   4.4422558  50.1992326   9.2398157   5.0998143
  49.1807489   9.4109049   3.9932850   2.0550027  28.4061718  63.9785242
   2.0472427  28.9392543  63.1835461   1.2473486  28.6436868  64.4340611
  30.5966701  53.2174327  21.1262015  30.6931128  53.6854209  20.2967909
  31.2530198  53.6110999  21.7010573  35.0696626  51.0423161  10.2476815
  34.3439671  51.5587248   9.8970822  34.9383768  50.1667895   9.8837450
  34.6848440  10.3269255  59.8048162  35.2675486  10.0511920  60.5123901
  33.8259220  10.4074705  60.2195454  51.6342688  19.5987201  63.7849331
  51.1304760  18.7936306  63.9043283  52.3801184  19.3367207  63.2452154
  59.8545905  73.5223879   0.5879095  59.8557755  73.3006467  -0.3432533
  60.5062529  72.9373326   0.9742716  77.4693267  17.0945730  29.7314909
  76.5834586  16.7349615  29.7778300  77.4758832  17.7993813  30.3791312
  59.5003816  68.6032643  27.1285322  59.7549196  68.2722797  26.2671927
  59.3668314  69.5416011  26.9946554  18.3628964  32.3725629  38.9776134
  18.8735783  32.3089623  39.7847033  17.9879582  31.4994740  38.8619924
  32.1115279  13.0376613  49.8926926  32.1121407  12.7488911  50.8052921
  33.0255127  12.9648149  49.6178102  51.7159405  10.7184639  10.7462862
  52.2694655   9.9699059  10.5238036  52.1917674  11.1692562  11.4438608
  59.9822088  66.0504688  22.6668051  60.0519320  66.8685211  22.1746996
  59.0883394  65.7488908  22.5046995  37.2414947   2.8020734  20.6571102
  38.0715489   3.0319613  20.2395058  36.7887521   2.2623375  20.0090814
  54.9316593  62.3613204   5.2561787  54.0501734  62.0781435   5.0132254
  55.4819747  61.5944900   5.0969342  65.4493373  35.0801539  56.9052267
  64.6616930  34.8091745  56.4336157  66.1722153  34.7237062  56.3888741
  12.6112008   6.7021251  50.5811977  12.4712622   5.7648325  50.7158518
  12.9293776   6.7698902  49.6809769  22.2533067  41.1998104  13.1533173
  22.3016464  40.9280957  12.2367647  23.1466769  41.4649870  13.3719567
  23.3691645  20.2229214  49.8931789  23.7650967  19.3933797  49.6260977
  24.0925384  20.8495927  49.8775244  14.3018663  20.4784870  64.3903399
  14.7318339  21.2570739  64.7441244  14.8613536  20.2054429  63.6632538
  30.1778739  68.2646312  24.3706015  29.5430937  68.8007535  24.8458556
  30.9394618  68.2258882  24.9491480  16.9974959  16.8084395  57.1238136
  17.0203733  16.0824513  57.7472353  17.0428109  17.5938654  57.6690531
  26.2246755  73.4497361  16.4297748  26.2866310  74.1238850  15.7530797
  26.0941700  72.6348644  15.9448159  56.5399981   8.4425491  62.6174212
  55.6567001   8.0916917  62.5037432  56.8643141   8.5684174  61.7256784
  54.6110755   8.5450792  29.2798662  54.6294695   8.5020739  28.3238077
  55.5202085   8.7102538  29.5297241  77.8362836  27.1611881  42.3740196
  77.7528172  26.3906336  41.8123102  78.7510585  27.4272799  42.2812080
  66.8914028  53.6266579   3.7891224  67.4914738  54.3234767   4.0548113
  66.9908901  52.9547979   4.4636134  53.2359743  26.6907287  61.4811659
  52.6577520  27.1271110  60.8554983  53.1406641  25.7585907  61.2855434
  61.6904837  23.0210185  53.1766939  61.0241562  23.6680245  52.9451227
  62.4048859  23.5364342  53.5511398  59.0328890  28.0895376  16.3782978
  59.5588547  28.8683224  16.1964107  58.2306701  28.2187819  15.8723617
  35.2598610  60.5144347   3.8581589  35.8467772  60.8360042   3.1737927
  35.7364448  59.7884835   4.2607668  34.8348393  54.3327166  17.3241499
  34.2707374  53.8135900  16.7509726  35.7231840  54.1405274  17.0239142
  44.3048963  68.5838794  20.2166414  44.8271266  67.9506265  20.7090831
  44.6295712  68.5154646  19.3187904  51.3870746  23.0177584  14.1740206
  51.6386417  23.5714903  14.9131659  52.1852202  22.5387039  13.9510897
  41.8663891  54.5671572  12.9596976  42.5574442  54.7913553  12.3364762
  41.0611066  54.8791053  12.5468520  75.4408614   8.9986792   2.3770645
  75.0308459   9.5051995   3.0781773  75.0208442   8.1398812   2.4248770
  60.9421682  16.4180052  60.1283741  61.6124964  16.9260454  59.6714401
  61.3200235  15.5424237  60.2109194  78.9024159  53.9870991   7.9541853
  79.5529410  53.7430836   8.6125925  78.1068131  54.1619386   8.4568575
  77.7435677   5.6689444   2.4151543  78.5298888   6.0789719   2.7754429
  77.4551503   6.2679901   1.7265395  37.9205132  14.4885957  62.4188280
  38.2662487  13.7375593  62.9011631  38.3567238  15.2456820  62.8096914
  31.8152928  23.8110495  40.4893446  32.1450281  23.0539942  40.0052261
  31.1830235  23.4435606  41.1069393   0.8645235  16.7160883  11.7439059
   0.6686841  15.7852116  11.6373947   1.7388545  16.7339030  12.1330813
  34.3594035   2.4171711  43.9612293  34.4961461   3.0899836  43.2942533
  35.2312585   2.2574688  44.3226099  19.6198722  50.6034161  24.3919257
  20.4767319  50.1846971  24.3100813  19.0691074  50.1483847  23.7548712
  69.6843368  21.6720510  41.8159819  69.9860269  21.0426736  42.4710417
  69.6523338  21.1720753  41.0003662  30.5331146  54.9137356   7.2115162
  30.1756319  54.0472581   7.4055603  29.8003721  55.5127241   7.3548106
  12.7872336  14.9528956  55.5278444  13.7419963  14.9946141  55.4738140
  12.4880528  15.7584953  55.1062632  78.7299745  34.5485106  40.4235247
  78.6898415  33.7423220  40.9379938  79.1951220  35.1683035  40.9854105
  42.5531670  62.9387798   9.7697619  42.3982474  61.9946923   9.8002890
  41.8984362  63.3082141  10.3622845  75.4348819   6.8320074  19.5054129
  75.0640027   7.5756397  19.0303496  74.6900432   6.2510290  19.6600703
  58.3701249  64.8824920  32.9806116  58.8911434  64.2429055  33.4660986
  58.4172603  65.6797947  33.5081652  54.6437570  74.3333616  16.0852412
  55.1802298  75.0914540  16.3170317  54.3488403  73.9826884  16.9256476
   9.2557689  54.0670313  28.9218882   9.6874603  53.8171436  29.7388533
   9.4621977  53.3563496  28.3148077   9.5716082  10.2152577   4.5671013
  10.0756036   9.6453371   5.1479748  10.2304517  10.7553377   4.1306713
  19.2880332  12.5057054  48.5294342  18.7903726  11.9590056  49.1374493
  18.7115014  12.6076818  47.7721739  16.5749609  31.3824654  42.9454994
  16.6546369  30.6372166  42.3501110  17.4716854  31.5583277  43.2304335
  43.2863423  67.5820460   8.2170752  43.9800044  66.9928111   8.5135010
  43.6855193  68.0833472   7.5060299   2.5361215  22.9944601  10.5794886
   1.8655835  23.6134091  10.8684710   2.0440327  22.2264090  10.2893570
   6.7801105  16.9957962   9.5014170   6.9691860  16.1758270   9.9576357
   5.8734189  17.1957865   9.7341135  20.8299815  32.5325670  11.8162134
  20.2619110  33.1984368  11.4287356  20.7631146  31.7853060  11.2217692
  24.7924887   4.6702566  28.9474562  24.7242390   5.1973000  29.7435740
  24.7363125   5.3058186  28.2339171   2.0667254   5.0995293   5.1316050
   2.0482169   5.1324215   4.1751507   1.5609728   5.8639899   5.4073790
  24.9332415  36.3673582  17.5031355  25.7989298  36.4172735  17.0977667
  25.0276028  35.7061424  18.1887892  16.9599259  62.6660919  58.1303358
  16.1042655  62.2371387  58.1390476  16.7759478  63.5725546  58.3767319
   8.4901708  27.3905230  42.8880644   8.7713051  28.2696962  42.6345873
   8.2075900  26.9839382  42.0688772   2.2874016  21.1014056  60.9381104
   3.1852490  21.2928939  61.2090969   2.3543657  20.9156179  60.0015020
  70.7326409  67.7135672  30.4086283  71.6800543  67.8155174  30.3178194
  70.4317375  67.4790944  29.5307329  65.8217709  44.8044243  18.7390784
  65.5639426  45.4128876  19.4315604  66.1677997  45.3647938  18.0444697
  11.4827061  36.0503292  55.3526497  12.0085895  36.6130710  54.7843170
  11.9489002  35.2143598  55.3596687  12.6116931  30.3816319  64.8188448
  13.0343533  30.0190735  64.0402937  12.2469115  31.2168574  64.5263290
  22.9925682  38.2165292  14.3157795  22.5834306  37.3511836  14.3119028
  22.4390694  38.7457337  13.7414864  46.9686890  47.7058792  61.3819170
  47.6153421  48.3092642  61.7479801  46.1503220  47.9360962  61.8218136
  30.9876524  13.6656513   9.3478993  31.5967976  14.0181437   8.6991146
  31.5479599  13.2337561   9.9926880  64.2367952  10.8324423   0.0992754
  63.4152739  11.3100996  -0.0155088  63.9908652   9.9106922   0.0209883
  44.1498804  20.3757191  62.5594950  43.8480997  20.5897808  61.6766977
  44.0156937  21.1804152  63.0601883  25.2872252  10.3693056  49.1085577
  24.7870350  11.0750210  49.5184469  25.7220316  10.7850540  48.3640242
  59.0618245  14.9983778  36.0259512  60.0154661  15.0632086  35.9749869
  58.7474452  15.4902401  35.2673510  51.9199605   2.0163694  28.1262759
  52.3183547   1.5284314  27.4055556  51.7042078   2.8687802  27.7480105
   0.5229579  11.1364689   6.6561106   0.4347550  10.7039013   5.8067921
  -0.2168144  11.7427101   6.6941050  67.4351625   9.0223351   3.7397364
  68.0924933   9.6999731   3.8977030  67.5117008   8.8275042   2.8057030
  49.8427936  68.5691942  26.8992976  49.6358892  67.8869786  27.5380495
  50.7882234  68.6947455  26.9807127  76.6703408  28.4612169  55.2553442
  77.4194090  27.9437342  54.9598101  75.9221117  27.8705254  55.1689127
  43.8642474  55.7354821  16.8975714  44.3834742  55.1162209  17.4105528
  44.4939121  56.1384310  16.2997511  38.7065296  16.1539355  13.4493807
  39.1002707  15.9829369  14.3049267  38.6422651  17.1077862  13.4016350
  65.3928725  15.4379072  15.1888350  65.9205751  14.6398583  15.2184847
  65.8225255  15.9848538  14.5312002  79.5386608  28.5626030  58.6198282
  79.0491044  29.3321514  58.9102793  80.1139597  28.3529782  59.3555737
   2.7853953  25.5120077  33.5154417   3.7419568  25.4774847  33.5207918
   2.5592052  25.7462492  32.6153353  39.6337494  70.7017364  16.1216811
  38.8156685  70.5394210  16.5913943  39.4731613  71.5088619  15.6328085
  43.5321837  57.7115059  60.9769011  43.7938839  56.7934752  61.0473251
  44.1654020  58.1832504  61.5179396  55.8090063  49.3817391  24.9425104
  56.4843007  49.7738721  25.4960898  55.9954663  49.7150435  24.0648058
  26.7421985  32.7742529  36.3485336  27.1527052  33.1575990  37.1236229
  27.1056700  31.8902206  36.2974715  75.7422082  12.0024290  26.0207918
  75.6047885  11.0627499  26.1405924  75.6115358  12.1460190  25.0834921
  60.2174942   7.3757782   6.5469101  60.2500974   8.0927410   5.9135607
  59.5566277   6.7777338   6.1978749   2.3790656   7.0725622  13.3614138
   1.7435514   7.0341482  12.6466587   1.9469439   7.5933352  14.0383890
  63.2119676  58.8193859  46.9900778  63.0426117  58.9168300  47.9271200
  64.1093632  58.4898581  46.9418696   6.2941777   8.4133044  21.5905360
   5.4981409   8.7193909  22.0251253   6.0391079   7.5888624  21.1764506
  49.5336109  54.0376854  31.2615061  49.6125871  53.7472820  32.1701646
  49.1841179  54.9266291  31.3236785  24.3548523   2.8756895  23.7121371
  24.3704401   2.3563662  24.5160654  24.9666392   2.4293080  23.1267432
  66.5492841  49.0895356   1.7284230  67.1072575  49.2792000   2.4826935
  66.1147710  48.2666876   1.9528130  19.1523682   7.9260292  17.9177931
  18.6562573   7.9219904  17.0992068  19.7499501   8.6688414  17.8320292
  59.1398450  17.9493691  61.5872622  59.8398873  17.6762177  60.9943390
  59.2422482  18.8984753  61.6575861  12.6963197   2.0475378  31.6755465
  13.4287058   1.9205156  32.2786215  12.0852457   2.6067200  32.1552733
   3.3420447  68.1852358  46.6902637   4.2475084  67.8867744  46.7756367
   3.4152798  69.1187071  46.4915180  18.9531744  32.4798846  51.1207962
  18.0200207  32.3675895  50.9395599  19.2000961  31.6909122  51.6032743
  25.7901942  43.6995259  26.2758902  26.6645037  44.0408745  26.4637640
  25.3146397  44.4462624  25.9119395  66.8887087  72.1791162  20.5568293
  67.3709150  71.4871587  20.1041678  66.7709871  72.8610315  19.8954943
  17.4653733  60.6698751  62.5955439  18.2471097  60.8377886  63.1217813
  17.7968717  60.5503511  61.7055702  70.3539395  17.8643966  63.6690140
  70.0473886  18.7615764  63.5373878  71.2802446  17.9579842  63.8913488
  78.3107393  27.0813027  26.2318400  77.8613274  27.8324023  26.6192797
  78.7618511  27.4401703  25.4676798  16.8303620  27.7936449  28.2846430
  16.7390667  27.5310078  29.2005709  15.9476792  28.0534878  28.0208662
  54.8532339  62.2113098  12.8491858  54.0903684  62.5047793  12.3510435
  55.3673836  63.0062618  12.9903630  63.7280174  54.5956482  39.7965220
  64.4861814  54.3339624  40.3189638  63.0076405  54.6398975  40.4252795
  51.4530154  64.3898763   6.4378813  51.1950871  65.3055419   6.3317564
  52.2372290  64.2976917   5.8968237  10.0376951  21.6668835  36.4472369
   9.7717081  22.3071327  35.7872656  10.5088126  20.9956398  35.9535673
  48.8250224  11.1174431  11.6964272  49.7312649  11.3301602  11.4734772
  48.3154558  11.8519392  11.3542441   8.6114227  30.1288262   1.2885407
   9.2007219  29.8721113   0.5792740   7.9942499  30.7354250   0.8794382
  26.5956259  26.4138365  48.3926773  25.8928251  26.8785477  47.9384279
  26.6119599  26.8008256  49.2680073  68.8453429  26.4178410  34.6092108
  68.5533886  25.5733624  34.2659262  68.7248330  26.3460770  35.5560759
  79.1860589  37.3439455  46.5260267  79.2087640  38.2828450  46.3411474
  78.8244728  36.9519854  45.7311344  44.9707814  65.6586923   9.3298605
  44.3937250  65.6215991  10.0926617  45.8135172  65.9465231   9.6808317
  22.5097013  46.2803555  55.5445051  23.2413650  45.8560276  55.0963449
  22.8714204  47.1070242  55.8638954  43.3109602  55.7977797   5.4424790
  43.4937903  54.8631109   5.3465632  42.6162907  55.9723438   4.8075035
  57.8615616  15.1407805  38.4789160  58.3782832  15.2588644  37.6818636
  58.0043669  14.2264881  38.7236765  79.6780596  74.3533103  53.6220741
  80.4335699  74.7223839  53.1646681  79.0364704  74.1890053  52.9309893
  24.0608945  65.8539809  41.3969878  23.6463913  65.8524145  40.5341891
  23.4233119  66.2822284  41.9682291   3.3119499   8.8024655  19.0934542
   3.7965642   9.5426741  18.7281206   2.9011093   8.3874073  18.3350542
  58.8681441  34.1438293  61.9293594  59.1103130  35.0199676  62.2293043
  58.6904555  34.2511702  60.9949398  67.4167868  67.9350008  19.4291952
  66.9350763  67.5711145  20.1720026  67.6858278  67.1701850  18.9203623
  28.1515728  15.4556837  16.9434336  28.0206047  16.1575976  16.3059405
  28.9034115  14.9662199  16.6096762  74.6522471  68.7252440  25.3540877
  74.2456528  68.4258093  24.5409182  74.3646713  68.0929245  26.0126475
  77.7694027  10.2047768   2.5966957  76.9349329   9.7391930   2.6525858
  78.0233447  10.3514328   3.5078696  32.2364736  42.2129774  61.8929434
  31.9954467  41.5317154  61.2652349  31.7959094  43.0002117  61.5729475
  26.9223428  28.1035757  58.3406687  27.3153090  27.3566389  57.8891230
  25.9854913  27.9079175  58.3567381  19.8879324  24.2697993  17.1279696
  19.1736876  23.6437502  17.2469023  20.0080382  24.6631851  17.9922942
  46.7067262  44.7718604  16.1520937  47.0293304  45.2794285  16.8967608
  46.4808925  45.4292317  15.4939917  70.8060388   4.5784464  13.1576136
  70.6875353   4.0817681  12.3479822  71.0244064   5.4635515  12.8658417
  57.0470031  30.2964201  12.3758343  56.2010436  30.6921902  12.1661976
  57.3550566  29.9353066  11.5446118  51.8329622  18.8141337  11.6183165
  51.6106097  19.6303931  11.1705330  52.7077556  18.9674225  11.9753435
  72.2458021  23.5363713   3.9971474  72.9146592  24.0272179   4.4745711
  71.9420128  24.1414108   3.3204869  31.7600857  26.6534987   4.0711001
  31.2431847  26.3900509   4.8324421  31.1107670  26.9343701   3.4263256
  68.5664364  64.3403639   8.5239008  67.8515383  64.7325243   9.0252665
  68.5438105  63.4129562   8.7597683  69.1658644  30.9335222  28.8804129
  68.5684173  30.5654087  29.5313910  69.5297830  30.1707926  28.4309176
  45.9438261  73.7842001   9.7860840  45.2518054  74.3334808  10.1543644
  46.3748857  74.3432941   9.1396788   7.5133878  36.1374903  63.6826658
   6.9420171  35.4904842  63.2689619   7.8777474  36.6372085  62.9520798
   9.2301761  39.6727314   2.3981217   9.4658171  39.3799582   3.2784537
   8.4316527  39.1876307   2.1901062  17.1271658  49.0313864  62.5706625
  17.0387948  48.2441854  62.0333195  17.5692010  49.6614504  62.0015812
   4.3274580   3.2110110   6.3230255   3.9569222   3.4443846   5.4718664
   4.9454962   2.5060168   6.1300257   2.0945426  50.5636586  26.3565043
   1.2399336  50.2253129  26.0893038   2.1359964  50.3933896  27.2975329
  66.4613037  40.9257117  14.3616227  66.0700063  41.6074267  14.9078635
  66.7136864  41.3788738  13.5571507  68.4953469  38.6738920  48.3580828
  67.5584656  38.8685036  48.3333540  68.9180487  39.5325875  48.3722162
  15.8489929  20.7594242  16.4305571  15.8938824  21.1178436  15.5441359
  15.0482260  21.1322155  16.7993811  18.3728157   6.5871515  15.0380495
  17.5996052   6.5855065  15.6022909  18.0199896   6.5929642  14.1482666
   7.8952092  52.0125914  63.9747572   7.3130524  51.4559698  64.4919634
   8.4219867  51.3983774  63.4634018  70.2937218  38.4779043  34.2319945
  70.6621166  37.7127058  34.6735743  70.0588795  38.1611293  33.3597925
  17.7135502  18.5563603  22.6502875  17.6139103  18.1100025  23.4911612
  17.2639023  17.9896059  22.0235136  55.9033900  27.2977948  61.5995455
  54.9931222  27.0047951  61.6419363  56.1337119  27.4960279  62.5072241
  74.2848050  71.9554138  45.5479813  74.4619161  71.0269070  45.3971958
  75.0788668  72.4015903  45.2536631  43.5814842  58.0595793  11.7649439
  43.4497579  58.1794275  12.7054289  44.5319840  58.0726184  11.6526440
  28.5022349  44.0382333  14.4560889  28.7366139  44.4590975  13.6289433
  27.5498398  43.9501073  14.4185522  72.5533813  44.2899990  63.5515690
  72.1847886  44.6070194  64.3761110  72.6292985  43.3433723  63.6714172
  62.7720972   8.0927635  54.8283386  63.6379048   8.3259750  55.1633310
  62.2846242   8.9165379  54.8303843  36.1002445  64.9499655  63.1252289
  36.2964892  64.1922092  63.6761618  36.2651610  65.7054281  63.6894178
   6.6384550  64.4178380   9.4821432   5.9205719  64.9286832   9.8561886
   6.3891336  64.2887248   8.5670451  23.8921523  26.0753226  41.3499784
  23.8166189  27.0256281  41.4362717  24.8045325  25.8866549  41.5695190
  22.3352336  61.7551030   1.2272147  23.1598430  62.0146026   1.6382006
  21.7107674  62.4284519   1.4971617  39.4769045  69.2280211  11.3426140
  40.1168140  68.5611476  11.5916613  39.1453835  68.9365067  10.4932907
  14.7710978  23.0081120  19.7800330  14.9653279  22.2618714  20.3471545
  14.5316206  22.6151362  18.9407137  53.2591152  50.2777624  58.4461021
  53.6496735  50.8982372  59.0614986  54.0070534  49.8331356  58.0471849
  55.4907795  40.8352663   6.1332300  55.4248615  41.6547285   5.6429556
  55.2189633  40.1610597   5.5104998  57.0224987  13.6380472  19.8800257
  56.2263714  14.1538754  20.0078467  57.5890671  14.1992274  19.3505839
  35.5919313  51.1171579  61.9818115  36.4502430  51.4179659  62.2802114
  35.5089045  51.4705276  61.0961056  38.7655187  66.3635683  52.3339224
  39.0465021  67.0720387  52.9130173  38.5323429  65.6485033  52.9259872
  77.9587309  36.3200083  21.9720057  77.5316756  35.5395022  21.6189268
  78.7638919  35.9920397  22.3724821  74.0803520  15.0127259  19.0338782
  73.3828633  14.5598355  19.5078352  74.6466391  15.3652420  19.7203806
  52.9932973  14.4148150  19.1331938  52.8978631  14.3248024  18.1850317
  52.1062411  14.3026247  19.4749239  37.5895071  29.1023779  55.5405807
  38.4508324  28.6890745  55.4811525  37.0397973  28.5976672  54.9411488
   6.5789068  34.0339208  45.1723433   7.4365318  34.3675590  45.4357815
   6.4752746  33.2217002  45.6681156  16.9075215  26.8551016  55.1751232
  16.7352068  27.1258879  56.0769081  17.4374986  27.5633812  54.8094797
  45.6364807  31.1668153   0.9187105  45.7053109  31.5096511   0.0276640
  46.5192660  31.2549193   1.2780932  38.3516904  27.4868883  11.0875157
  38.8057514  27.8938766  10.3496674  37.4634179  27.3320772  10.7662085
  33.9978480  25.7669950  57.8606462  33.0451345  25.6892848  57.8103399
  34.3241215  25.1259899  57.2290659  59.1436621  70.1260533   2.7924612
  58.4477659  70.0067009   2.1461562  58.8794204  70.9007944   3.2886341
  67.1647583  18.7960234   1.4771393  68.0901371  18.7969723   1.2323740
  66.7605530  18.1635132   0.8831862  71.2612252  13.6006394  11.8946913
  70.7983057  13.9626303  11.1391095  71.5524273  12.7359095  11.6054228
   2.1858808  73.7045373  23.1589964   1.9854518  73.0240478  22.5163534
   2.8824612  74.2201103  22.7525595  59.9734806  47.0215073  24.5054129
  59.7571252  46.1159554  24.7276858  60.5960690  47.2916165  25.1804331
  55.1904889  58.0050530  18.3205584  55.3128692  57.6759352  17.4300841
  55.5523678  57.3189153  18.8813475  18.1438053  12.4377513  57.4987507
  17.6389861  12.7053285  56.7307758  18.8622022  13.0686343  57.5448608
  31.5567385  25.7074347   8.0399397  31.0497319  25.1169195   8.5971287
  30.8998047  26.1629524   7.5134686  64.8561303   6.0896769  22.1481684
  64.6203403   5.2064314  22.4319247  65.5528383   5.9567490  21.5053919
  66.9825405  15.4994583  24.1645765  66.1315351  15.9212387  24.2834210
  67.5778287  16.2175548  23.9496326  32.1743655  48.7913752  62.9253578
  32.6464224  48.0040836  62.6541281  32.8517699  49.3657589  63.2823420
  41.8169342  14.9729815  17.4456003  42.0451914  14.0453282  17.5055292
  42.4435078  15.4114857  18.0212286  15.9055603  19.4556367  54.3659735
  16.8214357  19.7338462  54.3641710  15.8361411  18.8552964  53.6236763
  11.8279958  17.3763216  54.3827486  12.7109587  17.6572597  54.6229219
  11.2509775  18.0123496  54.8055363  52.7579653  31.6182604  18.9565543
  53.4761515  31.0204973  19.1642073  52.0292415  31.3142147  19.4976214
   7.5105184  31.8977475  53.2991743   6.8727189  31.1840439  53.3075666
   7.3555011  32.3477435  52.4686909  20.3833389  39.9379373  53.0978489
  20.4113197  39.5503259  53.9726114  19.6004128  39.5628858  52.6946211
  72.1083853  69.7710090  55.6930971  73.0018864  69.4298487  55.6544018
  71.9172511  69.8363077  56.6287422  72.4303286  32.6480665  43.7527064
  72.0374112  32.8642836  42.9070738  71.9086544  31.9147053  44.0787009
  64.6363407  15.8422649  55.6672335  65.5759841  15.7430625  55.5140638
  64.4961816  16.7888463  55.6911135  71.7722516  33.3603850  22.3569468
  72.4966674  33.1629410  21.7632559  71.1226742  32.6808872  22.1764830
  50.8921810  53.2282187  11.5884474  50.4002520  52.4212314  11.4367655
  51.5411588  53.2488980  10.8851460  44.0079689  69.0144777  38.2052541
  44.4250393  68.7261152  37.3933816  44.3683434  69.8871374  38.3628178
   4.8153111  30.0248647  34.5443606   4.1685748  29.5635223  34.0103865
   4.3917677  30.1294184  35.3963637  39.1118042   5.1302614  18.8596991
  38.1795292   5.3242531  18.9569739  39.4466107   5.8353033  18.3055762
  13.0180107  16.6174784   8.4602049  12.1165048  16.7629090   8.7471989
  12.9903327  15.7789936   7.9993227  65.7602453  52.9711914  58.4987068
  65.5519629  53.8547993  58.1952524  65.4291630  52.9419565  59.3963480
  43.6181498  46.4982796  64.4899082  43.9569759  47.0482063  63.7834978
  43.4049416  45.6673241  64.0653038  78.7195294  37.2008791  10.7967594
  79.4381253  37.2994986  11.4213589  77.9466097  37.5082627  11.2704066
  57.9926014  59.5791388  63.9932299  58.5223246  58.8368416  64.2841196
  58.4558725  60.3484392  64.3245745  76.2081715  48.5618235  33.0108908
  75.3158947  48.8555099  33.1948164  76.3502928  48.7885346  32.0918539
   1.2480556  25.3441849   3.8233593   1.8984543  25.5750075   3.1600836
   1.7649924  25.0548878   4.5752362   4.2484703  54.2603149  11.4038065
   4.1985026  53.3232810  11.2148503   3.6588564  54.6647538  10.7673958
  11.7320954  42.5584450  44.3607882  11.8694507  42.5178185  45.3072146
  12.3473131  41.9190064  44.0018156  25.4145466   6.2903729   5.4518441
  24.8545014   5.5323925   5.2843645  25.0401055   6.9882717   4.9142912
  39.6398830  73.0733109  42.8300858  40.2752066  72.8591394  43.5132551
  38.8214970  72.6792192  43.1320238  53.1369196  48.4276238  28.6966780
  53.7321698  47.8599682  29.1862372  53.1767021  48.0987301  27.7986410
  64.6143910  21.9170548  62.3344135  65.2382370  21.4191414  61.8060875
  63.8341519  21.3636185  62.3686218  53.1619024  16.1453485  58.6491108
  53.3640718  17.0770788  58.5640430  53.8479424  15.8027375  59.2220020
  14.3305861   4.0156355   0.4704312  14.5462500   4.3845215  -0.3861019
  13.6134993   4.5616713   0.7927063  60.1509361   7.2974243   1.3348702
  59.8283546   8.1246605   1.6924265  59.9582826   6.6514292   2.0144347
  49.9049139  59.0620852  30.0242019  49.2930031  58.9671564  30.7541251
  50.7175970  59.3631697  30.4305601  12.8485023  35.1511278  14.8497179
  12.0160042  35.5598583  15.0866202  12.6227866  34.2404881  14.6599367
  61.0896675  10.9906044   0.5441407  60.2504306  10.7917824   0.9593323
  61.0590093  10.5263081  -0.2923509  30.1497364  71.5628767  52.2299767
  29.7854114  72.3705959  52.5920391  30.8333373  71.3093710  52.8501844
   3.2727658  10.9596291  42.5697878   3.6889397  11.6410580  42.0418814
   3.0777227  11.3880100  43.4032610  31.1490464  72.0570993  55.0910044
  30.9261537  71.4481211  55.7950592  30.3065634  72.2928715  54.7025871
  68.1791830  37.0504808  29.6196008  68.7783432  37.1872902  28.8857627
  67.3573351  37.4506593  29.3356013  16.1182677   3.9246454  20.8794859
  15.9004341   4.8034754  20.5689410  15.7890831   3.8996639  21.7779520
  43.1224155  72.9212379  62.6820803  42.6540709  72.1513271  62.3593950
  43.2479668  73.4677649  61.9063377  75.7566087   9.5965567  35.7766321
  75.3127258   9.8414316  34.9647024  75.1826517   9.9209204  36.4706019
   7.7299577  65.5123043  58.6108255   7.5828075  66.3368082  59.0742588
   8.3603948  65.0407457  59.1552639  20.2054157  72.1442308  28.2958773
  19.5001831  71.4981307  28.3336809  19.9620714  72.7223815  27.5728587
  70.0746103  67.6561536  17.4320582  69.8382326  68.0337514  16.5848425
  70.1696631  68.4112014  18.0126646   0.9522906   7.3865868  62.7891445
   1.5223398   7.7840115  63.4474277   0.0945320   7.3405338  63.2114697
  61.4767981  58.1399584  63.3443356  60.7991648  57.8514290  63.9557219
  61.6860914  59.0317154  63.6221695  13.8220583  62.0515957  10.9374836
  12.9487072  61.6979256  11.1060026  13.9163529  62.0134773   9.9857024
  49.1887733  68.5586037  15.4430655  49.0914699  67.7967824  14.8717573
  48.3652350  69.0368880  15.3468397  48.4900700  34.2555418   2.7861813
  49.2184578  33.6882391   2.5334910  48.1620108  34.6071091   1.9585255
  70.1405140  22.0755077  58.8139725  69.8127695  22.2805286  57.9383135
  69.3957373  22.2385670  59.3927240  78.3287001  49.0497398  58.4222221
  78.8076067  48.4839296  59.0278149  77.5693846  48.5299921  58.1585169
   2.5290023   5.7735291  42.7926329   2.1544229   5.3964176  41.9965819
   1.8009268   5.7936135  43.4137133  70.9378068  31.7443362  31.1257342
  70.0339393  31.9595804  31.3557890  70.9996753  30.7982578  31.2574461
  75.0447361  32.2066965  11.7908934  74.8773901  32.7219477  12.5800350
  75.4405801  31.3969078  12.1130493  75.6267779  36.9817534  19.6755102
  75.9510152  36.1982527  20.1196173  74.9523108  37.3268452  20.2605227
  58.0779766  41.7340842  15.2477530  57.9544027  42.5599518  14.7798756
  58.1100456  41.9843807  16.1710909  75.6251475  13.7114693  64.6680784
  75.3995796  13.9228512  63.7621689  75.7544752  14.5621468  65.0874329
  76.0565897  64.3079104   9.9216631  76.0622259  64.8032130   9.1025904
  76.1009642  64.9758949  10.6058100  21.6862999  31.7637768   0.5894926
  21.5188729  32.3275652   1.3447026  22.1148192  32.3364678  -0.0466129
  38.0045247  64.7283316  54.2884588  37.7445698  65.3724194  54.9470997
  38.3658338  64.0006447  54.7945833   9.9061023  52.8706303   8.4539202
  10.0929366  51.9320526   8.4340075   9.1071020  52.9668370   7.9356840
  10.8285390  32.6802435  11.4297560  10.8731757  31.8665352  11.9318703
  10.8386003  32.3981514  10.5151251  27.2088671  49.2542553  64.9074364
  27.5086308  50.1318502  64.6703720  27.2318077  49.2436552  65.8643007
  45.8550692  57.3566866  64.3623161  45.6689167  58.0896044  63.7754488
  46.7964315  57.4140215  64.5259714  75.0327508   3.7244835   7.7444866
  74.7898524   3.3361712   8.5849884  75.4181163   4.5701494   7.9737833
  23.5158097  13.0139246  18.2935789  22.8851639  13.7231198  18.1688383
  24.2263829  13.2154312  17.6847246   6.4967166   0.8175245  30.8552817
   6.1984097   0.0463834  30.3730086   6.7826353   1.4287796  30.1764181
  23.1251764  24.9052739  56.0905075  23.5742831  24.0610337  56.0481691
  22.1959352  24.6802139  56.1362457  17.6761996  40.2136555  23.3830908
  18.2788502  39.6233931  22.9307249  17.9809891  41.0909167  23.1512717
   7.0153605  36.1179009  28.8037661   6.7925583  35.2447310  28.4810236
   6.6829048  36.7135134  28.1322363  70.2337067  16.0014143   0.4468611
  70.4780333  15.1255503   0.1478651  69.2822747  16.0320225   0.3465012
   7.7759624  72.8723860  35.5271101   7.8296709  72.3344374  36.3170195
   8.6794698  72.9333639  35.2169681  79.7724907  18.1684532  40.0163153
  79.7059314  18.5484066  40.8923510  79.0728156  18.5910120  39.5181826
  66.7887311  21.7938795   0.7652119  66.1460058  22.4892464   0.9052304
  66.6950457  21.2238922   1.5284708  40.0941849  66.0426950  63.5640335
  39.5324683  66.3728189  64.2652655  40.2012587  66.7874002  62.9722738
  54.6770096  39.9307394  57.0597458  55.2982330  40.6498098  56.9446373
  54.1193390  40.2099419  57.7858877  19.4453073  25.7788682  61.3034630
  19.5599401  26.6624117  60.9535456  20.0514650  25.2395892  60.7955456
  39.3371811   4.6945168  53.2622051  40.1753559   5.1180626  53.0770159
  38.7649861   4.9729324  52.5471497  33.2641625  59.9684429  63.1100225
  33.6259937  59.2045403  63.5592031  33.3580494  60.6832647  63.7396622
  70.0524716  34.5135823  25.5393294  70.6789367  35.0030174  26.0724619
  69.1979258  34.8617306  25.7938364  55.4798647  60.2999915  19.9513892
  55.2384206  59.7327627  20.6836394  55.4041024  59.7395124  19.1791514
  73.9252945  14.5610691  35.6339884  74.6481796  14.0042473  35.3448105
  73.4288927  14.7427822  34.8359942   6.5482270  46.9474259  38.0819300
   7.2326385  47.4231854  37.6113299   6.8153726  46.9894924  39.0001372
  73.9340826   1.0589863  46.8532944  73.5597321   1.3509012  47.6844883
  74.8605581   0.9143473  47.0455360  12.9535161   8.3902302  22.1581438
  12.5929152   9.1809073  21.7568663  12.9127442   7.7303734  21.4659384
  22.5847660  26.8542805  28.0455473  23.2318198  26.2808790  27.6347426
  22.4035155  26.4438191  28.8910654  21.5296398  12.3036900   2.9593638
  21.2124430  11.9485607   3.7897280  22.1552979  12.9824248   3.2125452
  61.9692610  43.8755741   0.6553295  62.6756661  44.0218773   1.2844733
  62.1443580  43.0055657   0.2966383  55.5262947  73.5308981  37.0431495
  55.5866098  72.9617786  37.8104138  54.6954107  73.2918787  36.6323733
  16.6358735   1.8587757  47.9724121  17.1881076   2.6049639  48.2058144
  17.1588590   1.3610722  47.3439169  74.1163127   4.8587361  23.7170199
  73.4287159   5.5168429  23.6153296  73.6444084   4.0438881  23.8889578
  42.7618333  17.9427887  63.1434155  43.5816392  17.4902035  63.3417082
  42.9937490  18.8714577  63.1480122   7.1783220  23.3330431  14.2570761
   6.6638385  22.6808968  13.7814263   7.3332058  24.0285626  13.6179379
  65.4741808  74.5947637   9.7545555  65.2127024  73.8976278   9.1530064
  65.9329148  74.1413058  10.4617813  72.2122669  64.1413736  64.5511436
  71.9493628  64.6479702  65.3195667  72.7276134  63.4172392  64.9065018
  72.0643132  21.7065897   0.8344868  72.8346734  21.7233410   1.4023760
  71.4631991  21.0980931   1.2641648  21.9700085  39.2715779   9.0985611
  21.8000685  39.0613165  10.0167874  21.9935786  38.4217825   8.6586502
  55.0092649  71.3295174  61.1824656  54.9559784  72.0233917  61.8396807
  55.2889872  71.7769957  60.3838730  67.0188046  67.0114088  52.8392744
  66.9867468  66.4652967  53.6247444  66.6702127  66.4526272  52.1446657
  27.8693128  72.8168869  64.8238802  27.5866175  73.4682846  65.4657507
  27.0661354  72.3569918  64.5796824  44.6913048  69.4032969   6.3806561
  45.2073117  70.1828636   6.1751297  44.1196116  69.2875327   5.6217125
   8.2684099  43.8312378  29.4939211   7.4148427  43.5965290  29.8580244
   8.0642997  44.2653980  28.6656264  51.5210962  51.9750929  54.6818304
  51.9152546  51.1403608  54.4286585  51.9133329  52.1773386  55.5312300
  44.0353759  63.1814374  16.5244559  43.5784694  62.3715748  16.7515925
  44.0146955  63.7014975  17.3277930  65.8079343  26.0735216  31.2764338
  65.4473858  26.3611641  30.4376868  66.0389237  26.8848839  31.7287234
   1.6342984  31.6009703  21.1984709   0.7173525  31.5558424  21.4694002
   1.9059573  30.6865397  21.1193827  14.0620314  29.4686594  40.5152300
  13.8434254  30.1040259  41.1969546  15.0009905  29.3163624  40.6219652
  77.6018684  42.8427353  13.7285403  77.8629415  43.7621250  13.6756590
  77.3429816  42.7194157  14.6417788   6.5580307  64.3655815  19.2399004
   6.9740187  65.2216854  19.1385725   7.2761546  63.7761059  19.4702318
  17.9392515  22.5336018   8.0899409  18.0247389  21.5847769   8.1829527
  17.7507054  22.8450241   8.9752081  78.7815905  66.1176634  21.0931325
  79.0814114  66.9251633  21.5106034  78.9742231  65.4317427  21.7323804
  78.7198826  37.8123620   5.2855948  79.1228100  37.3901156   6.0442665
  78.3028313  37.0963494   4.8063973  56.1059757   5.7497479  53.3975124
  56.2757465   5.5098988  52.4865341  55.2136012   5.4455734  53.5629606
  52.9561758  52.8412342  63.1671906  53.0571318  52.9179955  64.1159487
  52.5990295  53.6866188  62.8951502  73.3420372  38.9345312  58.5926867
  73.0908442  38.4434080  59.3749475  72.6264429  38.7836695  57.9751110
  10.9864317   3.6259260   7.8112343  10.1410257   3.4031811   7.4214867
  11.4889799   2.8120938   7.7744988  77.6985662  29.3914690   3.3463839
  78.4694235  29.9563542   3.2924107  77.4194472  29.4537869   4.2598608
  44.0398598   1.9167498  55.9396076  43.5710144   1.4712797  56.6452789
  43.8253546   2.8422588  56.0564566  10.8638012  58.9316702  60.8698606
  10.6566918  58.1303215  60.3890514  11.8201804  58.9712858  60.8686924
  39.8197399  47.5062313   7.2398117  39.0690552  47.8179589   6.7343119
  40.4455458  48.2299175   7.2102812  16.0498415  64.5324459   2.8982380
  16.1112343  65.4527416   3.1541851  15.4641949  64.5329609   2.1411064
  29.8853527  19.2166081  11.9958189  30.5193745  19.8530426  11.6653803
  30.3894984  18.6644545  12.5934819  65.7802312  46.3746872  20.8428744
  65.9372656  47.2590294  20.5119685  66.6355591  46.0808983  21.1564616
   5.1654232  62.2978067  61.0846043   4.7242612  61.7391014  60.4447174
   4.7997695  63.1694841  60.9338951   1.5565233  75.2844572  48.5588646
   1.3355312  74.5900488  47.9382229   0.7196976  75.7058764  48.7547207
  44.7641516  66.4932728  62.2905016  45.5561638  65.9689522  62.1720505
  44.0610981  65.9484339  61.9368076  44.3647671  36.8885350  62.4508858
  45.1614666  36.4007783  62.2420883  43.6965990  36.5124774  61.8778563
  37.7650078  72.3356570  26.8977907  37.1810337  72.9383935  27.3581293
  38.6127647  72.7800883  26.8932989   2.3547259  31.0508514  57.3622561
   3.0230417  30.5088211  57.7815390   2.0910158  30.5510403  56.5896749
  32.4012123  43.4803906   3.7414912  33.2300888  43.0022660   3.7658146
  32.4354302  43.9776364   2.9242924  23.4850203  32.9578295  17.7690295
  24.0056311  33.3055392  18.4931067  22.7376543  33.5523691  17.7042559
  45.7016850  64.0954304  57.0389128  44.8952484  63.6330986  56.8105602
  46.2648821  63.9874649  56.2725019  27.7398014  19.8811722  62.9617119
  28.5504913  20.3433013  63.1749010  27.7865672  19.7392011  62.0162535
  62.3159619   9.3570210  61.3941145  63.0667969   8.7764240  61.2700748
  61.5812775   8.8857246  61.0012388  26.3525378   6.6065016   8.0389098
  26.5994631   7.5225249   7.9117754  25.9253155   6.3576260   7.2192934
  26.0717729  75.2138008   9.5777920  25.9959334  74.2839326   9.3637255
  25.3195498  75.6206788   9.1478566  20.6548905  28.4872723  60.0720119
  20.2666068  28.8951993  59.2980194  21.5092230  28.9094448  60.1621342
  66.3757416   1.2056328  54.8981571  66.1910959   0.5441834  55.5649614
  66.3613459   2.0360161  55.3740692  52.3674107  50.2291679  50.6652927
  52.4823761  49.4395304  51.1939573  53.1904173  50.7072783  50.7667875
  14.8990479  69.2425002   1.1325386  15.4438439  69.3553533   0.3536299
  14.1843500  69.8688068   1.0177353  36.3949143  29.2809620  12.4947670
  36.7137085  29.4962588  11.6182688  35.7611929  29.9698200  12.6950434
  71.2573855  42.3206606  18.0263022  71.6270022  42.3676052  18.9080027
  71.0920374  41.3884630  17.8852347  12.2694349  28.9473224  38.7388468
  12.7611041  29.1864061  39.5245528  12.6769590  29.4554257  38.0374289
  71.6126220  15.6786432   4.7225550  72.1995406  15.0039425   5.0639370
  72.0551996  16.0075512   3.9401415  52.9385900  38.5407400  47.8170156
  52.7556801  38.9317179  48.6713648  52.2164345  37.9289579  47.6740313
  71.2862973   6.6980448  17.7962282  71.8402235   7.4609652  17.6308516
  71.6093938   6.0315314  17.1899298   7.6301991  10.8968868   2.4917868
   8.2385598  10.4102459   3.0479458   7.5582515  11.7552176   2.9093054
  44.0956306  56.8100691  38.4620762  44.3012381  56.4708710  39.3332267
  43.6665964  57.6496696  38.6270785  55.0636526  56.5688254   5.3735379
  55.1368757  55.6220128   5.2534703  55.9441801  56.9011857   5.1990679
  68.6884066  17.7619053  40.1658201  67.7952763  17.6467014  40.4902840
  68.6983582  17.3054100  39.3245435  15.4961239  31.4765158   4.1248015
  16.2503706  32.0066967   3.8674048  15.6781946  31.2246170   5.0301340
  57.6059538  55.2985430  27.4147582  58.3404237  55.4771090  28.0020404
  57.2773105  56.1642122  27.1721792  67.2703140  24.3822708   8.6021593
  68.1247298  23.9552775   8.6644867  66.6419058  23.6932316   8.8179425
  39.1803189   6.3494564  44.9822092  39.2349037   6.4491344  44.0317774
  40.0678321   6.1102749  45.2493143  25.0899922  60.5902615   3.0111817
  24.6210991  61.4160195   2.8907564  25.7555901  60.5902519   2.3232773
   5.0929319  70.3036919  22.6536921   4.9136673  69.8240795  21.8449477
   5.6889306  71.0045376  22.3894385  55.8013582  38.7836003  47.8772640
  54.9168348  38.7921190  47.5115061  55.8932686  37.9117346  48.2614994
  56.8366285  18.7640358  40.7722569  56.5751620  19.6620346  40.9759045
  57.6532813  18.8577438  40.2818203   0.3671013  31.7896452  38.8575533
   0.8554875  32.4895230  38.4240988  -0.5095328  31.8376055  38.4761790
  38.5653027  61.5138902  20.2297858  39.1891810  60.8054151  20.0714377
  38.8124057  61.8637647  21.0857943  18.7572180  34.7102156  11.0238293
  17.9883229  34.1514769  10.9104994  18.7961041  35.2298775  10.2209166
  73.3396880  52.1360340  15.3140429  72.5242429  51.8315163  14.9158648
  73.0585603  52.6728001  16.0550383  26.4636827  44.1132879  60.8302832
  26.9048119  44.4337082  61.6170311  27.1261549  44.1753387  60.1421595
   9.2360913  47.6156368  11.5675095   9.0482293  46.9558277  10.8999852
   8.6663019  47.3834934  12.3007801  47.0750662  66.6112436  10.9061697
  48.0176207  66.5505804  10.7508019  46.8790694  67.5449123  10.8282069
  17.7479063  38.2745400  32.3579005  16.9609104  38.2706442  31.8130568
  18.3037697  37.5926819  31.9806460  28.4133469  20.6703177   6.0686854
  28.2568585  21.5346756   6.4489868  29.3585717  20.6413880   5.9205464
  64.5862627  55.5088568  52.9452038  64.4033337  56.4456463  52.8731346
  64.0394211  55.1054811  52.2710466  69.2223196  32.3068800   9.8182419
  69.9057667  31.6415301   9.7379855  68.8752239  32.4019089   8.9312676
  38.0393028  74.5597363  41.2382555  37.9907179  73.9972544  40.4652882
  38.5790253  74.0690088  41.8580294  29.5066643  62.8379726  59.1257286
  28.8802505  62.5234318  59.7775698  30.2178144  62.1976805  59.1484547
  59.3337952  11.1181965   9.3902901  60.2134262  11.4445677   9.2006329
  58.9092385  11.0625401   8.5342053  56.7189312  46.9044733  63.2873726
  56.3381720  47.2911119  62.4988556  56.2302685  46.0914230  63.4154177
  31.6143929   0.7746973  28.7198618  30.6624113   0.6861654  28.6737421
  31.8280350   0.5905071  29.6345499  51.3974052  24.0058684  64.4666815
  52.2740990  23.8033009  64.1401720  50.9584981  24.4282389  63.7283087
   7.1869813  34.6364537  60.5238417   7.8116261  34.8036041  59.8180750
   7.6437603  34.0332070  61.1100844  61.4760562   9.9539734  48.8541079
  62.3466822  10.0965763  48.4827518  60.9076043   9.8352791  48.0931854
  73.5112732  31.8256712  64.0199375  73.4390419  30.9325981  64.3567419
  72.9965800  32.3540640  64.6299553  45.7176924  61.2835884  64.2297220
  46.6133690  61.0104847  64.0312052  45.3493214  61.5313673  63.3817005
  67.1761700  60.9269585  20.6733301  66.2832733  60.5831398  20.6457690
  67.0760723  61.8661632  20.5180624  38.6770368  61.3327551  28.8629055
  39.2381358  61.6607761  29.5656157  37.9312134  61.9326401  28.8521528
   0.7767815  10.1160228  40.6463242   0.8343426  10.9625793  41.0893345
  -0.1217293   9.8249322  40.8018112  61.5341644   9.3020191  34.2856863
  61.4047395  10.2246466  34.0660456  61.9459812   9.3169680  35.1496390
  30.8622156  26.0556736  11.2281779  31.3418471  25.6166401  11.9306258
  31.5144240  26.6147127  10.8058813  26.8502795  21.0040989   3.7467841
  27.4162422  20.5708924   4.3857268  26.1802326  21.4375439   4.2753628
  51.0868406  62.8322935  58.1051731  51.3616562  63.6820173  57.7606773
  51.0442209  62.9604530  59.0527964  65.0483029  15.4287043   7.8836277
  64.2564981  15.6946936   8.3510998  64.7439496  15.2077427   7.0034149
  26.2143503  42.5145760  21.7633990  25.6886612  42.1080866  21.0744551
  26.4532028  43.3709278  21.4086512  19.5658003  14.0463009   8.4329918
  19.7770058  14.1292801   7.5030783  20.4031979  14.1675272   8.8805464
  15.1965857  50.8817720  58.1082869  15.6434464  50.0575972  57.9152107
  14.2656410  50.6601095  58.0872917  58.3697367  55.8287621  49.3930960
  58.1688356  54.9719906  49.7696686  57.6298428  56.0159302  48.8153839
   8.1204357  70.0385799   2.1940687   7.2386732  70.0598397   1.8222121
   8.6722651  70.4440726   1.5252713  36.5113521  71.2652445  60.8824539
  37.1297646  71.1691093  61.6067123  36.0611439  70.4216814  60.8383512
   2.8466951  53.1930676  13.8979081   3.2025300  53.8191166  14.5285204
   3.3809696  53.3138886  13.1129340  27.9899406  72.9169416  55.1339579
  27.9482126  73.8125753  55.4691172  28.0968785  72.3737431  55.9148121
  28.1210266  25.8385029  10.2747229  27.7473818  26.7077055  10.1294306
  29.0619551  25.9931650  10.3581456  37.0629978  67.3873186  64.1688728
  37.3706293  66.9218349  64.9466372  37.7569199  68.0181599  63.9771891
  37.9887329  22.9131356   6.4725331  37.2513949  22.3252096   6.6365841
  38.1663119  23.3173552   7.3218325  40.7769047  26.0301485   0.8734110
  41.1097466  25.1462260   1.0287264  39.8739754  25.8986941   0.5841616
   0.7019793   2.6977959  18.5249594   0.8839475   3.6055746  18.7679842
   0.4144226   2.2848931  19.3392447  56.4354821  15.2761436  24.3008327
  55.9260937  15.4061485  23.5009241  57.3114749  15.5933357  24.0811563
   6.6601812  71.5892449  20.1496771   7.2182595  71.6306439  20.9262446
   6.4121758  72.4988308  19.9841860  74.3479364  39.0268603  10.6537751
  73.9772217  39.7744837  11.1226729  73.7096064  38.3247700  10.7796028
  62.8724003  74.4133663  47.1328259  62.5142765  74.1424036  47.9781437
  62.1419334  74.3181181  46.5216160   7.6023335  44.2430973  41.8500376
   8.1962341  44.1467619  42.5944996   6.8296761  43.7327242  42.0924330
  72.4048849   8.8103748  51.0091591  72.3859116   8.6392475  50.0675726
  72.3964831   7.9415203  51.4107180  45.1571894  58.6445951  42.9949093
  45.5982590  59.1449451  43.6814499  44.8899746  57.8321505  43.4247541
   7.0993370  74.6950722  46.4548206   8.0411190  74.8640537  46.4815474
   6.8223995  75.0174427  45.5971384  10.5372477  61.6042328  59.9846125
  10.6844878  60.7849312  60.4571533  11.1712551  61.5845442  59.2677593
  77.0840784  68.2887329  36.6461447  76.6778132  69.1418971  36.7987707
  77.1914192  68.2410659  35.6961802   3.2684273  46.0501289  60.9531927
   3.2513565  46.8724298  61.4428473   2.4791760  45.5873823  61.2345886
  16.2535515   4.2139364  63.6378574  16.6429796   4.8039604  64.2831802
  16.0085478   3.4371544  64.1406631  60.2437421   0.0825954  55.9876680
  59.9749466   0.9806849  56.1811161  59.6010204  -0.2276443  55.3497887
  14.1679335  74.3678617  49.1364574  13.3956039  74.9331617  49.1497469
  14.6695423  74.6654654  48.3774757  78.1889530  68.2809152   2.1511105
  77.8497215  68.9858283   1.5995196  78.4357163  68.7139096   2.9683331
  54.7558495  11.5044476  54.7290468  54.2653223  10.9699036  55.3534508
  54.6362063  11.0617043  53.8888693  14.7420540  13.6640335  57.4524641
  15.2485838  13.2859303  56.7336512  14.1192951  12.9781891  57.6933336
  29.7042261  32.5719347   8.8543156  28.9851795  32.4661246   9.4772223
  30.4958569  32.4753609   9.3836811  13.6995970  24.8995438   7.3739270
  14.0632998  25.4038849   6.6461924  13.3370649  24.1143933   6.9636372
  61.9934416  67.8550625  47.8356886  62.4449301  68.4267378  47.2147369
  62.6487303  67.2012997  48.0794668  29.3578291  68.2737827  55.3124380
  30.2500653  68.5603523  55.1174355  29.4299698  67.3260117  55.4253912
  21.9080817  58.2973519  10.8070687  22.5737177  57.7314701  11.1981419
  21.4112746  58.6335793  11.5529660  50.1388407  63.5471487  63.5150957
  50.6908274  62.7797270  63.6654377  49.2458725  63.2301378  63.6505365
  56.1030340  68.1172180  50.9225702  56.5992165  67.9892445  51.7310619
  55.2381802  67.7534866  51.1122084  16.7268978  69.4579449  17.4588850
  17.5274693  69.9801579  17.5099352  16.0778176  69.9664726  17.9450205
  50.9036264  15.7648554   4.9821881  50.3875651  15.1451006   5.4977682
  51.4601047  15.2136603   4.4319609  61.1538363  46.2040520  45.1721382
  61.0858202  45.2650452  44.9992895  62.0946455  46.3804150  45.1701832
  18.5454403  36.7254915   5.0763872  18.2358061  36.8466511   4.1787890
  19.1651474  35.9981671   5.0198534  30.7720600  37.5800839  12.2584942
  30.1154171  37.7895489  11.5942839  30.4267823  36.8043556  12.7003744
  53.7402092  59.5512429   7.6077774  54.0218674  59.2169705   8.4593418
  53.2658469  58.8216915   7.2090700  56.8447720  16.8925514  26.3721064
  56.5136086  16.1393013  25.8830527  57.5474392  17.2432938  25.8248690
  47.9868339   1.2273684  23.4194067  48.5862742   0.7840338  24.0196970
  48.4011747   2.0731201  23.2483557  40.2253580  57.7943039  62.4912167
  39.7911501  57.2972918  63.1845236  40.8670044  58.3359671  62.9506922
  60.6116104  68.2979536  55.8845711  60.7537270  67.7914238  55.0849056
  60.5114222  69.2004585  55.5817842   8.3563605  69.2740645  27.6220873
   8.2208815  69.2726745  28.5696486   8.8398829  68.4665002  27.4480799
   3.7751185  45.8962574   6.9793919   3.3178912  46.7355385   7.0320395
   3.6656653  45.6205502   6.0693148  41.4961468  31.2087431  13.9677409
  41.8306671  30.8612528  13.1409529  40.5505883  31.2751570  13.8345412
  32.8518200  71.4077616  44.9918222  32.6215124  72.0842361  44.3549728
  33.0858302  71.8932486  45.7828808  16.5613877  27.4496260  10.5351284
  17.4178110  27.8542605  10.3971413  16.4406716  26.8795767   9.7757223
  62.3238694  21.0986843  26.4180640  63.1370293  21.0457840  26.9202593
  61.6824471  21.4477196  27.0369128  30.5412661  29.5932856  36.7236307
  29.8278462  29.5685902  36.0859278  30.1030194  29.5705977  37.5743082
   5.5789458  40.3256598   7.3928145   5.0970351  39.6124449   6.9741038
   5.3321348  40.2718487   8.3160809  57.9605647  13.5615040  48.8287020
  58.4800073  14.2913795  49.1659021  58.1508919  12.8367687  49.4243193
  74.5407057  54.5878315  64.7186804  75.0439978  55.0959682  64.0824986
  74.9040222  54.8397207  65.5676699  75.9694402  32.1473017  22.9284552
  75.1791255  32.3508444  23.4286574  76.1354105  31.2220230  23.1088618
   9.7322284  55.7416191  19.2744330  10.2741944  55.0640621  18.8701704
  10.3301774  56.2113991  19.8558024  70.1341896  39.3362131   2.3490790
  69.8783378  39.3344631   1.4267090  70.7012718  40.1021042   2.4388817
  14.3034970  56.7377796  11.7385653  14.4646822  56.8061867  10.7975176
  15.1764761  56.6898098  12.1282271  62.3615428  14.2220474  46.1354303
  63.2876083  14.1443325  46.3647652  61.9196244  13.5947872  46.7076921
  47.3698139  73.4706974  55.8061314  48.1055880  73.7233210  55.2484131
  46.7995739  74.2394686  55.8131266  54.5698166  54.8397112  29.6909070
  55.4614019  54.6751881  29.9978924  54.2992163  54.0147495  29.2878652
  58.0743790  45.9987640  59.4605064  58.0577803  46.9021320  59.7765541
  58.9981413  45.7502270  59.4940233  11.8406760  13.1495800  16.5032938
  12.1627556  13.0144873  17.3944929  12.2984182  12.4910202  15.9807852
  46.2893378   6.7842188  13.1709603  46.8217264   5.9887448  13.1664017
  46.7555128   7.3877421  12.5924519  37.0796061  72.2892714  57.0166636
  36.6790009  71.7996311  57.7349997  37.1930385  71.6426897  56.3200331
  23.3870840  69.8781013  52.0856810  22.9156280  70.5792952  52.5354433
  22.6988959  69.3031645  51.7509127   7.0830160  56.7104530  60.5996943
   6.2090355  56.6039085  60.9752417   6.9788504  57.3979378  59.9418592
  69.1271226  50.0166741  32.3352984  69.3874721  50.4806462  31.5395716
  69.9132554  49.5407620  32.6031283  56.9758388  13.3151127  53.3226061
  56.7758533  12.3815895  53.2535124  57.5215145  13.3858276  54.1058493
  13.4311667  12.3658443  30.2991962  14.3763056  12.2176052  30.3303695
  13.0507031  11.4875103  30.3035331  73.0431458   8.8810135  27.3858452
  72.2413298   8.3620811  27.4493003  73.1479689   9.2671753  28.2554007
  71.4656115  71.3241100  53.5307884  71.8837976  70.7157326  54.1400766
  70.9350204  71.8938923  54.0876150  29.5207058  39.9509468   6.9598368
  29.2717539  40.5208388   6.2321833  30.4721867  40.0380507   7.0175913
  13.0975829  36.5194836  37.6812723  13.8370739  36.7996540  37.1419314
  12.3285185  36.8774500  37.2378424  46.5434122  69.0804100  48.9610243
  47.3872089  68.7703371  49.2897940  46.7496014  69.8952150  48.5029745
  65.4448414  62.2754622  49.9736786  65.2872753  62.5886059  49.0829802
  66.1455441  61.6300869  49.8802280  43.2536983  55.3148842  56.9121313
  43.2054806  54.9819756  57.8082800  42.6501751  54.7602510  56.4177942
  34.8447609  64.4733572  48.9875364  34.9508190  65.3222418  48.5581446
  34.1386938  64.6109247  49.6190214  46.9269371  59.3447208  53.5219097
  46.6005850  59.8321676  54.2783022  47.8518438  59.1926050  53.7159014
  59.3774557  48.9833260  39.6218348  58.7447643  48.7576246  40.3037357
  60.2270365  48.7522888  39.9974298  40.7661200  68.0677080  49.0257120
  40.2654743  67.4208689  49.5228863  40.1387835  68.4243155  48.3968210
  47.5367152  15.7498493   3.3204392  48.2601105  16.0711994   2.7822331
  47.4145542  14.8426714   3.0405548  12.1662842  48.9160481   2.8066138
  12.3582636  49.7189465   3.2910994  11.5884839  48.4191647   3.3858231
  34.7319876  21.0011807  22.8512266  34.4820105  20.9914627  23.7751559
  35.6791769  21.1389246  22.8608111  61.4752085   1.0137478   4.9636916
  62.1704180   0.5596558   5.4398421  60.9200652   1.3867489   5.6484679
  25.8841835  19.3950262  21.3451746  25.3627907  19.0067759  22.0477656
  26.2393271  18.6450806  20.8680037  20.4494797  45.3537598   0.9200981
  20.7612597  45.0489559   1.7722252  20.1016747  46.2289372   1.0913590
   0.2855244  22.1847607  44.2052126   0.8908405  22.2387100  44.9447441
   0.0340262  23.0924774  44.0348387  10.7865563  16.9771076  28.7467837
   9.9909725  16.8225647  29.2560983  11.1417380  17.7931763  29.0990877
  26.0912457   5.2541138  59.1615391  25.1880779   5.3677059  58.8655329
  26.1289444   4.3501974  59.4741726  22.4817787  55.0853195  35.5358961
  21.7452942  55.0693741  34.9246958  23.1603895  55.5834618  35.0802878
  15.3636776   2.9269543  15.0353506  14.7014939   3.2967844  14.4514206
  15.9753262   2.4792662  14.4508055  26.1067044  22.8348723   1.3778666
  25.5066048  22.8657761   2.1229580  26.6444718  22.0588579   1.5354803
  12.5250922  31.2954226   5.0406102  12.9716169  31.9660321   5.5574587
  12.4807249  31.6633024   4.1580418  18.4458910  25.2337256   1.4824322
  18.7204014  24.6060791   0.8139017  19.2165791  25.3426304   2.0395783
  20.2022635  15.9978523  27.6357725  20.8680044  15.5045738  28.1150416
  19.4592844  16.0444823  28.2374743  75.4217713  23.2794085   1.9028738
  75.4367916  22.4057760   1.5120152  75.9990375  23.8011637   1.3454083
  77.8047657  75.2767420  64.3133211  78.0775404  74.3601131  64.2730904
  78.6241579  75.7681608  64.3710709  62.5116359  18.1893339  10.8323887
  62.1949504  18.2985249  11.7290572  63.3794825  18.5931578  10.8340386
  25.2072417  19.0673199  16.7417792  25.2146755  18.1855288  17.1140936
  25.5925404  19.6182528  17.4231318  74.3241545   4.4799114  36.4577317
  74.9716564   5.1208378  36.1641550  73.8982102   4.8958469  37.2072625
  40.0911232  50.3234448  25.9410647  39.2918941  50.1779153  26.4473131
  39.8164519  50.2330567  25.0285796  21.8574190  69.7300863  39.2145276
  22.0212293  70.6664371  39.3269730  22.7091217  69.3650579  38.9745593
  77.9212376  12.5886227  43.9219761  77.9476305  12.0669247  43.1198692
  78.1717249  13.4693981  43.6431837  59.7690010  28.1086588  49.6755362
  59.8634052  27.2901320  49.1883659  59.2891932  28.6865544  49.0821934
  65.2109623  56.9922352  49.5535517  64.8909712  57.8144455  49.1823244
  64.4765663  56.3854551  49.4602346  44.2016537  -0.0065502   3.3626774
  44.9087698   0.3453938   3.9033774  43.8260682   0.7605473   2.9305533
  57.6366745  30.9971514  20.6238058  58.2974278  30.6560555  20.0210741
  57.9243695  30.7007447  21.4872912  22.0993220   5.3025809  13.8160446
  22.0045935   6.1349716  14.2790631  21.2079560   4.9588337  13.7565115
  39.1406098   8.4275890  60.1101875  39.3095818   8.3545948  61.0495281
  38.5051766   7.7356602  59.9266529  37.6102277   8.5334660  38.5316801
  36.6797825   8.3500172  38.6614919  38.0158051   7.6700569  38.4524655
  59.4637442  13.9842224  58.0682278  60.1854372  14.2536724  57.5000811
  59.4087839  13.0356860  57.9520893  71.2289572  45.5125141  43.6211300
  70.5549002  45.0169230  43.1560898  70.7400465  46.0893631  44.2080259
  69.8157883  43.8900757  42.1552706  68.9987087  43.4564447  42.4013853
  70.3097200  43.2199430  41.6828442  29.0761566  58.4801054  31.2816763
  29.7897887  59.0747404  31.5126967  28.7683463  58.7942648  30.4315066
   3.5480958  65.8310556  56.6734934   3.8907328  66.6935682  56.9078016
   2.6103610  65.8879375  56.8569326  21.9380556  56.0596028  27.8700903
  22.2111689  56.9769707  27.8787878  22.0824324  55.7582131  28.7670592
  68.9442401  31.8838492  14.6221093  69.8317079  32.2300043  14.5282534
  68.5174875  32.0901718  13.7905196  55.5781841  72.4798155  58.6769438
  55.4303741  73.4056187  58.8699961  54.9765968  72.2860384  57.9580736
  51.8119427  15.6397129  46.0150623  52.7400395  15.5120350  46.2114477
  51.5888234  14.9149776  45.4309273   6.9459688  54.9769821  10.6054381
   6.8222677  55.8118859  10.1539210   6.0846626  54.7713223  10.9688834
  17.6730620   2.9037419   8.4641865  18.2360636   2.7859583   7.6990774
  17.9280459   2.1992388   9.0599135  28.8636910  45.9433212  30.8551768
  28.3450924  45.1425686  30.7771090  28.3301007  46.5221157  31.3997057
  77.6131265  57.4307003   7.7775935  77.8208725  58.2169285   8.2824925
  78.3969538  57.2692242   7.2524575  34.0123593   0.1597300   0.6162575
  33.2679354   0.4642740   0.0973061  34.3961273  -0.5447612   0.0941065
  65.2272411  21.5722347  27.2008753  65.8989664  22.1647907  26.8633938
  64.6601649  22.1309067  27.7324224   5.7593102  58.9013529  43.7645197
   5.5987686  57.9754257  43.5825348   5.7441181  58.9638805  44.7195578
  67.2643142  13.9381781  28.0036047  67.9235952  14.6050062  28.1957606
  67.3939495  13.7330189  27.0776823   4.3506657   7.0334759   5.2578905
   4.0671836   7.9185190   5.4871777   3.6485993   6.4667549   5.5775145
  74.5038029  13.3997036  44.0967894  73.9744993  12.8815628  43.4904861
  74.9436136  14.0431286  43.5410976  76.6063587  23.3671561  34.1476992
  75.9107868  23.8230934  33.6738566  76.3914602  23.4965172  35.0714567
  66.5938902  45.1494217  55.0927067  66.9287539  46.0448551  55.0447655
  66.5003252  44.9785519  56.0298729  24.2889963  16.4175072  25.7054308
  23.9441429  15.7384005  25.1256731  25.1366173  16.6488877  25.3256491
  78.6478393  16.8653050   7.0600775  77.8194825  16.9203558   7.5365475
  78.4585278  17.2518864   6.2051228  34.9038386  53.0021048  33.6131120
  34.6066499  53.7408638  33.0819321  34.3293357  52.2792482  33.3608055
  16.0918175  25.0031557   8.5753468  15.1951443  25.1253548   8.2634571
  16.5752398  24.7064200   7.8043154  60.6005049  54.4250679  26.3491440
  61.0770512  54.9449635  25.7019639  59.8213053  54.9446201  26.5469956
   7.1792113   1.7209807  11.7437247   7.3958718   0.8844319  11.3320473
   6.3320409   1.9605150  11.3680151  43.3927202  57.9325104  50.6799936
  42.9201174  57.8134966  51.5038347  44.1424704  58.4808969  50.9110355
  34.7561346  29.8389616   2.5148991  35.2468668  30.2194729   1.7864540
  35.2756487  29.0813294   2.7838448  70.0377985   0.0602556  38.3981466
  70.6255718   0.1068426  39.1521931  69.1972252   0.3759457  38.7298203
  77.9392068  25.6366911   9.5986775  78.0343787  25.6391850  10.5511311
  77.1468656  25.1240816   9.4384840  66.8261576  42.2499561  63.4392023
  66.0990906  42.0027304  62.8678131  66.5006161  42.0881462  64.3246841
  52.6111460  64.4952536  64.8921108  52.5360250  64.3874741  65.8402538
  52.0579243  65.2504110  64.6923256  65.8439671  26.7282429  26.6515330
  64.9640785  27.0906010  26.5480498  66.1384522  26.5552416  25.7573393
   5.9040108  29.4140411  52.6820421   5.9400501  29.7815586  51.7989445
   5.2187863  28.7472607  52.6361942  49.4539833  66.1220455  52.8085947
  49.5851421  66.2551260  53.7473822  49.4733953  67.0038223  52.4366713
  65.3730889  21.9494606  64.9198294  65.0012323  22.1149994  64.0534878
  64.6608397  22.1472240  65.5279636  59.2424297  38.3255291  60.3086519
  60.1138306  38.7214017  60.2955580  58.7159491  38.8864565  59.7390795
   6.2078705   0.3555990  56.5121508   6.5476122  -0.5335831  56.4113379
   6.9025650   0.9177423  56.1691856  62.9099941  72.9182148  29.1188645
  62.7108288  72.0686626  29.5123458  63.8254166  73.0793524  29.3474793
  70.7768397  35.0456324   4.0967158  71.2747531  35.7126513   3.6240605
  70.9490530  35.2279558   5.0204733  32.9755389  38.4635201   5.3800753
  32.1996104  38.4062996   4.8224953  32.9295861  39.3385306   5.7654026
  36.5944615  30.8893467  32.3808289  37.0916214  30.2488304  31.8721151
  35.8363285  31.0936523  31.8333435  18.6851870  10.4063549  10.0691536
  17.8696286   9.9458256   9.8716429  19.3634402   9.7350636   9.9945191
  42.2401081  70.7014122  24.1315726  42.9792105  70.4328861  23.5858134
  42.1096455  71.6258087  23.9201430  43.2505989  65.7302666  27.3868799
  43.4680462  65.1037073  26.6966820  42.3752260  66.0433722  27.1590281
  71.3023802  46.2372757  56.4114571  70.9473702  45.6830193  55.7164717
  70.7221409  46.0868145  57.1577263  22.7419892  17.9057766  35.9764695
  23.3491316  17.9971958  35.2421355  22.1744623  17.1759201  35.7285786
  21.9429817   2.0177771  60.4533815  21.8843880   1.5977741  59.5952463
  22.6934328   1.5985752  60.8744764   2.5862208  48.9024235  53.0662251
   3.1790199  48.2662750  52.6660538   3.1648770  49.5678402  53.4385252
  74.3900677  14.8001648  32.2588205  74.6623894  15.7161213  32.3144960
  75.0851294  14.3736816  31.7575955  25.2254616  36.9530287   8.5817364
  25.8037936  36.2266722   8.8144759  25.7877003  37.7269879   8.6150292
  53.6461735  73.4760952  29.5532656  53.7970304  73.5836792  30.4923606
  54.5185995  73.3365870  29.1849709  58.2586575  55.7875919  56.4478779
  59.0688038  55.9490442  56.9314384  57.5625420  56.0193539  57.0626450
  28.6152922  44.3720284   2.2024945  28.1837736  43.5547772   1.9532612
  29.3308436  44.4664803   1.5737656  18.3908926  50.4147282   5.1518944
  18.9915882  50.9922924   4.6809271  17.5529372  50.8771649   5.1370171
  19.0681111  70.8710327   0.7892731  18.4864746  71.2021389   1.4735964
  19.9450957  71.1249390   1.0767916   6.9581356   6.0029770  61.8792772
   6.4840021   5.5068470  61.2119818   7.5208607   5.3557087  62.3042536
  79.7547861  20.6229378  32.9418373  80.0894447  21.4958454  32.7362370
  78.8172241  20.7532383  33.0840540   4.1632608  71.1167287  58.7823868
   4.1599707  70.7007660  59.6444750   5.0200371  71.5394854  58.7237024
  62.5653437  70.2163272  42.1976042  62.2839323  70.7601317  42.9333448
  63.2068697  70.7543545  41.7337036  27.1494198  15.1292169  55.5566311
  26.9871187  14.2643452  55.1799536  27.6267171  15.6017613  54.8746347
   7.1406559  50.5931806  19.3822408   7.2999100  51.4846634  19.6922863
   6.5941481  50.1975035  20.0612116  69.6140286  46.7609431   9.4065836
  70.3277060  46.7304100  10.0437382  69.7665354  47.5677450   8.9146021
   9.1354203  27.4444652  35.9635949   8.5313272  28.0160975  35.4897404
   9.9092662  27.9870105  36.1153769   1.6596213  22.7581501  33.0149531
   0.7534902  23.0384731  32.8862000   2.1820623  23.5316443  32.8028345
   4.5101312   7.6084739  62.5099516   5.3681910   7.2079241  62.3702145
   4.4745591   8.3255029  61.8768311  79.0855679  13.1353283  40.9155416
  79.0647641  14.0440214  40.6154156  78.6935395  12.6371741  40.1983309
  45.9260603  49.0105869  11.1196068  45.4265340  49.8179485  11.2415627
  45.2998062  48.3110298  11.3057736  75.7141366   1.2724969  31.7853999
  75.0660926   1.5944651  32.4119830  76.5101188   1.1539650  32.3036599
   6.4654887  20.2687097  53.8547421   7.2277957  19.9541283  54.3407059
   5.7324535  19.7627771  54.2053461  22.1299648  34.4167590  54.4453716
  22.8308892  34.2127037  55.0644827  22.4879050  35.1179838  53.9009476
  76.6279360   3.2142037  46.1059523  76.9134328   3.4386274  45.2203131
  75.8031022   3.6866266  46.2186384  18.3279622  11.6460621  51.0732841
  17.9158413  10.7860899  51.1559677  17.5949097  12.2559905  50.9904957
  72.9904335  14.4646919  47.4681950  72.1422392  14.9021363  47.3944378
  73.1202662  14.3510902  48.4097195  12.5226740  61.7606389  52.7451801
  13.3300356  61.6860281  52.2364283  12.2947434  62.6891040  52.6979351
  50.2519542  20.7029819  27.7796459  50.8394748  19.9957681  28.0459166
  50.1607042  20.5949140  26.8329525   2.9328200  56.5505816  25.6990126
   2.3515650  55.8645703  26.0272864   2.9407354  57.2100414  26.3927534
  32.6621606  33.7854882   3.6375359  31.7144670  33.7379261   3.5116509
  33.0132862  33.9334653   2.7594450  33.4021616   2.7524215  18.4879124
  33.5432863   3.6856055  18.3282781  34.1833401   2.3279351  18.1332242
  79.0170107  71.7040857  60.1148605  78.4179625  71.0013925  59.8626804
  79.7275147  71.6541346  59.4753933  24.2165347  42.7979656   3.8905743
  23.7512415  42.6893981   4.7199992  24.7580903  43.5765721   4.0198830
  44.6680602  57.3255672   7.0864180  44.9159464  56.7381694   7.8003815
  44.2199334  56.7611064   6.4564970  14.7363222   3.8514152  61.5765667
  15.1198459   3.0176255  61.3046503  15.3672528   4.2137474  62.1985579
  23.9386382  26.2340905   9.3745449  24.4315486  27.0294239   9.5763281
  23.0303609  26.5272500   9.3015936  72.6203650  30.0998712  33.9599252
  71.8471139  29.9170876  33.4261584  72.2676205  30.3811169  34.8041415
  24.5621276  24.5960283  64.4382191  24.7663927  23.9506674  65.1149893
  24.0767670  25.2805662  64.8987246  50.0364262  10.8185136  45.1804781
  49.9785739  10.0617266  44.5972490  50.8586222  10.6933916  45.6543684
   8.8673118  71.3279658  37.8963137   9.1760377  71.6874217  38.7280059
   9.6665481  71.0846918  37.4291229  37.8400421   5.0400466  24.8723888
  37.3090243   4.4517818  25.4092288  37.3098755   5.1949149  24.0906167
  40.6476402  18.0812800  24.5848131  40.4522610  18.9068532  25.0280833
  41.1504841  18.3376682  23.8117385  17.3578846  11.3514209  45.0426865
  16.8769705  11.7873895  44.3392038  18.1878519  11.8253994  45.0949383
  31.1317083  47.2143777   6.6626385  30.9695383  47.4077012   5.7392958
  31.5275579  46.3428719   6.6589382  22.9384184  34.7910738  41.5731049
  22.2625494  34.3743062  42.1076536  23.7171435  34.7922230  42.1297169
  30.6282353  32.7866364  50.4103422  30.8338547  32.2379851  49.6534204
  31.3806701  32.6828647  50.9928465  55.3727483  63.5576998  59.4701958
  55.7319233  63.3479880  60.3323126  55.9564457  63.1157528  58.8535833
  18.5643661  26.1580896  33.7698412  18.5397649  25.2178264  33.5922623
  17.8327227  26.3079834  34.3685555  56.6892310  53.5077264  17.5849512
  56.9437619  54.0128543  16.8127516  55.8758780  53.0726828  17.3291663
  73.1665510  16.1200762  41.4453888  72.8010308  16.9882298  41.6154957
  72.4330592  15.6162906  41.0926533  67.9976421  21.5639186   8.1511974
  68.8895315  21.5905929   7.8047103  67.4686438  21.2323022   7.4256480
  62.2825473  21.6190219  19.8600173  62.2777778  20.7079887  20.1536679
  63.0584985  21.9993162  20.2717304  48.3897791  71.5023645  19.6844304
  48.0189524  71.6272460  18.8108611  48.1687323  70.5991649  19.9115884
  47.2577115  48.8053753   8.6714676  47.2371002  49.7108640   8.3617953
  46.8174335  48.8326849   9.5209626  47.5627089   6.4508194  64.6801949
  47.9212236   6.2071168  65.5336046  46.6817522   6.7715752  64.8732424
   6.6342741  14.5383048  42.6072931   5.7906890  14.5307207  43.0595541
   7.2812808  14.6152401  43.3085060  11.1199494  48.4467127  15.1791170
  11.6430851  48.8823618  14.5062378  10.2681585  48.8815512  15.1391390
  21.7475820   0.7290206  55.8244991  21.4051175  -0.1286284  55.5727291
  22.0059919   0.6243379  56.7401981  64.3490141  18.5632396  42.2345257
  64.3390411  19.0624738  43.0511665  63.4543448  18.2354093  42.1432781
  25.5252460  65.1316582  37.7447534  25.1990084  65.2591132  36.8539381
  25.9497742  65.9607445  37.9652643  20.0984406  27.7055049  29.6092796
  19.5673656  27.2242117  28.9748144  20.8008957  27.0987177  29.8429370
   7.3439813   5.2716660  58.3970976   6.4434814   5.3466320  58.0813265
   7.8058195   5.9981370  57.9785585  18.9190936   2.9781669   6.1415237
  18.5576296   2.4676156   5.4170144  18.9951837   3.8667357   5.7938349
  16.8276342   6.3868417  22.7641466  16.8698283   6.4376487  21.8092326
  16.6341748   5.4673542  22.9467657  76.3217109  26.6426516  51.5351057
  77.2163263  26.9782829  51.5920925  75.7805508  27.4227262  51.4131927
  64.9496644  30.6164169  25.0886202  65.3704685  30.9740734  25.8704376
  64.0865987  30.3324628  25.3898168  65.0584183  58.2957732  58.2808685
  65.5986521  58.8115596  57.6822519  64.2039547  58.7268709  58.2641697
  40.0074431  46.6826286   9.7209147  39.8766597  46.8475916   8.7871531
  39.9274810  47.5443651  10.1298788  56.8102842  24.4113827  50.1397419
  56.4104467  24.9577808  50.8163595  56.8728834  24.9841404  49.3753719
  49.8982435  16.6582036  28.9288640  49.4712978  16.0583317  29.5405054
  49.3627530  16.6138101  28.1367064  71.1178750  37.3988748  59.9788332
  70.8873284  36.8187952  60.7044983  70.5500406  38.1611276  60.0918293
  21.1167502  31.9815159  40.9506607  20.8179998  31.2710714  40.3829908
  21.9722962  32.2262478  40.5979872  36.3429711  68.3023434  37.1647739
  36.4158962  67.6002954  36.5182114  35.4122076  68.5256385  37.1719217
  73.9972365   0.0552124  49.7809458  73.9206421   0.9112947  49.3596506
  73.2028323  -0.0237664  50.3090715   2.1869274  24.5654990  30.7868555
   2.9972383  24.0847792  30.6179312   1.5083953  24.0531720  30.3471449
  12.5697458  10.7601440  20.9819913  12.3606992  11.0492706  21.8702126
  13.4722495  11.0471368  20.8428669  51.9194746  14.0990257  63.9881516
  51.2018490  13.6534715  63.5378981  52.6783085  13.9652681  63.4202528
   9.5902113  69.4176572  52.1414995   9.0386394  68.6413514  52.2381973
   9.7395829  69.7184967  53.0378342  71.7084143  73.7631473  30.6628275
  70.8891795  74.1202507  31.0057044  71.4543447  72.9412126  30.2431798
  17.7702892   0.9279288  52.6070499  16.8565917   0.8415491  52.3351526
  18.2489383   0.3316878  52.0311832  55.7497474  55.6446208   0.8201435
  55.5015775  54.8844089   0.2941016  56.1092373  55.2718128   1.6251353
  14.0211308  15.9683681  47.3972940  14.6916437  16.3544774  47.9608202
  14.0604246  15.0307965  47.5860977  25.0361272  33.5451411  22.1807841
  24.1631580  33.4150960  22.5512484  25.5974330  33.7027754  22.9399470
  74.2399841  25.8458090  30.4202247  75.0067073  26.1877179  30.8800793
  73.7254202  26.6228414  30.2018785  30.0269341  32.1382189  61.7128849
  30.5361533  32.2065067  60.9052563  30.6752920  31.9409800  62.3888731
  25.5056620  17.4203253  39.7099066  24.8748255  16.7410231  39.4715214
  25.2355027  18.1863928  39.2035580  72.7702699  55.9525691  49.0181065
  72.3895404  56.0285353  49.8930407  72.8483758  55.0098299  48.8719177
  66.3671801  74.0022420  51.5094280  66.4150021  74.0351242  50.5539894
  66.0184011  73.1318901  51.7019701  39.2410684  15.9759009  19.4834995
  38.4214330  15.5260813  19.6886635  39.3449235  15.8652723  18.5384023
  42.9706573  22.8621244  48.5039377  43.6094952  23.0086064  47.8063250
  43.4990311  22.7664757  49.2963457  47.2967192  36.1963679   8.3132723
  47.9260059  35.9670998   8.9971331  47.3422905  37.1507694   8.2560614
  34.6850204  10.4741430  16.9293058  34.9288654  11.2770212  16.4687002
  35.3711867   9.8478770  16.6986597  21.2008762  33.4000349  32.0970464
  21.4766741  33.4307027  31.1809540  20.8055425  32.5343060  32.1993065
  57.8097335  32.0508932  43.6137486  57.4955243  31.1607765  43.4550047
  57.1775008  32.6117729  43.1643820   2.3197913   4.6397421  59.3363380
   2.3926274   5.1308745  58.5179758   1.7386332   5.1691175  59.8824596
  17.1044731  15.2003264  45.6089258  17.2872055  15.7834184  46.3457060
  17.2647989  15.7373762  44.8329735  17.1304134  37.4189972  34.7940493
  17.2238067  37.5987243  33.8585234  17.6447491  38.1035279  35.2219629
  36.4579799  34.5543732   2.3018578  36.7403957  34.2181726   1.4512995
  35.7781198  35.1948363   2.0925024  67.5835711  11.8082237  54.9222898
  67.8622526  12.0307255  54.0339994  68.3664387  11.9360828  55.4580164
   8.2686561  20.0572348  37.6979518   7.8426677  20.2603364  38.5307264
   8.9126456  20.7558012  37.5817013   7.7240962  21.8961763  32.8993773
   7.2132766  22.6760769  32.6824665   8.6285180  22.2066283  32.9426503
  32.8653625  72.5227212  47.7923393  32.4054960  72.2662952  48.5917139
  32.2377876  73.0697686  47.3199844   5.5120615  69.0772199  41.8423653
   6.0808400  69.5059787  42.4818087   5.4451374  69.7046994  41.1226273
  34.1127062  18.6403632  19.1568816  34.8794842  19.1802096  18.9649165
  34.4351053  17.7404130  19.1080868  44.5058232   9.8607624  19.2634523
  45.1368552   9.1587436  19.1047037  44.4868523  10.3555286  18.4442580
  49.5638895   7.4085039  41.3645315  48.9099836   7.4518257  40.6668472
  50.3568125   7.7745157  40.9726954  74.1200918   4.8305604  47.7377605
  74.3982017   5.2899760  46.9454050  74.7256797   5.1325315  48.4147453
  25.0141654  74.3367811  38.1114173  25.9221706  74.1858756  37.8487682
  25.0651274  74.5352909  39.0464211  43.5454401  47.3869564   1.9036558
  42.7127072  47.6598086   1.5185049  43.3021530  46.9732966   2.7318648
  23.1434345  34.5745158  48.6344481  23.5836196  33.7758875  48.9254189
  23.8288856  35.2425814  48.6432171  39.5587810  51.3368072  15.3320483
  39.2942723  51.2024702  16.2421110  40.3087696  51.9291629  15.3855494
  56.2782761  71.8736948  39.2199686  56.3019630  70.9253229  39.0924433
  56.1907741  71.9859733  40.1665190  75.0217607  62.0582308   0.2909592
  74.3362429  61.8708362   0.9321907  75.7710316  62.3387756   0.8164337
  23.9464712  28.1836534  24.8682332  24.2018914  29.0738034  24.6261072
  23.0260611  28.2587194  25.1201177  19.9249323  69.3118180  17.3057631
  20.5147501  68.7667860  16.7849139  19.5344850  68.7070288  17.9366473
  71.9063902  29.4891787  42.2835064  70.9686619  29.6201563  42.4240160
  71.9580263  28.7265134  41.7073917  13.1483412  11.3336265  46.5496349
  13.9878213  11.3588417  46.0904312  13.3664763  11.5382576  47.4589062
  24.6476436  15.8736038  34.0875816  23.8469744  15.6386900  34.5565963
  25.0397539  15.0340176  33.8476300  66.3886342  65.8838355  37.1511769
  66.1249206  66.6471290  36.6373014  67.2979567  66.0601633  37.3925781
  17.4040210  -0.1951657  37.3401594  17.7905560   0.5171899  36.8308759
  16.4816165   0.0454495  37.4267960  34.1980481   9.3271685  46.2468433
  35.1106572   9.5420378  46.0539532  34.2446327   8.7388927  47.0004940
   4.1789893  65.1803767  37.2540259   3.6817221  64.7812807  37.9679441
   5.0565366  64.8068332  37.3353171  18.5565857  50.6523847  28.6342311
  18.2662586  49.7695517  28.8634729  18.6205295  51.1088776  29.4731331
  61.0959932  30.2412690  16.6112593  61.3365909  29.8655911  17.4581412
  61.2277576  31.1829998  16.7208651  15.5152277  44.4217705  24.7884226
  16.3452772  44.8964523  24.8322511  14.8625473  45.0519084  25.0936580
  71.5821860  56.3392996  51.5473652  71.9935140  56.9796525  52.1278763
  70.7583961  56.7493533  51.2838173  45.6153306  57.0330276   4.3385104
  46.2697419  56.3412132   4.4353178  44.8640271  56.7246236   4.8451308
  25.2406716  32.6102877  49.3482637  25.0445271  32.6528549  50.2841806
  26.1808157  32.7813339  49.2925549   9.9601054   6.3915730  48.9960003
  10.2146637   5.6268513  48.4796333  10.7198715   6.5700722  49.5501900
  61.9541094  72.5068145  53.7267208  61.6374270  72.3705768  52.8337574
  62.5389150  71.7666112  53.8889980  34.1531243  61.4981593  21.6683653
  34.8941769  61.4475431  21.0646132  34.0308370  62.4354209  21.8194178
  40.8431789  28.9582737   3.1904820  41.4545103  28.3084907   2.8436592
  40.8668872  29.6730103   2.5542286  41.8775133  71.8086486  37.4914241
  42.5022177  71.4879470  36.8409443  41.0197214  71.6587075  37.0939946
  69.6716338  19.8490810  26.7622685  70.4877352  20.2928162  26.9931579
  69.6282989  19.1017354  27.3587799  41.9223162  33.7280549   6.8090657
  41.2963947  33.3034249   6.2224272  42.4163099  33.0052279   7.1960047
   9.3563157  35.1745653  24.2896295   9.9399966  35.0186539  23.5471725
   9.7982109  34.7629046  25.0322556  67.0183607  60.9357466  17.8201750
  67.9412171  61.1897434  17.8133372  66.7925974  60.8784403  18.7486056
  49.9298334  10.8624911  39.5878720  49.1155720  10.7043970  39.1101480
  50.6132126  10.8125973  38.9194942  21.5179491  21.7739654  30.9309721
  20.7532525  21.9654608  30.3880167  21.9970703  21.1046767  30.4423738
  32.7575970  22.1191406  35.6457281  33.4725189  21.4996672  35.4995418
  31.9764280  21.5706801  35.7178450  25.2535987  25.3262210  33.3472967
  25.8711791  24.9264765  33.9596915  24.6213841  24.6329117  33.1579351
  79.7308287  55.6752287  18.3520496  79.2865023  56.1388718  17.6422310
  79.1619215  55.7987856  19.1118586  31.2375069  30.7217717  23.3484674
  31.9720364  31.2832093  23.5964322  30.5858469  31.3243198  22.9899907
  16.6797054  26.5344620  17.3989749  16.9145846  25.8053970  17.9730201
  16.6509128  26.1498594  16.5229142  15.1543665   6.3861924  58.4478903
  14.4863379   6.7404056  57.8609467  15.8784354   6.1462879  57.8696156
  47.8230476   7.3720616  48.9590740  48.0136633   7.7559215  48.1031847
  48.3808184   6.5953982  49.0028334  43.8970991  54.2051567  20.8061484
  43.2612034  53.9228310  21.4635351  43.4519752  54.9040975  20.3270033
  41.2118864  15.5610609  32.4269199  41.4798784  15.2374995  33.2869887
  42.0314121  15.6607389  31.9424963  27.0601389  63.8462605   1.5077236
  27.6251584  63.3774056   2.1218565  26.7056795  64.5751299   2.0169762
  79.7908742   1.6957001  21.0278177  79.8305801   1.2787536  21.8885207
  78.9161540   1.4862673  20.7003498  73.7909756  70.6792106  34.4749379
  74.4081101  71.3959973  34.6218824  73.2933960  70.9462138  33.7020516
  54.4295069  35.2635688   4.8900393  54.1781875  36.1255214   4.5582131
  53.9877363  35.1946043   5.7363919  40.8705139  49.0038395  18.1842852
  41.6752815  49.5071983  18.0609524  41.1197710  48.2952309  18.7775636
  13.0307353  43.2071352  64.8693800  13.1601453  42.6514626  64.1008043
  12.8824747  44.0819311  64.5102406  43.0131384  64.7276272   0.4874543
  42.2767337  65.0780763   0.9885767  43.3906909  64.0554847   1.0548285
  79.1441545  66.0233693  29.9334764  79.3746886  66.8090605  29.4377208
  79.9859319  65.6401365  30.1800036  14.6790174  70.8130621  35.3830004
  14.4171909  70.2242064  34.6752381  15.3635601  71.3604345  34.9982738
  78.4697953  17.9058659  63.3412361  77.7333128  17.4609756  62.9218292
  78.1008643  18.7282908  63.6633205  32.6387572  21.2360811  52.7112007
  33.5681295  21.0086417  52.6834583  32.3123908  20.8135533  53.5056734
  35.3329492  13.4115326  62.2115898  35.2616835  13.3692575  61.2579823
  36.0463810  14.0293825  62.3712969  36.0332158  48.6198427  20.2186373
  35.9660509  48.7074985  21.1694506  36.4041420  47.7477469  20.0841215
  75.4207125   1.9988790  58.3382511  76.0962975   1.5787175  57.8060102
  75.3284582   1.4290008  59.1017723  51.4275080  28.8015771  50.8221483
  50.6714469  29.2464232  50.4391146  52.0772511  29.4941020  50.9424591
  52.9982853  24.1897345  40.5583239  53.8067293  23.9225721  40.1209736
  53.1104374  25.1269484  40.7173300  20.3777269  69.7342162  46.8802834
  21.0006813  69.3264358  46.2787247  20.1955322  70.5901699  46.4924955
  22.3229432  18.3151007  20.5129242  23.1898665  18.1233919  20.8705831
  21.8364143  17.4968171  20.6125975  75.6308630  35.2568412  34.9948502
  76.4281320  34.7277951  35.0214028  75.5801227  35.6572866  35.8627796
  16.5658221  70.8089783  37.6227832  15.8676467  70.9101783  38.2697296
  16.1614928  71.0611277  36.7926216  49.0442058  47.9856207  11.7436722
  48.2110568  47.9578139  11.2732294  48.7966367  48.0104520  12.6679734
   4.5581588  17.5051129  53.1960773   5.3400558  16.9572103  53.1277275
   4.3604052  17.5245321  54.1324282  45.2424479  26.6021943  48.1086969
  44.6761608  27.2431231  47.6788616  45.3876972  25.9278035  47.4451256
  78.5821454  32.5458646  42.3417521  78.2122603  31.8013954  41.8672180
  77.9956555  32.6695013  43.0880594  19.6984613   3.0408975  52.4938965
  19.0635073   2.3359540  52.6208544  19.9223638   3.3241028  53.3804035
  72.8184902  29.4836736  21.2548661  72.3713994  30.2014685  20.8064103
  72.4880439  28.6925435  20.8292532  30.1757836  23.6400867  45.1658583
  31.0509229  23.9663267  45.3754520  29.5814466  24.2810726  45.5559015
  35.0919151  13.8055503  34.8531651  35.8435869  14.3981838  34.8510003
  34.8464322  13.7334311  35.7755375  75.7765099  49.3385579  12.6235369
  76.3374945  49.8003830  12.0004443  75.9827229  48.4132351  12.4913052
  75.0672088  65.0212442  48.1838894  75.6291113  65.7947766  48.1375599
  74.3652449  65.1972531  47.5573921  34.6554756  13.1894910  59.1485214
  34.5464253  12.3097146  58.7875032  35.4946637  13.4894156  58.7991810
   4.0088353  23.0825257  42.8734016   3.3432296  22.4512815  42.6000261
   4.7616503  22.5451732  43.1198883  77.1518942  32.1054669   0.8088473
  77.7472254  31.3619448   0.7140377  77.1216723  32.2694262   1.7514160
  20.1283193   9.6357161  45.7931280  19.9868119  10.5259669  45.4711676
  20.9942675   9.6630180  46.2000942  22.8829885  15.0617385  57.9959631
  23.1127167  15.9907532  58.0156708  23.7155342  14.6121621  57.8511047
   4.9919164  30.3264022  57.8447580   5.4950267  31.1247754  57.6844072
   4.7338474  30.0267911  56.9730568  32.5261597  69.5851581  41.5766382
  33.1281284  69.7591453  42.3002386  32.7105001  70.2760648  40.9403229
  51.8384405  39.1659860   4.8367337  50.9961744  38.7559773   4.6399859
  52.4849363  38.5985726   4.4168309   5.4804631  58.6187162  11.4652899
   4.7571441  58.6837067  12.0888451   6.2679359  58.6374392  12.0091322
  14.7892193  61.2004661  49.4119883  14.1980938  61.8469953  49.0262413
  15.2943567  61.6934668  50.0585318  22.6494861  42.1258020  32.7191019
  22.4009323  41.6197824  31.9455433  21.9052386  42.0348215  33.3141232
  56.4053055  33.2766752   5.2715805  56.8401142  33.0134528   4.4604758
  55.9031650  34.0556543   5.0322512  24.4774485  16.9069862  55.8607054
  24.2680812  16.5657282  54.9912548  23.6256170  17.0785522  56.2621737
  31.8868351   3.0856392  45.5957890  31.3764191   2.3910223  45.1796007
  32.7864099   2.9255974  45.3105116  52.8608080  55.1747193  18.1374720
  52.9680081  54.2235924  18.1275538  53.2898875  55.4724838  17.3353079
  28.5347939  34.6468616  53.2658386  28.3454537  35.5086660  53.6368847
  28.1187773  34.0301132  53.8681555  30.8160758  28.4190488  46.3247681
  30.5618548  27.5787449  45.9433365  30.8417010  29.0215516  45.5814219
  24.9154095  70.1562606  55.4958630  24.3314461  70.6280600  54.9020386
  25.7938675  70.4420196  55.2451038  29.2643690   0.3066368  56.6021442
  29.2474723   1.0826080  56.0419512  29.4960403  -0.4101330  56.0115480
  77.4667249  15.0726628  36.9052577  77.2651398  14.7771549  37.7931046
  76.9387531  14.5091724  36.3396096  11.7235613  16.7624903  48.8063192
  11.3950813  15.9424472  49.1749144  12.3773301  16.4906538  48.1621742
  36.4005375   4.6972075  62.8533030  36.2179327   4.8596823  61.9278336
  35.5366015   4.6397763  63.2614088   0.2917389  66.6408031  27.4042678
   0.6748537  66.0391425  28.0425930   0.9067491  67.3733067  27.3664141
  22.0114517  17.8563118  47.7913809  22.9004526  17.9037225  48.1430387
  21.7825866  18.7648785  47.5955296  47.8494974  59.4052662  31.4505461
  47.1415564  59.7266163  30.8921698  47.9322907  60.0671305  32.1370676
  26.5206885  10.7579815  57.9673052  26.1264896  10.8140814  57.0968485
  26.8207335  11.6479445  58.1521606  29.1887784  39.1470432  31.1829448
  28.3459997  38.7265325  31.3536119  29.1251326  39.9967742  31.6189933
  58.8742929  40.7432461  57.9379463  58.1759792  41.2875986  57.5742531
  59.6287924  40.9131622  57.3739481  35.5048108  40.4849577  49.7594976
  36.3476300  40.5275440  49.3077517  34.8637128  40.3624105  49.0593481
  79.9657195  14.3350208  26.8474317  80.3615810  15.1269281  26.4835525
  79.1373795  14.6324956  27.2237229  40.8737429  45.0770696   1.7596606
  40.2011641  44.8326542   1.1239460  40.3905555  45.2353175   2.5706604
  56.8455584   2.9822483   7.1752575  56.2471141   3.1588354   6.4493683
  56.3040753   3.0723229   7.9594210   0.4491606  64.4904126   8.4168461
   0.0588932  64.8481430   7.6193789   1.0051241  65.1954807   8.7485340
  36.6220784   5.1564515  22.5223422  35.9986043   5.6276995  21.9696784
  36.7822266   4.3356618  22.0566273  25.3244495   9.3329412  36.2995434
  24.6169400   9.9640805  36.1679196  25.5073977   8.9921755  35.4239631
  25.1168298  32.8599815   7.0818880  24.1655742  32.9589321   7.0424727
  25.2771481  31.9650360   6.7825535  77.1649378  14.6569419  50.3820992
  76.9492158  14.4139707  49.4817305  76.4180615  15.1792169  50.6747341
  30.4120731  15.0241888  43.0089378  29.5681739  14.9733615  43.4578037
  30.1861787  15.0940025  42.0813942   9.9012127  54.6543063   1.9922427
  10.6488505  55.1963164   1.7402581   9.3537417  54.6217765   1.2077359
   7.5027293  13.2393968  37.8870511   8.1417239  13.4232020  38.5756230
   7.2686172  12.3203659  38.0166769  74.9368446   6.1167326  15.9394816
  74.0708129   5.8525744  15.6289366  74.8518269   7.0532503  16.1181906
  16.2976038  17.4146259  31.0154462  15.4404128  17.3309445  31.4331198
  16.6338241  18.2556486  31.3250709  25.5401802  10.0634205  55.3930950
  24.6884322  10.4233992  55.6404209  25.6149554  10.2468860  54.4566250
  76.9116449  28.1326938  45.0299358  76.3151669  28.8442683  44.7973299
  77.2358584  27.8077102  44.1899920  11.4684641   9.1386455  47.0403481
  12.0753694   9.8773915  46.9939518  12.0175827   8.3922619  47.2803688
  48.7508699  51.1206879   3.8443831  49.0955731  50.4309048   3.2772711
  48.5545703  51.8442394   3.2492569  25.1788664  14.2610681  10.7070506
  25.1901722  13.6996377  11.4822280  24.6781898  13.7650442  10.0593507
  43.1799078   5.2834916  62.3153639  44.1000509   5.4320449  62.0974255
  42.7403450   5.2189863  61.4675093  75.9427039   2.1032300   4.3140581
  76.8501179   2.1320811   4.6173743  76.0103290   1.9703593   3.3685377
  50.7657238  59.5595946   2.7152804  50.7321592  60.5115236   2.8098276
  50.2913233  59.3827094   1.9029454  68.2079885  59.6939622  52.9892159
  67.4675665  59.3249630  53.4707212  68.0235145  60.6323360  52.9485273
  13.7073207  27.0723772  16.0143566  13.1850004  26.3498855  16.3628101
  14.2997277  26.6586447  15.3865743  50.5146142  28.6561735   7.4352196
  51.0169216  28.8583972   8.2245425  51.1700030  28.6121299   6.7389754
  49.7169143  16.4521754  41.6309786  49.7722751  17.3655152  41.3499498
  48.8569885  16.1602032  41.3284636  19.3313825  15.4123569  40.1789236
  19.4385648  15.9757650  39.4125581  18.5651481  14.8756325  39.9763298
  21.0299850   4.5614040  61.9397593  20.7361364   5.0678140  61.1825037
  21.3016200   3.7195337  61.5741062  27.9973034  72.2513588  47.0521212
  28.7163261  72.3171165  46.4236975  28.3787493  71.8020811  47.8063631
  79.2069618  14.7492352  34.7034911  78.9698021  15.5966892  35.0800589
  79.3135326  14.1724148  35.4598978  24.8050357  53.1349041  15.5580881
  25.5898230  53.5192312  15.9487704  24.6778943  52.3141994  16.0340193
  26.7181639  67.3145931  51.6207266  27.5126699  67.8399466  51.7155504
  26.6836218  66.7864804  52.4183083  66.3816092  49.0102576  50.9446001
  66.9466433  49.0246009  51.7171049  66.8793533  48.5164904  50.2929258
  37.6797589  66.9043984  30.9456518  37.6889225  67.3747052  31.7792967
  37.7960690  65.9856381  31.1876944  53.6978122  57.5316216   1.0589436
  54.3002554  57.1909978   1.7202071  54.1222354  57.3343696   0.2239636
  71.9583302  18.5919607  45.7146358  71.2506944  18.5654247  46.3586712
  72.5058412  17.8366733  45.9291220  30.2568030  27.8267598  57.1636343
  29.8579907  28.3416343  57.8651237  29.6277165  27.8749418  56.4438009
   0.2817849  64.1111421  38.4836817  -0.1442715  64.8337590  38.0226684
   0.9077147  64.5367359  39.0696120  27.9182673  10.8455968  25.4624176
  27.4989724  11.6453719  25.1449537  28.6928415  10.7453692  24.9090481
  78.9160053   7.0173985  53.9156055  79.0415654   6.8737280  54.8535967
  79.4296001   7.8017396  53.7225771  45.3627920   6.7437601  49.9796724
  45.6491423   5.9028518  50.3361988  46.1746407   7.1936971  49.7458124
  29.7071793  59.2153253   6.0201433  30.3996002  59.5958842   6.5604761
  30.1708403  58.8085713   5.2881554  50.7785793  34.3325035   8.8418463
  50.1156040  34.4975086   9.5122698  51.1499759  33.4820618   9.0764645
  26.1033893  39.6117687  27.7799654  25.5934310  40.0504017  27.0989561
  25.5640316  39.6845603  28.5673833  25.6370139  14.0043163   3.0407339
  25.3061771  14.3130124   3.8842297  25.2949977  13.1138992   2.9606566
  46.1247349  11.1863887  56.4669085  45.6398726  11.7009437  57.1121788
  46.7077208  11.8181396  56.0458994  18.3911574  25.6034160  47.6411438
  17.5184596  25.4556561  47.2767305  18.2420695  25.7220769  48.5791874
  19.8241246   8.9592844  14.1484714  19.6060550   8.1664252  14.6384227
  19.1318178   9.0329182  13.4915686  42.4980720  32.7730237   3.5190991
  42.8504058  32.8118955   2.6299551  43.2715675  32.7411594   4.0820578
  41.0691023  20.5777264  11.5334678  41.0150909  21.5300059  11.4529979
  41.9192171  20.4198933  11.9441092   7.4867191  60.6952442   3.6792544
   7.3693409  61.3848008   3.0258301   7.6052418  61.1651458   4.5047119
  17.2397363  48.2710409  24.0569806  16.7703497  49.0888023  24.2218232
  16.8803155  47.9511881  23.2294893  20.3068509  46.4288058  16.0853937
  20.1350566  45.5048610  16.2671736  20.1649316  46.5179117  15.1429728
  47.7698898  16.1576569  50.1470375  47.6902676  16.0711730  49.1970825
  48.4466600  15.5255413  50.3891993  60.0154635  38.1393841   3.7085846
  60.0496455  37.1828023   3.7123898  59.3184515  38.3516719   3.0878237
  30.2833390  24.0622377  61.9233608  30.5540991  24.7613168  62.5185156
  30.3315473  23.2656503  62.4519014  74.0253636  54.2614831   4.9493817
  74.7088667  53.6079969   4.8010186  74.1926428  54.9365784   4.2917374
  75.8521738  38.5850835  34.3291068  76.0956982  39.4455194  33.9876723
  76.4910078  37.9850984  33.9442134  74.6295160  34.3983126  50.7189465
  74.2512881  33.7621546  51.3259745  75.5742594  34.3273139  50.8555174
  53.7177440  47.2868468  18.4078387  52.7858516  47.2576960  18.1911257
  53.8184091  46.6531308  19.1181162  56.9022083  13.2714558  35.6332731
  56.7818308  13.4498715  34.7005844  57.8014565  13.5443604  35.8152246
  42.1698765  71.7590361  14.2122948  42.1744207  72.4321847  14.8927963
  42.4444298  72.2187116  13.4188533  35.9658003  22.3314333  55.7588673
  36.0961604  22.6188421  56.6625452  36.8409061  22.3541951  55.3716946
  40.1704105  52.9059352  24.6075610  40.6841167  52.9369034  25.4146365
  39.5649155  52.1759500  24.7368983   0.0717667  72.3950746  32.0980239
  -0.0581237  72.8333261  32.9390335   0.7819394  72.8828416  31.6809297
  18.2818496  28.0318522  37.9555535  17.5528491  27.6353812  37.4784803
  18.9788103  28.1121492  37.3043776  67.2619677  11.2354350  42.6195621
  67.3668575  10.7805109  43.4551907  66.9144583  12.0951736  42.8568745
  15.0946081  26.4465833  53.2817125  14.2622113  26.9183683  53.2540512
  15.6084228  26.9061327  53.9458227  19.8409283   9.2308778  28.0486131
  20.0747180   9.7741550  27.2960019  20.6743121   9.0557170  28.4856725
  39.4074651  61.5416254   5.1306227  40.0283953  61.6878809   4.4169787
  39.9152084  61.0822572   5.7995108  33.0366278  30.6807280  45.8520174
  32.2191381  30.2712107  46.1352873  32.9493570  30.7575703  44.9019098
  33.9549136   7.0438689  62.3202610  33.7516713   6.2588936  62.8289223
  34.6852565   7.4495578  62.7874327  27.9890132  19.5775080  56.9551373
  27.5015664  20.3397751  57.2675133  27.4458647  18.8286614  57.2010136
  27.5041747  37.2201180  54.0017843  28.0867386  37.9662800  53.8600254
  26.6281915  37.5632596  53.8253260  12.7584755  54.6170712  12.4571252
  11.9718826  54.2457485  12.0575964  13.1078851  55.2100563  11.7919123
  14.3042170   6.3046017  38.9189127  14.8700081   6.7441597  39.5536593
  14.6110426   6.6171541  38.0677965  31.2369752  33.8028455  46.5620995
  31.9732308  33.6745477  47.1601772  31.6339850  34.1554475  45.7656765
  38.7054320  56.8386497  27.9195669  39.2357691  56.5202357  27.1890906
  38.9412280  57.7627005  28.0018118  12.1780431  12.4247503  40.2698612
  12.6561403  12.8060079  41.0062695  12.2775209  11.4795196  40.3833246
  40.4967785  12.1116900  13.2375669  39.6287775  12.3551989  12.9158413
  41.1017370  12.4644923  12.5850439  40.7562689  54.1053747  20.3472996
  41.2067608  54.8022794  19.8702121  40.1782421  54.5662807  20.9553123
  37.5092003  70.3812396  55.0456858  37.7775118  70.4014041  54.1270781
  37.1558449  69.5007663  55.1727200  54.0986443   4.2682463  43.0782413
  53.2490110   4.4881752  43.4603262  54.1746759   3.3209437  43.1925583
  70.0344620  51.0008358  11.6177261  69.2886398  50.6613778  11.1230052
  70.4463444  50.2229833  11.9939327  78.0458399  43.9434619  18.6960772
  77.2185656  44.1874881  19.1111735  78.4724470  43.3688851  19.3317583
  54.3744942  47.7439179   7.5162390  55.2283879  48.0704428   7.7999285
  53.7736341  48.4708144   7.6800040  16.8347907  34.7327781  27.4723816
  17.1711600  34.3172741  28.2663870  16.0771346  35.2372122  27.7685833
  26.8980002  49.7144365  37.2499323  26.9107962  50.4388046  37.8755188
  25.9705615  49.5863724  37.0507193  46.8494606  17.8560197  43.4676027
  47.0303106  18.6233413  44.0105057  47.1010876  17.1114004  44.0139198
  77.9988037  58.0116034  63.1045341  78.3838016  58.7749672  62.6740837
  78.4460993  57.9620600  63.9493465  37.3825312  43.4601784  36.2061262
  37.6161766  42.5443459  36.3574386  37.8444934  43.9417410  36.8923593
  69.2979794   3.3890623  22.9889059  69.5798462   3.6705157  23.8592887
  68.8468879   4.1509536  22.6252151  35.0899410  24.1198254  26.4267731
  34.1481161  24.2097092  26.5721011  35.2386403  23.1747031  26.3974428
  42.1162897   8.9164031  36.9053197  42.0684677   7.9872000  37.1301007
  41.3143307   9.2922419  37.2684193  58.8129035  72.9738360  38.3751678
  58.0204311  72.4532106  38.5062003  58.5659537  73.6247500  37.7182388
   0.9148619  23.9994502  59.9207449   1.6789889  23.5765839  60.3125715
   0.2004965  23.8161111  60.5309105  23.6405039  30.2495885  56.3991213
  23.7047005  29.8045993  55.5540800  24.3222356  30.9208202  56.3687468
  58.7924524  60.3505959   3.8156775  58.0457493  59.7548117   3.7547663
  59.3711325  60.0831308   3.1016568  44.6296835   5.4281700  29.6072483
  44.5017433   5.8066261  30.4770970  45.1243353   6.0924774  29.1274095
  68.8329321  12.5584590  45.5222893  68.9988690  11.9598055  46.2505150
  67.9531961  12.8978539  45.6869364  26.3373661  29.6772623  30.3101778
  25.6416416  29.2599010  29.8022294  27.1282291  29.1904378  30.0783038
  68.0433178  17.0302200  60.4491758  67.4511623  16.4489901  59.9719381
  68.6120224  17.3998392  59.7737598  63.2834339  22.6104259  28.9223289
  63.1467152  22.9681921  29.7995639  63.2471514  23.3726549  28.3444667
   8.2898438   7.4748504  57.1725559   9.2083758   7.6868778  57.3386145
   8.1200194   7.8167456  56.2947750  45.3052648  41.6297455   4.5555237
  44.6254333  42.0857467   5.0516299  46.1229297  41.8747257   4.9886969
  46.1016703  26.1187887  28.9468789  46.0826015  26.3078356  28.0087280
  46.4764833  25.2400494  29.0065622  73.9620185   5.8946443  63.8775778
  73.9094704   6.4117700  64.6813488  73.5512596   6.4454269  63.2111359
  16.2547418  50.8942153  13.7884167  15.8646485  50.1844885  13.2781723
  15.5618962  51.5514805  13.8531998   9.6801800  13.3463669  43.8208103
  10.3463042  14.0146422  43.9818001  10.1582420  12.5179136  43.8576126
  13.4607995   1.8875141  17.8532374  12.7708650   2.3515622  17.3790205
  13.2027888   0.9667107  17.8110075   4.0233850  13.6993504  33.3137035
   4.3386939  13.5415411  34.2035961   4.7883290  14.0316844  32.8439736
  25.4264188  53.4763527  35.7242465  24.8192477  52.8303146  35.3633976
  25.0308394  53.7387276  36.5554547  31.9374466  16.7505944   8.5459387
  31.3745046  16.4189327   7.8464180  31.3343334  17.1671939   9.1615140
  35.5362892  41.1951971  52.3978567  34.7349501  41.7034626  52.2723389
  35.7446671  40.8575487  51.5267658  18.8931632  39.6800852  43.1077051
  18.7453997  40.2547836  43.8587856  18.0531847  39.6647024  42.6489782
  21.8397652   2.0165076   6.3957766  22.2033726   1.9408765   5.5135611
  20.9128653   2.2109666   6.2569550  11.4340436  17.8212059  37.4437284
  10.9010243  17.7873123  38.2380676  12.0570457  18.5301507  37.6034093
  44.3707594  25.3543808   3.1553486  44.3464299  25.8928515   3.9463499
  44.1310497  24.4774915   3.4550742  22.4707532  36.6021109  38.4802747
  22.6225996  35.8861637  37.8633499  22.0709610  37.2928810  37.9518461
   3.8130775  23.5176849  38.4281731   3.1373742  22.8710747  38.2243299
   3.7459317  24.1639876  37.7253079  35.3877878  14.3530655  24.0891647
  35.9870839  14.0816915  24.7844577  34.8224115  13.5932815  23.9502048
   6.2346512  49.0459108  44.0583563   6.7301786  49.5403385  44.7112179
   5.5434948  48.6131001  44.5595694  65.7377702  37.6241565  28.3262730
  65.3232664  38.3571172  28.7814546  65.0478011  37.2693157  27.7656817
  12.1173394  24.0099263  57.3398399  11.5371096  24.5886540  57.8344440
  11.8515480  24.1268182  56.4277411  38.8108444  31.1965489  39.4612646
  38.5415006  32.0152760  39.8776460  39.1994023  31.4673877  38.6294580
  76.3046759   4.6589997  58.6958838  76.0120806   3.7705949  58.4925175
  76.0224405   4.8032624  59.5990801  18.8459885   2.1562618  40.6019735
  19.6584201   2.6590940  40.5441332  18.9975333   1.5376627  41.3165331
  45.8466240  62.3642005  23.5041884  44.9233838  62.6148190  23.4717730
  46.0328933  62.0225014  22.6296786  16.8204498  35.4567099  41.9435692
  16.8212450  34.5182300  42.1319532  15.9889126  35.7714629  42.2981262
  10.4843307  28.2882047   4.5300815   9.9773180  27.7295566   5.1192188
  11.3051498  28.4456754   4.9966541  29.5046806  44.4176626  33.4929490
  29.6702504  44.9730921  34.2547369  28.5892797  44.1530800  33.5838628
  49.1666719  57.9128422   4.2783669  49.5705029  58.5973062   3.7448290
  48.5654303  58.3829440   4.8560742  51.2081814   6.1537790  56.4872456
  50.9714508   5.2904814  56.8262291  50.9045744   6.7658365  57.1576500
  44.6816444  35.4757261  51.1170626  45.2204609  35.4814672  50.3259420
  45.1700735  34.9324775  51.7355728  26.1345792   1.5520686  45.8210516
  25.9751487   0.6106595  45.7535028  25.2707410   1.9497156  45.7120132
  33.6251506  60.2107825  14.3483046  33.1103464  60.6003536  15.0550154
  33.7999352  59.3172611  14.6437672  70.9220600  26.5238929  31.6486406
  71.5155935  27.0618820  31.1246991  71.4133835  26.3340712  32.4478889
  61.7909356  67.4617280   1.1102084  62.7019259  67.5050320   1.4008215
  61.2801000  67.6768507   1.8905953  77.8074976  66.4309849   0.2251652
  77.0304533  66.9282498  -0.0301000  78.1831976  66.9295229   0.9507969
  33.1962490   9.2798841  36.5526056  32.9421020   8.6683267  37.2437191
  33.5590982  10.0322485  37.0200682  15.6866193  20.7087231  28.9363241
  15.2000284  20.0213504  28.4813738  16.4492965  20.8700037  28.3808565
  37.7190328  28.4793401  36.2143087  36.8583775  28.5458422  36.6279268
  37.6357937  27.7460599  35.6047153  48.8436963  26.0022488  21.0364703
  48.2965197  26.4237490  20.3737715  49.5579176  26.6215792  21.1866263
  29.3211389  35.5373907  30.8318734  28.8792944  34.8439622  30.3418064
  29.7631812  35.0805759  31.5475202  40.5339249  67.1972384   7.9019144
  41.3466509  67.3539747   8.3826855  39.8518559  67.2117604   8.5733345
  46.5351057   1.1087286  41.4933681  47.3861790   1.3945621  41.1614084
  46.0912657   0.7407805  40.7292652  46.8963500  53.6011721  30.3502253
  47.8446551  53.4753551  30.3167513  46.5460845  52.7317347  30.5441931
  37.5473343  25.4334631   8.0684689  38.0513655  25.7153454   7.3051050
  36.7399536  25.9457770   8.0248860   7.3012053  44.0835514   3.0715206
   6.5300976  44.6138802   3.2724646   8.0215894  44.7127571   3.0344179
  35.1984048  64.8963022  45.1083088  35.9637046  65.2515459  45.5603552
  34.4874382  65.4964781  45.3331423  23.1800556  54.6647406  64.3573904
  23.7059665  55.0440550  65.0615025  22.4252939  55.2484751  64.2810678
  60.8294678  36.7457247  48.2933092  60.9241629  37.0363116  47.3862123
  61.7275763  36.6191101  48.5992479   6.9704193  59.8496532  64.2780161
   7.6159901  59.7382975  63.5801172   7.4890369  60.0753450  65.0502396
  53.4097525  71.9545736   5.5905798  53.3591648  71.3587321   4.8431519
  52.5059172  72.0332874   5.8957365  40.6531525  65.0062132  50.8952045
  39.8741817  65.4789257  51.1884308  40.6657267  64.2112827  51.4282656
  67.3944902  70.3098059  37.4334121  66.7875528  69.7860527  36.9104028
  68.2459259  70.1769924  37.0166993  51.5133762  26.3260412  55.3691912
  51.9909382  26.6586065  56.1291695  51.4671803  25.3804350  55.5103493
  27.7720343   4.6402588   8.9198807  27.0316922   4.0620413   9.1036967
  27.3724209   5.4912701   8.7401131  40.5049324  73.2030153  51.6580248
  40.2958918  73.6980295  50.8658791  40.7201481  72.3254108  51.3422298
  52.5177240  48.1050825  52.8839779  52.9545116  48.5253382  53.6248112
  53.0292368  47.3122597  52.7226782  51.1344290  70.8557415  52.6359463
  50.2713919  71.1431694  52.9339123  51.2916994  70.0390816  53.1098270
  70.2808619  62.6147985  54.8131323  70.7903576  62.6312733  54.0029621
  70.6890821  61.9268894  55.3388453  45.8723497  25.4518509  42.2292519
  46.4363670  25.4639030  41.4559650  46.3985682  25.0210071  42.9028225
  55.5894600   5.4562559  12.6459721  55.2927529   5.8025685  13.4875563
  56.5416371   5.5511513  12.6702050  40.6102215  33.7368622   0.9940747
  40.2429758  33.3602133   1.7937592  41.1275421  33.0283108   0.6112316
   3.6790699  75.3507757  60.7536840   3.1493610  74.6301937  61.0948563
   4.2319435  74.9460459  60.0852823  67.1743151  71.2968578  11.9127110
  66.4387556  71.4602007  12.5030497  67.0450350  70.3973068  11.6121701
  27.0411897  60.5488539  32.0994067  27.9429531  60.2715254  31.9377136
  26.5776825  59.7405672  32.3186398  72.4125719  54.3698883  60.8192110
  72.3893929  54.0364885  59.9222469  71.9412708  55.2019835  60.7776976
  17.4927750   5.2812363  57.1817684  18.0662098   5.6830956  56.5291452
  17.2678652   4.4282557  56.8102026  31.1646843  60.1551342  60.3766537
  31.4714241  60.3121758  59.4836378  31.9657087  60.0506830  60.8901548
  20.9855305   9.6380511  17.6150015  21.8494688   9.8491087  17.2610262
  20.6600319  10.4681387  17.9631880   0.7068199  44.4348812  49.5373249
   0.3191322  45.0343895  50.1749086   0.1238340  44.4813442  48.7795639
  49.9859953  67.8636694  39.9814439  49.0790510  67.6503515  39.7619390
  49.9221897  68.3887291  40.7792377  73.0120083  69.8037447  20.5839613
  72.7928682  69.3729819  21.4101866  72.2658201  69.6206035  20.0130919
  37.0997787  60.7047558  41.9961309  36.1459947  60.6296635  41.9663382
  37.2700667  61.6398382  41.8827248  74.4504452  46.1656427  63.4174824
  74.6353769  46.3620377  64.3358803  73.6730385  45.6078005  63.4436846
  52.9269778  24.7808113   6.4725045  52.8858410  23.8810196   6.1486033
  53.7257229  24.8094883   6.9992045  49.0579844  52.9493952  33.7340760
  49.3306684  52.0448399  33.5802698  49.5489883  53.2188797  34.5102978
  75.9909105  49.5806503  51.6328096  75.1843596  49.4072485  51.1473846
  76.2403917  50.4677010  51.3737106  63.9240265  52.7746296  63.8997936
  63.2244730  52.2141695  64.2355585  64.1033602  53.3871937  64.6131229
  63.1812096  66.6937971  26.0122371  63.0245829  67.3320103  26.7082167
  62.3061609  66.4266014  25.7309270  56.4268732  49.7564983  36.9031096
  55.8550739  50.0958395  37.5916791  57.1889448  50.3355217  36.9176412
  36.1798120  74.5949841  45.1237154  35.6164241  74.4972706  45.8913612
  36.6800642  75.3931379  45.2938032  23.0646263  28.4480610  17.0810679
  23.8916336  28.5239258  17.5570181  22.9913222  29.2698469  16.5957621
   4.7977585  58.5957003  58.0111837   5.2380508  57.8416443  57.6190472
   5.4323811  59.3085051  57.9376984  56.6910778   3.3647146  20.4805830
  57.2781884   3.2562914  21.2287691  56.6600643   2.4991503  20.0730589
  57.1320772  67.1766090  62.4364376  57.5223780  67.5321436  63.2348633
  56.8829250  67.9480982  61.9275522  48.4450674  35.3721046  51.3607883
  47.7360201  35.3219557  50.7197142  49.0437651  36.0286975  51.0048676
  78.8663717  19.9707581   7.8244609  78.7807318  19.4199444   8.6025983
  78.6449047  19.3914391   7.0953745  61.8972492  68.0036068  37.9273963
  62.5688601  67.6442337  38.5070705  61.7183638  68.8754606  38.2796693
  60.2880573  53.0412626  35.1183057  59.9281836  53.1195593  36.0018158
  61.1782742  52.7151918  35.2503204  41.2736364  60.5162920   9.7340563
  41.2243649  60.7720603   8.8129786  41.4115175  59.5693173   9.7126273
   0.9536706  20.2369490  12.6246432   1.7957817  19.9901667  12.2423056
   0.3495632  19.5533076  12.3349551  58.5471773  58.7253857  59.4311953
  59.3534327  58.5848570  59.9276161  57.9033041  58.9873219  60.0892591
  43.3936024  58.4811068  54.3010235  43.9418602  57.7204418  54.4934654
  42.7869034  58.1747055  53.6270285  18.8121592  19.8302260   8.4274367
  18.6122977  19.7494784   9.3600491  19.6603428  19.3983402   8.3259800
  74.0403887  26.3064075  57.9939413  74.1207501  26.9404484  58.7065220
  74.8869702  25.8601833  57.9737759   9.3267527  71.7521776   0.4062727
   9.8556318  71.8151178  -0.3890630   9.2758837  72.6508774   0.7318238
  73.1463671  64.7422266  56.7028189  73.9691257  65.1287985  56.4030457
  73.0300665  63.9687872  56.1510038  21.8818604  19.1260615   0.0128821
  22.8263127  19.0141239   0.1211146  21.5392243  18.2337561  -0.0383016
  54.4164562  63.8032103  25.9370160  54.8688078  63.2205486  26.5470314
  53.7364149  63.2565832  25.5433488  75.4153013  50.5616188  61.3019943
  75.7172632  50.5245543  60.3944254  74.9052143  51.3700485  61.3518715
  77.8342768  69.8510780   7.2993592  77.8305622  69.1430129   7.9434565
  78.0323216  70.6370272   7.8085688  57.8241464   4.1427494  59.1105700
  58.7541481   4.0950752  58.8890791  57.4037691   3.5235430  58.5138273
  47.4558421  10.9222103  43.3268309  47.3937341  11.4736916  42.5469351
  47.5184795  11.5416790  44.0538549  77.1650982  56.3231182  29.6306109
  76.7976665  55.5518913  30.0623894  77.7374887  56.7164612  30.2893090
   7.5469791  34.8679342   6.8514279   7.1367561  34.0973749   7.2441033
   8.4169947  34.9048081   7.2488478  56.9419070  14.7336937  56.8188334
  57.8089377  14.3994595  57.0485735  56.3357898  14.0617443  57.1308136
  62.5024462  55.0134706  42.2157574  61.7071533  54.4922066  42.3254013
  62.3009539  55.8492327  42.6366282  73.5246416  17.7748467  63.8615274
  73.7372824  17.5429321  62.9575205  73.7155863  18.7109829  63.9198875
  28.5359608  17.7379790   5.3428057  27.6052319  17.7286139   5.1194552
  28.7014090  18.6319247   5.6423357  28.8008537   6.2358452  50.3616142
  28.9666882   6.5543152  49.4743109  28.1275025   6.8231751  50.7049513
  74.7028017  28.7124658  50.3602123  75.3136873  29.3065286  49.9241590
  73.9523554  29.2627621  50.5843449  22.1209704  21.6337815   4.7111395
  22.1870028  20.7962551   5.1698569  21.6671501  21.4245882   3.8947371
   7.8176194  69.4194126  43.4500885   8.0829489  68.8713646  44.1886520
   8.5736883  69.9831390  43.2863665  78.7390801  13.8304688  55.4354668
  78.7117907  14.6721531  55.8905077  78.9379879  14.0558411  54.5266914
  61.6128670  42.1084442   3.6462191  61.8453537  41.6559830   2.8353766
  60.6559693  42.1322003   3.6413410   8.1336826  42.9854488  58.9091110
   8.5305065  43.4790468  59.6268415   8.8545269  42.4722433  58.5440922
  38.5338723  20.3727808   5.1561240  38.1190144  21.2063017   5.3783253
  39.4672571  20.5221071   5.3068713  53.3462238  59.1666746  41.7783689
  53.3923912  58.6047029  41.0048771  54.1442347  59.6938276  41.7394018
  73.2415139   6.2272110  11.7409685  74.0763699   6.6401043  11.9618109
  73.4010063   5.2899733  11.8522385  58.7398909  59.5446053   8.4408882
  58.5208868  58.6402931   8.2161740  59.2689602  59.8528233   7.7051428
  35.6432043   9.3667498   4.4188479  35.2807604   9.9052515   3.7153700
  35.3129517   9.7685042   5.2224377  28.2841002  41.3652315  10.3201416
  27.5066696  41.8360176  10.6204680  27.9478871  40.7195034   9.6986702
  45.0096369  58.5526133  34.0852952  44.9037266  58.2835484  33.1728148
  44.1433668  58.4294415  34.4734120  76.1087557  57.1363140  21.9352746
  75.4122349  56.6338993  21.5125871  76.0078474  56.9476105  22.8682470
  67.4955221  10.9653450  37.5307131  66.8351933  11.1902119  38.1861758
  67.8564974  11.8080688  37.2554898  34.5294367  20.9737053   4.9820069
  35.2793776  21.1915579   4.4285038  33.7737356  21.0395279   4.3982151
  43.3762932  72.4268913  41.4992762  43.1334114  71.5524483  41.8035698
  43.6922979  72.8744316  42.2841787  62.4076223  54.2494202  32.0098805
  62.2302485  54.2047882  31.0703182  63.0660200  53.5714340  32.1618032
  34.2741858  25.3029433  18.3783129  34.5899569  24.4790402  18.7493971
  33.7649571  25.7034102  19.0829733  25.0647249  17.0852448  42.5645018
  24.1543188  17.3780705  42.5239325  25.3959599  17.2089077  41.6749907
  47.6381445  54.3472862  52.8270912  47.9142809  53.4330130  52.8910065
  46.8852568  54.4117308  53.4146595  50.7165670  60.4288340  62.0412397
  51.2568140  60.3983212  62.8308201  49.8613739  60.7304525  62.3476744
  45.4012476  16.8009272   4.6906308  45.1060664  17.5782957   4.2165020
  46.2918841  16.6508665   4.3736389  43.6882401  62.4168301  62.6703978
  43.7436819  63.3032703  63.0273008  43.2476044  62.5251007  61.8275738
  20.6847655  30.1780644   3.3668307  21.6047322  30.1400080   3.1052140
  20.5202376  31.1068812   3.5294798  45.7127190  61.4082813  49.3858433
  45.1197577  60.7915592  49.8151207  46.5810108  61.1726141  49.7125769
  15.3043738  17.9747368  49.4108915  14.8128977  18.7551762  49.6669817
  16.2203446  18.2084728  49.5612001   5.5643124  74.4667053  48.6716890
   6.1313480  74.2938375  47.9201365   5.5825657  73.6542082  49.1773987
  45.5502688   9.4148817   1.0832861  46.4607416   9.6685639   0.9319142
  45.0525175  10.2228298   0.9580019  63.2440519  44.4365406  58.7689877
  62.9010630  45.2252865  59.1890764  63.9369154  44.7552538  58.1905460
  56.3293266  64.3608093  50.7424021  57.1687460  64.7386265  51.0048151
  56.4248085  63.4237051  50.9125423  39.0369940  74.1248465  21.3955116
  39.2745829  73.8513613  22.2815084  39.0342999  75.0813198  21.4327168
  16.8971625  24.1000534  41.3464117  16.3644400  23.7287022  40.6431818
  16.9577255  23.3998848  41.9962788  14.4806996   3.0596710  57.8441429
  14.3202152   4.0023829  57.8863144  15.4343310   2.9782177  57.8575611
  26.2394797   2.2923007   1.1804608  26.6222273   2.4584522   2.0419291
  26.5779101   2.9969635   0.6280640  71.8967962  73.1461620  18.0063963
  71.1109304  73.5510540  17.6393723  72.2412491  73.7999773  18.6147666
  24.2176234  30.5044975   8.9590338  24.0976321  31.3811054   9.3242672
  23.3565747  30.0933733   9.0351990  42.8273903  31.2248936   7.7151612
  43.1173455  30.7893934   8.5167197  42.6350771  30.5088940   7.1096924
  17.3634853  14.0198685  20.5413842  18.2203373  14.3340088  20.8301020
  17.5341120  13.1447769  20.1930594  78.4958856  13.1045857   6.4699629
  78.8813083  13.8079729   6.9923857  77.7089779  12.8513947   6.9525650
   9.1482630  11.0694099  47.5041771   9.2792072  10.1574303  47.2446060
   8.8286390  11.5004993  46.7115641  71.2944412  69.3277121  49.1126680
  71.8851709  69.2630196  48.3622789  70.4437447  69.0506649  48.7723780
  37.2074972  54.7351780  12.8351525  36.2956177  54.7029724  12.5458840
  37.4254214  53.8263359  13.0419138  79.2388391  74.2161942  60.7862234
  79.1810036  73.2633591  60.8568239  79.9253988  74.3669891  60.1365089
  68.4875389   2.3039557  33.0005717  68.1203695   1.6736198  33.6203241
  67.8305718   2.3688770  32.3074579   5.7814354  38.4740615  38.5464573
   4.8721260  38.5045671  38.2490396   6.0170597  37.5473881  38.5018659
  31.1085033  70.7074356  57.8646231  31.2016511  70.8165121  58.8110161
  31.7164326  70.0017977  57.6438713  44.8745381  23.7943163   0.8011654
  45.8183800  23.6863938   0.6839302  44.7926317  24.4332829   1.5091494
  21.2556976  54.9919701  23.1669807  20.4475922  54.6865177  23.5791659
  20.9986156  55.7826614  22.6926970   0.9247151  72.6547398  38.1624106
   0.6462135  72.8286351  39.0615347   0.1676645  72.2346749  37.7541807
  50.6149578  52.5723171  51.2084675  50.4594517  52.1174049  52.0361757
  51.2896252  52.0519638  50.7722425  18.2549709  74.2145872   0.8646160
  17.9346413  74.5335436   1.7083505  17.9672283  73.3023739   0.8284926
  42.9649435   2.6077500   2.0794609  42.5096213   2.2201195   1.3320235
  42.4831902   3.4146729   2.2611788  29.9170151   8.7513329  36.7293811
  30.8564034   8.6836124  36.5584779  29.5234909   8.8621975  35.8638859
  11.9366497  62.6696682  47.4368048  11.7766232  62.5012732  48.3653879
  11.7751354  61.8284893  47.0095301  55.8908129  26.1765385  42.0885372
  55.5350780  26.4050341  41.2297773  56.7696810  26.5557575  42.0923424
  15.3142777  32.5439526  40.7570791  15.9205523  32.3916317  41.4819670
  15.7072487  32.0837570  40.0154400  39.2982841  66.8566465  34.0576506
  38.8859916  66.4976311  34.8433685  38.7392855  67.5927639  33.8088894
  21.1962360  40.3612185  35.0013900  21.4491791  41.1995602  35.3879595
  20.2573627  40.2913475  35.1741862  14.7733103  56.2968579   8.9877919
  14.9189125  55.6243553   8.3223751  14.4489752  57.0524254   8.4977415
  19.0874233   8.4418846  32.3092508  18.5634365   8.3158470  31.5181899
  18.5732689   8.0321098  33.0049253  67.8889990  42.2729111  47.1543026
  68.5244322  42.0097733  47.8200436  68.1077290  41.7393827  46.3902760
  25.0549780  50.9690705   0.0638798  24.1812836  51.0924664  -0.3071424
  24.9696528  50.1996269   0.6268242   5.6237549  62.5177002  65.2081585
   5.7161564  61.6530561  64.8080444   6.5149063  62.7628994  65.4570770
  38.3633270  19.1608501  34.5992422  38.9131203  19.8218895  34.1785479
  37.7306023  19.6655251  35.1103234  71.1418434  71.5615763   0.9828022
  70.9241148  71.9205298   1.8430212  70.3007790  71.4969029   0.5303982
  72.9178190  59.6048641  60.7418108  73.7660265  59.8289537  61.1246300
  72.5864124  60.4322958  60.3928661  62.8283834  46.5521431  60.2679014
  61.9408655  46.5113354  60.6241035  63.1376362  47.4290085  60.4952765
  51.1078453  71.4986897  55.4811287  50.3770638  71.6791773  54.8898506
  51.8681669  71.8859959  55.0473833  16.1993204  43.3280506  20.0424078
  16.7489611  43.8774529  20.6012419  15.3083264  43.6388436  20.2029494
  42.3771324  18.9155842  50.8276510  43.2170239  19.1418625  51.2271595
  42.3487320  17.9592014  50.8552027  35.5379653  57.0221281  33.5323811
  36.4613128  57.0381880  33.2805753  35.1560783  56.3257599  32.9980922
  47.6844788  32.3376226  55.4808617  47.8171444  31.3941240  55.3889847
  47.9902315  32.7043915  54.6512651  51.5836226   6.6783753   8.0070475
  51.8310248   7.0929804   7.1805313  50.8260762   7.1795120   8.3090618
  47.5851427  51.7641201  20.2466753  48.2387673  52.3952999  19.9456480
  47.8963410  51.4900913  21.1093977  78.9774557  71.0660233  20.8419684
  78.5122439  71.0201492  20.0066832  78.5734554  70.3843083  21.3788870
  14.2592854  38.0770230  50.3095341  15.0970310  37.6381087  50.4570723
  14.3808025  38.9537787  50.6739092  49.7578192  47.6865625  52.5088263
  50.6907129  47.8406429  52.6578379  49.3206644  48.1625938  53.2148838
  12.9355091  68.2061577  41.9555807  12.7721733  68.9866590  42.4850798
  12.0901341  68.0092430  41.5520954  13.6120262  13.6659599  42.7684689
  14.0087261  12.7948738  42.7768850  13.2321825  13.7646080  43.6415195
  13.6302999  36.6472135  53.8247666  14.3896250  36.3349090  54.3168303
  13.9939169  36.9605814  52.9966280  49.6117210  39.2034411  52.4666071
  49.6511984  38.3583093  52.0189142  50.3486586  39.6986198  52.1089077
  70.6446552  50.0714350  53.4548998  71.4327908  49.5595551  53.6366940
  70.3852224  50.4224205  54.3068027  22.9709854  63.6499633  21.3790587
  22.6526251  63.2853927  20.5532435  22.2257700  63.5784854  21.9755247
   1.5043968  42.0808506  63.5570908   0.6493134  42.4771357  63.3897066
   2.1100182  42.8215170  63.5864878  50.3674793  50.6413651  34.8487854
  51.1952639  50.8158159  34.4009304  50.6238317  50.2308416  35.6746101
  78.0060816  74.1505194  51.2363672  78.1594992  74.9878693  50.7987118
  78.8527060  73.7050390  51.2046623  72.9698988  29.9456860  27.1955657
  73.7479921  29.7100235  27.7008009  72.5305172  30.6089188  27.7278233
  47.0412003   8.4294453  25.5703524  46.9806515   9.2861548  25.1477316
  47.7329813   7.9740134  25.0905016  72.6141831   2.9763485  58.1731701
  73.4391113   2.4969793  58.0961418  72.2445675   2.6846291  59.0065479
  61.4955950  65.0359583  44.9630308  61.3953876  64.7868776  44.0442562
  61.5323544  65.9923553  44.9492693  24.6418940  12.3015108  23.6275462
  24.5971142  12.7771654  22.7980975  24.5229803  11.3835039  23.3839205
  66.1953112   2.3461271  58.4769487  65.2458068   2.2273708  58.5008144
  66.5209814   1.8194271  59.2068529   7.5979339  27.3366394   4.0966681
   7.4814426  27.9926720   4.7838953   8.5096418  27.4361696   3.8225964
  57.0493861  -0.1845812  43.4078693  56.7685052  -0.0551533  42.5020075
  57.2381087   0.6973768  43.7284470  63.6936522  40.1267910  54.1395378
  62.8498745  40.2180052  53.6968756  63.7102365  39.2176247  54.4384956
  55.6366968  45.8295584  35.4540849  54.7609997  45.5448437  35.7154799
  55.9609890  45.1237774  34.8946762  66.3577890  48.6064148  19.7701252
  67.0960951  48.5751629  19.1617179  66.4207029  49.4696283  20.1789498
  49.3572378  65.2705956  56.6966581  49.5119953  64.5186043  56.1250019
  49.2890406  64.8943567  57.5741673  78.7363529  48.4176636  18.7566757
  78.3773708  49.3014526  18.6774349  79.2415094  48.4363222  19.5695114
  68.9270779  18.5828949  53.1568146  69.5621821  18.2030846  52.5496721
  68.8446756  19.4947983  52.8777695  35.4420996  71.0151672  41.7602205
  36.3471985  70.7557440  41.5878057  35.0383759  70.2361250  42.1427488
   6.1013645  71.3629532  55.7855606   6.3005013  71.6724586  56.6691780
   6.4764446  72.0282316  55.2085447  76.6217756  63.6955452  44.2900705
  77.4551058  63.3866358  44.6455574  75.9988642  63.5837173  45.0081968
  69.4014311  69.6028662  46.3806868  69.6289825  68.7523890  46.0050058
  68.9446402  69.3906641  47.1946526  27.3730313  54.8699799   9.6074417
  27.8014551  54.2009583  10.1413801  27.9376828  55.6386700   9.6881655
  31.9922676  12.6422001  43.3870935  31.2635937  13.2369400  43.2094669
  32.7666607  13.2048203  43.3848095   9.2590752  12.4413658  64.6155071
   8.3974829  12.4104668  65.0313616   9.0849724  12.7503754  63.7264442
  50.0432368  29.1173817  41.9115591  50.8258244  29.2061878  42.4555254
  50.2029725  28.3317734  41.3885498  79.3181992  58.4654808  48.0110073
  79.8003960  58.4487009  48.8377094  79.3019819  59.3895531  47.7619028
  56.4258992  41.6163149   3.6006668  56.5905415  41.0595598   2.8396538
  55.7485234  42.2264900   3.3089712  67.9050776  15.3988052  33.1216359
  67.9577442  14.4631649  33.3166361  68.1297537  15.8284832  33.9469385
  28.7585150  42.8431454   4.7056320  27.9613863  42.3170605   4.7693089
  28.8246952  43.0662766   3.7771586  14.3989216   7.5702086   7.9141930
  14.2497002   6.8302765   8.5028055  13.7470471   8.2201901   8.1765202
  43.0890962   2.3545528  48.8211632  42.8304108   3.1656958  48.3837128
  42.8602728   2.4944712  49.7400188  21.6488794  62.9934727  64.7889580
  22.4364380  63.1478248  65.3106480  21.3799242  63.8647304  64.4977432
  75.0410410  16.4803673  51.6834259  75.2323242  16.7968822  50.8005571
  74.4552132  17.1410061  52.0530176  67.6654860  22.3037411  50.4571581
  66.9286820  22.6683785  50.9474611  67.8153416  22.9300571  49.7489834
  32.9950320   3.9364615  34.6203116  33.9165865   3.8676777  34.3708399
  32.9760824   3.6757984  35.5411413  19.1504084  14.6681586   2.7331379
  19.7813593  15.3592625   2.5318697  19.2766129  14.0195217   2.0406273
  11.6932097   1.1089493  56.2989950  11.1090603   0.7443214  55.6341267
  11.1833420   1.8079687  56.7084312  33.9952874  55.1971340  28.7317491
  33.0717659  55.1372385  28.9761925  33.9968801  55.7150841  27.9267907
  78.4558630  71.4802504  49.6233940  77.5529861  71.1776018  49.7205782
  78.7732840  71.5790606  50.5210114   7.6413336  62.1931447   6.0484579
   8.2984677  61.6170134   6.4389399   8.0746021  63.0445565   5.9883955
  72.8528404  61.8518019  50.0107956  73.0927515  61.3867760  49.2092848
  73.6872053  62.1473646  50.3750992  23.4884774  16.8017140  28.2364252
  23.0118977  16.0425177  28.5721758  23.8945137  16.4909401  27.4272326
  73.0911633   7.5491596  37.6967001  73.8287779   7.8175903  38.2445145
  73.4165760   7.6304794  36.8001914  59.7517395  61.0756922  36.0577822
  60.3623152  60.5726480  35.5189180  59.5147467  61.8266726  35.5136395
   0.5543942  40.1446676  37.0225263   0.2188534  39.3390059  36.6293955
  -0.2242046  40.6816435  37.1697712  67.9452610  60.2580404  57.0944834
  67.7801371  59.4916248  56.5453291  68.8195467  60.1103973  57.4551249
  74.1453171  61.8070698  58.0482244  74.5069122  62.0151567  58.9097261
  74.9120378  61.7137337  57.4828386  52.9859924  45.2771950  45.9306622
  52.7205515  46.1952305  45.8760548  52.9243898  44.9561405  45.0310183
   7.6727909  64.7468805  36.8798757   7.3908371  63.9111090  37.2516584
   8.4804195  64.5396137  36.4097643  48.6993881   2.9450584  65.0194407
  48.5015579   3.7884642  64.6123075  49.1543480   3.1715132  65.8305931
  24.3572031  12.2586384  12.4058369  23.8669955  12.7157774  13.0891732
  23.7665592  11.5659132  12.1100405  67.3421049  38.8114119  61.2859154
  67.8880644  39.2276382  61.9529390  66.8940163  38.1043673  61.7501688
  54.9327374  35.3523636  53.2874393  54.6426773  34.8129988  52.5517893
  54.3294048  35.1333427  53.9975500  23.3405482  40.7924834   7.3357275
  23.2677494  40.4633036   6.4398650  22.8529440  40.1601687   7.8636006
  13.0896651   7.2655001   5.2217511  13.0185210   6.3176956   5.1084545
  13.5873734   7.3731365   6.0322693  11.4529811  33.4833899   7.0670250
  11.5037953  33.7055960   6.1373642  10.7847558  34.0721503   7.4178341
  36.6213932   8.0030418  54.3715048  37.1941605   7.8554607  55.1240921
  37.2205582   8.1364609  53.6370373  45.7740259  73.2271385  31.7116356
  45.1996994  73.9166021  32.0448279  46.6252947  73.6528587  31.6099763
   3.7338486  12.0890308  50.9818745   3.7838831  12.1466328  51.9360304
   3.9599791  12.9676415  50.6766987  25.3215447  61.1631645   7.1050909
  25.4462567  60.4474367   7.7283171  25.6583252  60.8210720   6.2769678
  69.2451811  33.5687280  53.0991602  69.0124464  34.2775202  52.4994278
  70.1467943  33.7599492  53.3575439  71.9890209   1.9934774  32.7711463
  71.6462799   1.1002422  32.7412510  71.8189856   2.2854115  33.6667442
  72.3612114  15.0829388  52.3204470  73.2566734  15.4162575  52.3776913
  72.2230145  14.6240784  53.1490517  28.5853595  15.5719257  38.0052638
  28.3678728  14.8242737  37.4485302  28.3798481  16.3376881  37.4689794
  45.0871515  62.5479221  19.5145154  45.3762770  61.7562008  19.0608466
  45.8938885  63.0335093  19.6865749  78.9730248  50.5869423  62.0987087
  79.9232993  50.4742561  62.0760348  78.6254153  49.6954952  62.0717388
  48.7297474  26.9649496   7.9324129  49.4959484  27.4909201   7.7032259
  48.0420958  27.6072684   8.1078986  36.4657580   6.3783970   9.8808840
  35.9647356   6.1167088  10.6533650  35.8112465   6.7353287   9.2805079
  39.4761072  43.0098095   9.8978976  38.5210978  42.9452172   9.8937014
  39.7351872  42.7866879   9.0038470  61.1867809  55.9244776  52.4972296
  61.5841055  55.6495476  51.6709280  61.8881416  56.3838339  52.9590940
   6.6550011  65.8850241  65.0628996   6.7823357  65.2045536  64.4018555
   7.1573013  65.5813932  65.8190298  29.6163311   5.7607437  64.1418457
  29.9632874   5.5475021  65.0080919  28.6880913   5.5327011  64.1928291
  26.9969736  23.5857573  10.1255921  27.2689377  24.5008316  10.1956061
  26.1055552  23.5734835  10.4740933  47.2575985  11.9565907  17.5381354
  46.6055619  12.5395861  17.1492937  47.0270239  11.0871496  17.2108153
  58.8287830  54.2759562  52.4106407  59.5255089  53.6678267  52.1636963
  59.2869711  55.0837708  52.6424408   0.4541725  60.8927298  37.9049540
   1.2246651  61.1866713  37.4189830   0.3317493  59.9833107  37.6325512
  80.1794764   5.1733185  44.8430252  79.8810526   4.2672134  44.7646236
  79.3817946   5.6743408  45.0130939  26.1927258  15.6612005   7.7118805
  25.6429182  14.8776665   7.7160290  26.9150959  15.4500427   8.3033446
  70.3289601  74.3789281   1.6421583  69.4069525  74.5813574   1.4835480
  70.7501312  74.4976582   0.7908324   9.5913544  13.2453514  34.5452476
   9.8989287  12.3589397  34.7347355   8.9402332  13.1301094  33.8531518
   3.8444180  71.5426302  29.9285960   4.1992802  71.4442921  29.0450597
   2.8987831  71.4421701  29.8194551  47.7761221  65.9976816  61.1804962
  47.9022837  65.5603600  62.0225525  47.4191475  65.3180504  60.6087446
  14.4546837  45.6041622  37.6152778  13.7991661  45.0344944  38.0177736
  14.1966003  45.6532431  36.6948342   9.5200529  12.5294662  56.9530487
  10.2344456  13.1439472  57.1212435   9.8561850  11.6841103  57.2507334
   1.9999113   7.5271584  60.3218269   1.6802302   7.4268223  61.2184668
   2.6362457   8.2403923  60.3728199  56.8988132  54.3209410  54.6151590
  57.3401642  54.4621372  53.7775993  57.3299122  54.9265766  55.2181482
  15.2451601   7.2249104  51.2357235  15.4645052   6.5367294  50.6076097
  14.2881909   7.2388912  51.2512207  36.2467037  19.9350634  18.0054167
  37.0294796  20.1427641  17.4951628  36.3286339  20.4670372  18.7969473
   7.2068777  71.4192404  15.3270415   7.0422783  70.5716385  14.9138716
   6.5296307  71.9946183  14.9713591  26.6537844  11.7387667  17.9443625
  26.2515389  10.8714047  17.8983477  27.4572502  11.6577378  17.4304465
  24.7783079   5.0038029  62.2512150  24.9320736   4.3764139  61.5448380
  24.3526354   5.7467056  61.8232822  50.0862585   6.5445128  17.6291731
  50.3088986   5.6246176  17.7721861  49.2901598   6.5185347  17.0983389
  46.9411850  61.4386940  37.1000600  46.7075682  61.1628914  37.9863930
  47.7856684  61.8779612  37.2006750  42.4133002  10.0850144   4.0145329
  43.0078398  10.8105555   3.8238791  41.9835316   9.9016752   3.1791190
  31.7733765  73.0680323  64.2788363  32.3373008  72.8322601  65.0154734
  31.3465333  73.8793802  64.5540571   4.4432583  12.8931786  24.3350887
   4.4614782  13.8497520  24.3644428   5.0301209  12.6644493  23.6143231
  63.1388807  61.2585211  45.4146338  62.4000025  61.3247728  44.8097277
  63.1947994  60.3259897  45.6231928  21.5522419  59.0989151  18.9944819
  21.1198508  58.3308068  18.6212900  21.2638317  59.8271027  18.4442213
  49.4029999  61.8170786  52.0026970  50.2469683  62.1066332  52.3492575
  49.0599585  62.5807047  51.5385485   8.0843964   2.2910667  48.6952543
   8.9865627   2.3781229  49.0030766   8.1537380   2.3137308  47.7408409
  65.7661104  43.3776951  60.5910778  66.4376307  43.6357117  61.2225199
  65.6108475  42.4506474  60.7719231  75.4995104   7.9269577  12.5119078
  75.1202341   8.2262684  13.3382249  76.4385124   8.0860210  12.6078415
  24.2581112  23.6915604  10.7884959  23.5207875  23.3313862  11.2813071
  23.9468534  24.5423142  10.4793719  79.4986431  33.6844149   3.1132201
  80.0075810  33.6818590   3.9239052  78.8477151  34.3744364   3.2412413
  57.9134117  29.0954199   7.4500016  58.4022557  29.7744837   6.9850996
  57.1592652  29.5541516   7.8202132  53.9671551  11.9886580  22.6968172
  53.5049855  12.6485481  23.2137087  53.3590113  11.2508717  22.6514033
   5.9547796  20.1397587  24.5165682   6.8645802  19.8626495  24.4083834
   5.9960261  21.0959221  24.5334387  69.4077202  51.9620945   1.6429356
  69.3905922  51.5639581   2.5132349  70.3385063  52.0672764   1.4459446
  74.9299812  73.4265518  35.2896142  74.7918272  74.0123653  34.5453238
  74.0783119  73.3872032  35.7247519  75.5281254  19.3645264  56.4989090
  75.4268833  19.9547459  55.7521677  75.6575056  18.5012890  56.1060905
   8.4089985  19.0189625  61.4627838   8.6206761  18.2572914  62.0024920
   9.2145052  19.5359398  61.4516687  58.2011652  68.1662226  20.0657892
  59.1568136  68.1704998  20.1200962  57.9706621  67.2418070  19.9732757
  31.2743130  21.3597275  24.5508933  30.5400887  21.3901211  23.9375234
  31.2740269  20.4610611  24.8804712  41.3434111  40.8505955   2.4535349
  40.8338581  40.6178227   1.6773871  42.2498404  40.8739510   2.1468237
  19.5201435  41.7532516  45.3187513  19.7272005  41.7505241  46.2532806
  18.5643902  41.7938591  45.2853060  12.0867867  66.1038542  64.0654802
  11.9208473  66.2220192  65.0007534  11.9276661  65.1729107  63.9097452
  36.9498097  50.0808850   2.4174908  36.3529860  50.1742687   1.6749886
  37.2668682  49.1796723   2.3580578   9.9842464  31.8320551   8.7234762
   9.9403344  30.8899298   8.5600546  10.7851349  32.1146574   8.2819489
  78.3279991  55.0856876  56.9544554  78.4452581  55.3213930  57.8747416
  77.5339651  55.5490065  56.6878414  32.9727112  16.1443987  16.4062575
  33.2763706  15.9150734  15.5279425  33.3655773  16.9998398  16.5797594
  73.9278351  18.0360689  25.1866606  73.8238751  18.1054869  26.1356619
  73.7433373  18.9168444  24.8604372   0.6560272  25.0328970  49.4510269
   1.2526554  24.3337679  49.1836548   0.7703156  25.0957060  50.3992987
  68.2164907  69.1449547  63.6560678  68.0174541  68.5850239  62.9056740
  68.6236525  69.9222374  63.2736015  75.0294876  61.8799114  10.9520602
  75.3904057  62.7570391  10.8231688  74.7105217  61.6226625  10.0870061
   6.6082993  20.6151463  35.2121782   7.1786299  20.1285149  35.8072758
   7.2091475  21.1177708  34.6621037  14.3336048  25.1392246  50.0318146
  15.1999464  25.0318409  50.4244328  14.3426600  24.5603348  49.2695618
  37.3472538  22.3962379  33.1574559  37.9085579  21.7252995  32.7688432
  37.8418484  23.2096363  33.0574512  10.6158489  64.9737406  56.7543125
  10.5864567  65.8081198  57.2224808   9.7252220  64.8522234  56.4252853
  19.2248764  27.0027710  41.2308073  19.1308298  26.2791897  40.6112766
  19.5145931  26.5867783  42.0427418  28.0591145   7.6443745  31.7503047
  28.5843506   7.7526833  30.9574413  27.4951878   6.8938614  31.5633559
  56.8001624   7.3752476  44.8518133  56.8126866   6.5104271  44.4417381
  56.2550231   7.9073025  44.2721796  37.7521372  69.0644264  33.0885887
  37.2932768  69.6320295  33.7078643  38.3244300  69.6561146  32.6001048
   5.0060600  69.1516876  50.1512957   5.5291409  68.6074209  49.5627451
   5.0817150  68.7235069  51.0040379  40.4006424   0.2782608  29.2684746
  40.3759136   1.0407234  29.8466349  41.2769928  -0.0867962  29.3908596
   7.6211940  65.0359383   0.3757790   8.3842408  65.3255787  -0.1243231
   6.9152652  65.6177941   0.0940922  72.9514742  68.8508368  46.8495893
  73.7269306  69.1234446  46.3590956  72.5342607  68.1938982  46.2922812
  45.2923568   6.6735149  38.1143069  45.6706484   6.8531681  37.2535777
  44.5905074   6.0460640  37.9412365  13.9746132  20.4244686  49.8336411
  13.4530773  20.7381607  50.5724430  14.3738356  21.2146355  49.4696474
  32.0811939  61.0059023  58.0799532  32.3681974  61.8241358  58.4853506
  32.5954938  60.9441233  57.2750235  65.9312769   8.4638001  52.7348328
  65.2903601   8.8597466  53.3253288  66.2166735   9.1844154  52.1731472
  49.1417269  54.6278988  61.8320551  48.3460859  55.0796161  61.5507328
  49.1310409  53.8011680  61.3497487  19.2768799  43.0339470   7.1748808
  18.9576136  42.1380797   7.2831753  19.5726954  43.0744972   6.2654427
  56.6623449  64.0901423  14.0282142  57.5426149  63.7209225  13.9572644
  56.4526367  64.0319824  14.9603462  33.9174175  72.4515963  36.5722179
  33.9976287  73.3729982  36.8188334  33.2043171  72.4357080  35.9338880
  21.4810457  13.7789608  32.3089433  21.0113707  13.2909943  31.6325378
  21.6993752  14.6135498  31.8941951  27.0242190  65.4216909  48.7922907
  27.7977276  65.9782791  48.8824606  27.0990133  64.7899723  49.5075321
  39.2046582  41.8237105   7.2159127  39.9467264  42.2800341   6.8192557
  38.5025297  41.9016543   6.5700224  77.3117157  28.4644581  38.6584830
  78.1549879  28.3658958  39.1005397  77.2341963  27.6815868  38.1131959
  78.1832545  41.1571827   2.5344733  78.6140792  41.1268559   3.3886984
  77.3101704  40.7985678   2.6936940  59.2516371  25.9251381  46.3517809
  60.0478121  26.1077095  46.8507910  59.5310780  25.9520031  45.4366732
  48.2860981  35.2867069   5.7280615  48.3596169  35.8257952   4.9405268
  48.1702601  35.9165325   6.4394883   7.2730488  46.6273832  58.0992746
   6.3482136  46.8713617  58.1363487   7.4358601  46.1787891  58.9290237
  10.2551546   0.2983881  54.3474340  10.1318970  -0.4908442  53.8200378
   9.4074860   0.7419325  54.3165016  13.5859722  55.7482576  59.2223883
  14.4949669  55.6560421  59.5078182  13.6399883  56.2508297  58.4095335
  16.0108458  42.6986351  29.2631987  15.6062304  42.9146137  28.4230402
  16.1140429  41.7472544  29.2418173  20.2312313  27.0314684  13.8064841
  20.2278601  26.3448515  13.1395653  20.7739960  26.6781035  14.5113066
  64.8253250  57.7693796  55.1731586  64.5701313  57.3260927  55.9822321
  65.7760143  57.8593445  55.2389479  73.0887651  50.6627941  42.9456997
  72.1708107  50.8045149  43.1770134  73.3600998  49.9207163  43.4860039
  11.3141766  17.6213146  22.2987413  10.6048813  17.2188736  22.7999091
  11.5250197  18.4205318  22.7814698  70.2041292  51.5715075  30.4874516
  69.9243498  52.4830437  30.4034567  71.1578083  51.6188860  30.5544162
  54.6123730  68.2471981  12.3742321  55.5295979  68.3787670  12.1341971
  54.4834935  68.8040199  13.1420687  27.9561653  26.1388947  15.9936893
  27.8716984  27.0163609  15.6206703  28.5638180  26.2471272  16.7253125
  78.8882160  43.5761023  33.0937076  79.0655851  44.4131327  33.5228372
  79.4787598  42.9570150  33.5229158  46.2434851  28.5395088   8.5195664
  45.5865847  29.1946736   8.7550858  46.7595850  28.4204283   9.3168667
  67.0734119  68.0972958  40.1023388  67.8682041  67.6761866  40.4297590
  67.0095682  67.8124380  39.1907406  78.1308647   2.7070595  63.7733507
  77.3947426   2.1072174  63.8939571  77.7251955   3.5697342  63.6870003
  42.6517439  70.5789804  47.7818727  42.5328493  70.0600004  46.9864130
  42.6721239  71.4856052  47.4755335   8.0955325  22.5578871   1.7027644
   7.6696788  22.7444401   2.5394705   7.6205646  23.0937329   1.0675410
  29.6911036  30.2574959  12.6462105  30.6330525  30.3337136  12.7983645
  29.4818913  29.3549385  12.8867462  71.8112599   5.1454821   6.3383988
  71.3602005   5.3509941   7.1572617  71.2910305   4.4431439   5.9481266
  18.1166493  17.4896040   0.2037123  18.2243429  18.2047692  -0.4233190
  17.1779524  17.4740353   0.3903654  26.0681998  28.6296454   2.8452948
  26.1474692  27.7623930   2.4480275  25.1585184  28.8827648   2.6883009
  55.6471416  17.3451782  20.8430028  55.8561536  17.7216126  21.6978955
  55.1914426  16.5282417  21.0459614  27.0016232  37.8191067  34.7127509
  27.4378052  38.3823277  34.0733981  26.4118710  38.4060169  35.1860046
  41.0516644  72.6560783  45.2261591  41.6470194  72.6390886  45.9754944
  40.1914883  72.4634027  45.5992603  53.4018933  25.8414307   2.3756245
  53.8554989  25.4973545   3.1450966  53.9661728  25.6052151   1.6394022
  51.2214171  10.0072518   0.4284552  52.1235596   9.6982279   0.3455809
  50.9517895  10.2026739  -0.4689571  63.4829651  49.7868862  17.2083262
  63.3885704  48.9047375  17.5676897  63.2472645  50.3669491  17.9323557
  76.9718453   7.2964455  57.9472113  76.7995163   6.3841606  57.7142668
  77.8987261   7.4242378  57.7452374  79.0741106  16.5665890  51.5535498
  79.3747564  16.0786224  50.7869148  78.2253119  16.1787964  51.7665720
  55.5161401  72.0033063  15.2461317  55.3710505  72.9370250  15.3989390
  55.5752512  71.9227518  14.2941597  61.4123698  32.8607059  63.5419130
  60.7583471  32.2576309  63.8951635  61.5275570  33.5179401  64.2282104
  65.9713554  63.9107466  45.0492525  66.5883446  63.5216951  44.4294262
  65.3097105  64.3287563  44.4981384  11.1578884  17.7786613  51.6501665
  11.5020456  17.5391174  52.5106382  10.3588524  17.2596050  51.5588140
  71.7187457  43.2589951  13.5844973  72.3270218  42.5262871  13.4877566
  71.0702853  43.1248131  12.8933171  52.1494981  14.9014259  26.3455868
  52.4645182  15.7834984  26.5429163  51.3207551  14.8314835  26.8194246
  20.0462154  26.8834482  64.8545792  19.8118881  26.0078893  65.1623451
  19.9592832  26.8339382  63.9026215  71.2477970  30.2438021  54.5524931
  70.9740782  30.4231715  53.6529732  71.2021303  31.0935736  54.9907112
  73.6243626  18.3843113  27.8423476  74.0358254  17.6475884  28.2941937
  73.1842276  18.8752533  28.5362363  74.4563051  26.8444229  55.3269911
  74.4613119  25.9728218  54.9313688  74.0809866  26.7102886  56.1972666
  24.8945608  32.7536846  52.0510864  25.1457062  33.6598564  51.8721342
  24.8159018  32.7106834  53.0040789  61.8079710  40.5363512  44.4177246
  62.7144527  40.3243494  44.1950607  61.7105293  40.2479649  45.3252316
  74.8635098  28.1696583  27.6505780  75.6125256  28.7077023  27.3942399
  74.5375153  27.8053165  26.8276477  15.9241241  67.8726006  59.1449118
  15.8517498  68.4650612  59.8932314  16.8304867  67.9665947  58.8517952
  19.5870959  33.9283838  -0.2091285  19.6750485  33.0061140  -0.4497739
  19.7437178  33.9455548   0.7350138  57.0805836  67.3445368  34.0314364
  57.4612713  66.9615173  34.8217559  57.0745373  68.2866096  34.2008305
  35.7270718  62.4720907  58.7814713  36.1009479  63.2683372  59.1588926
  35.1940632  62.1011114  59.4846821  10.3868471  41.2593975  20.7547072
   9.4791137  41.4157429  20.4943064  10.8262550  42.0966997  20.6061056
  76.4018862  28.9929333   5.8336428  76.5990369  28.0570927   5.8732680
  75.4576700  29.0452709   5.9817961  76.1539936  33.4076881  28.5640717
  76.0144901  33.1186128  29.4658518  77.0843887  33.2503247  28.4033275
  61.7594882  24.1472507  63.9654970  61.1333462  24.6362759  64.4993830
  61.3927981  23.2645393  63.9145660  79.7283455   8.3567406   9.0546387
  79.1370770   9.0398289   8.7383735  79.3245264   8.0469109   9.8652947
  51.7452288  48.3574438  59.9520254  52.4992418  47.7678967  59.9635077
  52.0721769  49.1564274  59.5385551  39.3584919  63.4306812  46.8978930
  39.8145247  64.1888428  46.5325785  40.0146770  62.7337885  46.8982887
  44.8543692  70.3051710  54.8688889  45.6440973  69.9886227  55.3074789
  44.6396255  71.1207962  55.3215170  30.1610351  53.6113548  34.3424582
  29.2359614  53.5269308  34.1114974  30.1781678  53.5303831  35.2960730
  14.2433157   0.2538849  15.4277682  14.5111075   1.0571648  15.8741617
  14.9766674  -0.3476261  15.5566633  52.2191511  72.1713772  12.4702910
  52.0414101  72.4827137  11.5827587  52.6337038  72.9156533  12.9066685
  17.0182457  22.1067406  26.5129852  17.6096096  21.5925671  25.9633088
  17.5710001  22.7973057  26.8787861  19.8777142   0.4184271  46.7676353
  20.8128491   0.4071165  46.5635967  19.8381415   0.6421352  47.6974821
   3.1894913   4.6567942  31.8568754   3.6411610   5.2903915  32.4143577
   2.2719898   4.7144009  32.1235156  57.5975561  62.5095940  38.3250427
  58.3406973  62.7651453  38.8715482  56.8313885  62.8451443  38.7904716
  71.8060477   7.5742832   9.7805861  72.1711857   7.0877854  10.5196598
  71.2596972   8.2486740  10.1842287  67.2390782  26.6308966  17.8353670
  66.5962254  26.5294209  17.1334532  66.7537247  27.0502320  18.5458830
  72.8347731  50.8085823  49.0922022  72.1164227  50.3122902  49.4845009
  73.2634354  51.2361288  49.8336077  54.8684549  68.7688351  45.2687454
  54.9155331  67.9214954  44.8259878  54.4514990  68.5772848  46.1087990
  27.7983366  59.4992962  10.6981400  28.5311877  59.5002976  10.0823763
  27.6063572  60.4257145  10.8434800  68.0624151  46.6376638  60.8594465
  67.1804190  46.9968081  60.9560251  68.6104679  47.1972847  61.4096165
  12.8821224  73.1956244  56.5688467  12.7213902  74.1094017  56.3334465
  12.9990810  72.7492619  55.7302094  23.1490368  69.0243959  33.5790825
  22.5937408  68.6787939  32.8801990  23.5098022  69.8348951  33.2196784
  33.4176197  21.1877037  32.0327973  33.8571873  22.0328690  31.9395280
  33.3048573  21.0792995  32.9771328  30.8408489   9.4067932  27.4390268
  30.8271446  10.1551796  28.0356550  31.2707844   9.7371746  26.6502142
  72.2596464  59.8259341  42.6491690  72.6363251  60.6089770  42.2476864
  72.6033459  59.8258673  43.5425377   3.7959716   0.3097005  38.0128241
   3.6001566   0.1922259  38.9423871   3.1066555  -0.1757807  37.5596333
  47.6350164   0.5240910  59.5122910  46.8600941   0.4069177  58.9627409
  47.3962545   0.1283745  60.3505230  36.2488961   3.2725698  36.3095450
  37.1809268   3.0813098  36.4142823  36.0082626   3.7374631  37.1109200
  18.5117388  12.6974773  60.9068155  19.2282319  12.3146737  60.4005241
  18.0285823  11.9438529  61.2456989  17.1000862  54.4191742  32.1463323
  17.5025940  55.2048063  32.5164723  16.1595130  54.5937300  32.1792674
  77.1143302  46.7298603  29.7641063  77.0359224  46.3340282  30.6320930
  76.8469605  46.0372210  29.1599560  72.9737091  21.5610051  57.5798178
  72.0996368  21.8287754  57.8635931  73.5387265  22.2956991  57.8190088
  25.5674005  31.0224032  20.6582856  26.4170742  31.0139918  20.2175879
  25.6562257  31.6915059  21.3369942   5.7385547  15.9549413  63.2775138
   5.4788883  15.0361523  63.3455637   5.0866182  16.4270792  63.7954858
  16.9039968  52.3321794  40.5834389  17.5347570  51.9572305  41.1980820
  16.3036350  51.6128134  40.3877163  28.2271604  30.4149552   2.5749853
  27.4167500  29.9062379   2.5490263  27.9551611  31.2838532   2.8703907
  26.7460585   6.5215611   1.7252231  25.9630871   6.9033408   2.1219993
  26.4427972   5.6994355   1.3400303  71.3821083  47.0426369  28.0406284
  70.8877438  47.7141953  28.5105681  70.9423715  46.9703436  27.1934938
   3.5613231  37.0051168  54.9614954   3.1493334  36.2235593  54.5931721
   2.9326800  37.3248528  55.6086493  11.1389212  34.5188021  37.6301742
  11.8801526  34.0376305  37.9979849  11.3348035  35.4375361  37.8139997
  22.5154877   8.7387383  49.2308331  23.0317378   9.3844151  48.7483215
  23.1273675   8.3709210  49.8684406  32.1500430  71.1391841  29.4758511
  31.4605961  70.9118005  28.8519979  32.8723774  70.5493628  29.2600393
  30.4304890  66.8448960  11.5734148  30.6124929  66.3844865  12.3926401
  31.1928276  66.6651403  11.0231757  21.1768794  37.1328592  20.9737945
  21.8977070  37.2139120  20.3492379  21.2830997  36.2591553  21.3500810
  31.0639501   3.0675009  17.1781349  31.3145351   3.2505512  16.2726343
  31.8857598   2.8392386  17.6126015  53.0907265  68.8455491  26.7482042
  52.6188058  68.8712298  27.5805879  53.3568614  67.9311507  26.6518736
  28.4571692  31.1271061   6.7858914  28.7578944  31.6141988   7.5530508
  28.2346127  31.8026824   6.1453465   9.4058732  59.7347235  44.7173929
   8.6791352  60.3564035  44.7573471   9.1706828  59.1365980  44.0080547
  78.2141290  58.1949924  37.9550695  77.9009399  58.9386713  37.4402046
  77.4193058  57.7200901  38.1978798  10.2868474   5.7565844  55.9119940
   9.4190085   5.4428524  55.6577110  10.4672801   6.4773470  55.3085232
  22.6274208  37.4327706  35.3022027  22.8773121  36.5372728  35.0744557
  22.1382955  37.7458166  34.5412874  29.7642064  65.5276144   1.7823628
  28.8583183  65.8367909   1.7854384  30.2467608  66.1951245   2.2700146
  34.5039066  45.5738886   7.1379069  34.4736334  45.0247373   7.9213265
  33.6710729  45.4074456   6.6964129  71.8623779  70.5637311  23.3366203
  72.3224327  70.0036203  23.9618063  71.3809929  69.9537556  22.7776647
  22.3454118   8.9118248  28.9829397  22.7397490   8.5552061  29.7788978
  22.9264259   9.6285975  28.7281990  45.0320816  22.7940202   6.4529955
  45.3175688  22.0708036   7.0112848  45.0716066  23.5642600   7.0199168
  16.1220316  36.8513559  15.9022534  15.7450298  37.2457456  15.1157701
  16.0425714  37.5302886  16.5723026  18.7416196  17.7225959  11.5813577
  18.7162054  18.4974766  11.0199785  17.8540361  17.3667693  11.5387762
  19.9091423   7.0324790  23.2865739  19.7021484   6.1975616  23.7064552
  19.8114526   6.8603188  22.3500657  17.7227024  63.0202948  25.8204126
  16.9621805  63.3515297  26.2980294  17.8850082  63.6771308  25.1433182
  60.3928528  13.5910009  16.0255265  61.1422620  14.0481876  16.4071000
  59.9907104  13.1328176  16.7634845  51.6081167  66.6772573  32.3681307
  50.8286602  66.3832520  32.8395534  51.8047928  65.9632521  31.7617083
  43.3672333  23.9440536  43.0139875  43.8997173  23.4883237  42.3620653
  42.5774240  24.2032266  42.5393677  48.2315969  20.9591770  53.4256649
  48.3090639  20.0125146  53.3070946  49.1294050  21.2836099  53.3555365
  25.3623128   0.0402707   9.5136708  25.7619214  -0.0541519  10.3783262
  24.4202042   0.0260363   9.6823740  10.1564459  63.9627372  35.1915574
   9.3097166  64.2157756  34.8237920  10.4555873  63.2454871  34.6327186
   2.6388577  61.7038738  64.9163866   2.3296908  61.7533325  64.0118408
   3.5444073  62.0115625  64.8771572   1.5122202  15.6102455  36.6497540
   2.3800437  15.9254110  36.9023108   1.3525161  14.8618197  37.2247195
  54.4596087  66.8931978  36.2884712  55.3311058  67.2609126  36.4351344
  53.9512682  67.1705102  37.0506525  69.2055521  63.1343757  50.5842400
  69.7672627  63.8964414  50.4429293  69.6833143  62.4073457  50.1849890
  31.0127500  69.2468714  48.1911373  31.7410091  68.8808995  48.6930704
  30.8107237  70.0731968  48.6300039  58.3174562   3.1147373  31.2169218
  57.3875427   2.9033351  31.1344838  58.5249996   3.5981271  30.4172397
   4.6797010  23.1882191  51.0759258   4.8644736  24.1271496  51.0535383
   5.5427861  22.7744603  51.0868454  77.0330527  32.4661279  47.5601482
  76.2340158  32.9676032  47.3979902  77.7403635  33.1029129  47.4579334
  24.5798802  10.6299555  28.2195473  24.7618747  10.6411362  27.2798753
  24.9779630  11.4352036  28.5502100  41.5968704  15.8123779  25.5213022
  41.1400175  15.1043177  25.0672436  41.2037659  16.6128373  25.1734996
  26.0025311  12.6586950  29.8636413  25.8266997  13.5811901  30.0488901
  26.6386819  12.6750159  29.1486025   3.9040927  72.7026864  13.8993490
   3.9758948  71.8682837  14.3628657   2.9735950  72.7803623  13.6887050
   8.0786622   9.0209389  54.8394442   8.6307138   9.3566555  54.1332150
   7.6297784   8.2678801  54.4552088  63.0970860   1.3724869  39.6989012
  63.2055092   0.8093043  40.4652596  62.1494913   1.4710046  39.6062136
  20.7724023  12.1926641  29.8229575  20.3170156  11.4175975  29.4941330
  21.5042329  11.8428564  30.3311825  25.4525518  34.7468495   5.2369201
  25.4622626  33.9875174   5.8196324  25.8771086  35.4410315   5.7409966
  27.9898286  23.5544014  55.6656933  28.5828495  23.4065866  54.9290085
  27.2429895  22.9818606  55.4905844  61.4325955  12.2910418  23.2941225
  61.7891647  11.4896907  22.9108122  60.5115130  12.2918786  23.0336645
   9.2756704  74.8022253  14.2271996   9.5602230  75.7134902  14.2968941
   8.5271124  74.8299638  13.6312771  11.9788178  45.9572704   1.9811896
  11.9770750  45.6252475   1.0834196  12.3068591  46.8532325   1.9045618
   4.9565482   3.0081710  43.9683056   5.8467358   2.8009889  43.6839247
   4.5019069   3.2632339  43.1655121  27.6523355  55.0872659  20.4567313
  26.7647842  55.4374634  20.3802991  28.1267170  55.7456826  20.9643579
  60.3886334  74.8748082  45.9280491  59.6620569  74.8972455  46.5507936
  59.9720583  74.7256997  45.0792456  26.2413001  20.6528330  35.8629131
  26.5382528  21.3773370  36.4135003  26.6451287  20.8182979  35.0109887
  64.8809597  75.0798364  35.0935674  64.3785474  74.7358760  35.8321500
  65.6339869  74.4932431  35.0222206  18.4357727  36.1141062  53.6295176
  18.9975691  35.7234502  52.9601860  18.3339620  37.0253491  53.3547354
  40.9296370   4.3843675  23.2780504  41.0600233   5.2856147  23.5729814
  40.5065298   3.9490166  24.0181088  39.5075055  16.2051596   4.4056252
  39.0517183  17.0402254   4.5112494  38.9493033  15.7008042   3.8137892
  15.6994951  20.1173353  38.9751315  16.2546349  19.9845278  39.7435141
  16.1721921  19.6893239  38.2612705  43.2325329  40.3258264  64.3530699
  42.3018445  40.5285332  64.2584054  43.6736275  40.9518591  63.7788310
  32.8439951  29.6000862  18.4087121  33.4740615  30.3121853  18.5189867
  33.0179453  29.2601490  17.5309789   4.7603726  13.5426152  64.1136885
   4.1651917  14.1049409  64.6094513   4.2092842  13.1469715  63.4384108
  34.1086507  25.5358124  34.0483856  34.6254778  26.3374114  33.9673710
  34.5185995  25.0583935  34.7696638  60.6029292  23.3960821   8.3520058
  60.6543823  22.7741422   7.6262120  60.0878616  22.9430248   9.0195969
  37.2629646  66.3815146  42.0749426  37.8676609  66.5924590  41.3635540
  36.3962511  66.5755724  41.7180347  16.6505245  59.4744026  54.4264889
  17.0424847  59.3157994  55.2852345  15.7689861  59.7928475  54.6206951
  36.6741518  55.7978617  29.5852613  37.1854118  55.8308314  28.7767076
  35.8367924  55.4149102  29.3237162  12.6205782  70.5537253  43.4537554
  12.8567723  71.4758002  43.3526516  11.7200855  70.5712919  43.7778473
  67.3111913  60.4557859  44.7692156  67.4242303  59.5716309  44.4203281
  67.5375650  61.0320782  44.0392351  22.6975679   3.0464977  32.0812631
  22.5499749   3.9894864  32.1535158  23.6115456   2.9266676  32.3391724
  55.8512725  48.5873601  61.2782445  56.6122545  49.1628525  61.3553449
  55.1055397  49.1838631  61.2126726  57.6309296  44.0260525  13.7929514
  57.7969071  44.9256463  13.5111454  56.9257899  43.7222494  13.2213620
  74.6762158  26.0265757  16.8652895  75.5361893  25.7503750  17.1821287
  74.3935516  26.6938736  17.4906329  18.1539894  44.5118222  62.6771062
  17.7821274  43.6405245  62.5400254  17.5407065  44.9430642  63.2722083
  77.9281006  62.2456669  39.4236541  78.4702215  62.9838704  39.1454601
  78.1665215  61.5354716  38.8278270  65.0963185  58.1977653  29.5436978
  64.2551741  58.6342834  29.4089413  65.3117738  58.3706521  30.4601693
  42.8958801  75.4851023   7.7863103  42.8953508  75.1218692   6.9007069
  42.1651605  75.0489304   8.2245231  24.3926072  19.4862151  37.6078534
  25.0198436  19.9142492  37.0251083  24.2133141  18.6440516  37.1897078
  41.5966511  12.3174131   8.3981508  40.9032106  12.5623727   7.7854764
  42.3982525  12.6583779   8.0014014  18.3899331   6.8786585  40.7642078
  18.6066425   6.0333210  40.3709221  19.2369485   7.2579962  40.9985161
  17.7568805   6.2870795  52.1781683  17.7067053   6.4858943  53.1131458
  16.8716943   6.4477873  51.8512869  25.9433607  62.7051341  41.3810968
  25.7380632  62.5880860  40.4535294  26.8832115  62.8858196  41.3974476
   0.4391698  58.0449568  39.7278261  -0.2106448  58.1081890  39.0278435
   0.6935362  58.9513277  39.9010873  12.9459655   6.8799150  56.5094471
  13.3841014   7.3229104  55.7827950  12.4200475   6.1977458  56.0919666
  25.6842712  58.9723383  21.0770702  24.9158243  59.4614851  21.3710999
  25.8960489  59.3495952  20.2232194  40.8515987  70.1152854  52.8214645
  41.2128446  70.9588726  53.0936670  41.2025544  69.4889550  53.4545326
  31.1039710  33.7549925  20.9178352  32.0466518  33.9191103  20.8922482
  30.9738255  33.0134511  20.3267288  37.8080916  21.8238854  40.1010656
  37.8280854  22.6884890  40.5112982  38.6520553  21.4323854  40.3261995
  71.8661201  26.1550283  43.8082075  72.7984178  26.2189507  43.6009264
  71.4293802  26.6162682  43.0921459  38.2378411  12.3493385  51.3902617
  38.7757349  12.2967851  52.1802902  38.4534597  13.2008505  51.0099077
  47.9050466  68.7428488  19.4413927  47.9187890  67.9915084  20.0342921
  48.6214896  68.5774721  18.8285425  57.9116565  23.5953951  42.7590466
  57.7795344  23.4509468  43.6960125  57.3784214  24.3643975  42.5577259
  38.5297585   6.4144337  33.3932805  37.9536748   5.8150870  32.9187870
  38.0445623   7.2389770  33.4240246  34.6534324  22.7969217  19.2025959
  34.4518876  22.4916339  20.0871372  34.1827941  22.1932817  18.6278343
  29.0314078   3.0016187  43.8835478  28.8693285   3.1400472  44.8167133
  29.3926978   3.8334063  43.5772276  47.4024010  11.7509460  40.6904173
  47.5694942  12.4856460  40.1000547  48.2272768  11.2656713  40.7083035
  65.0279583  23.7992368  41.5505835  65.0220908  23.9825043  40.6111118
  65.9554304  23.7183604  41.7730447  42.2262812   5.2451032  48.8821363
  42.4238062   5.0422853  47.9677629  42.9635143   5.7818270  49.1730785
  39.6790358  49.0287139  11.2304238  38.8429829  49.3115987  10.8599881
  39.5861586  49.1762628  12.1716097  71.8390200  67.3419761  38.3754349
  72.4147639  67.9024254  37.8551960  71.3741705  67.9469906  38.9534521
  36.6202092  20.4117537  49.0453386  36.2624335  20.4821515  49.9303627
  35.9099102  20.0301504  48.5295057  16.2771738   9.5323545  46.8095684
  16.6907752  10.2798891  46.3778734  16.9981110   8.9271510  46.9833755
  13.6425547  71.5397104  49.6673155  14.5351557  71.3427471  49.9513912
  13.7390474  72.2838720  49.0730524  54.0670776  18.8490224  28.6920309
  53.1219721  18.8803244  28.8404250  54.4504023  19.0288675  29.5504904
  79.0226445  39.3318748  30.2358389  79.1164145  40.2689194  30.4072738
  79.7985396  38.9368128  30.6335092  28.4582376   0.5989441  64.0721321
  28.1496549   1.2872148  63.4828186  28.5210729  -0.1796629  63.5189104
  38.2460026  69.6805285  41.4493990  38.6684517  69.0375643  40.8798695
  38.7661699  69.6672093  42.2528172   4.1874704  20.0273061  34.0797901
   4.0183866  19.0926182  34.1981196   5.0665855  20.1585221  34.4349957
  27.7723908  18.6828232  59.9205446  26.8554807  18.9448464  59.8377657
  27.8722715  17.9612195  59.2996216  45.5182651  72.3632910  59.5099020
  46.3383726  72.5598874  59.0571260  45.7461838  72.3867865  60.4392767
  40.6996918  26.1764693  32.2156596  41.5035391  25.6737328  32.0840621
  40.7038975  26.8237901  31.5105438   1.5772504  36.4661789  60.0441837
   1.9873390  36.4109445  60.9073210   1.1245207  37.3095369  60.0476360
  64.0157843   5.5934405  18.4041739  64.0399647   5.6126285  17.4474716
  63.8850594   4.6705675  18.6219978  31.2492800  25.7705188  58.6475897
  30.8741546  26.3378429  57.9740524  31.0867667  26.2342167  59.4690561
  37.1400217  67.8795939  28.4157372  37.0810799  67.8313225  29.3699002
  37.9233507  68.4042715  28.2503939  71.4603779  70.0617682   7.0196289
  71.5769873  71.0104608   7.0707744  72.0891962  69.7786038   6.3558233
   1.4429478  70.4923492  41.8649006   0.4897407  70.5309202  41.7865467
   1.7396335  70.1596831  41.0178232  45.7310486  12.6156080  34.6586990
  45.4868317  13.0978024  33.8687110  44.9401951  12.6229763  35.1978898
  42.0059395   3.1410581  35.0965953  42.5565100   2.4566394  35.4769564
  41.9982290   2.9487368  34.1589475  31.7690191  61.6658770  37.5530505
  31.4007387  62.5329350  37.7227902  32.6392374  61.6932236  37.9507995
  13.6666501  32.4683380  23.0715704  13.6296177  31.5122986  23.1006956
  14.4821167  32.6624751  22.6094484  11.5935326  23.8711548  61.9526958
  12.1171939  24.1189408  62.7146769  12.1766365  24.0090752  61.2062359
   6.7549342   7.8117096   6.2782693   6.8832195   8.6992902   5.9436423
   5.9541225   7.5080085   5.8508372  78.3445831  42.2339757   7.5710944
  78.3741852  41.6560431   6.8086317  78.2830282  41.6402768   8.3194044
  36.1393118  16.6501272  48.0248594  37.0487189  16.7693675  48.2987118
  35.7624865  16.0739911  48.6899185  20.6421188  73.0497379  23.9970255
  20.4422621  73.5569650  23.2102561  21.5292362  72.7211087  23.8512087
  38.9461426  63.8562225   6.7842710  38.0526880  63.6585938   7.0651799
  39.2112545  63.0914604   6.2733042  14.6564297  71.3138663  39.6731448
  13.7627987  71.5824582  39.4597888  14.9484924  71.9503592  40.3256845
  34.4969153  18.5318482  28.2399702  34.0028071  18.3288765  29.0342569
  35.3892398  18.6916912  28.5472751  13.1401050  31.9652796  54.4849968
  12.1989489  31.7981052  54.4349051  13.5220933  31.1177850  54.7131872
  26.5817837  66.2337433  54.2695236  27.4082092  65.8816712  54.6001196
  25.9622244  65.5088769  54.3528748   2.7255586  70.5204316  34.4663715
   3.0739812  71.4008637  34.3261099   3.4930972  69.9498980  34.4262409
  39.8435545  14.9754798  44.3675613  39.1169500  14.5534873  44.8260403
  40.2979755  15.4740918  45.0466204  54.6870756  20.5100346   0.9651958
  54.8986149  21.4014721   1.2423649  55.2952433  19.9562991   1.4548267
  42.8678608   0.8750151  18.9294171  42.1451139   1.4765361  18.7504137
  42.7453232   0.1606046  18.3042502  31.7011857   8.6986291  44.8704958
  31.6995168   7.7503079  44.7404337  32.3970985   8.8514960  45.5096865
  41.4001850  69.4793927  28.7558699  42.2634796  69.3048685  28.3810425
  41.2533668  70.4115461  28.5953498   8.2375801  40.6037188  28.7123418
   7.8585970  41.4748669  28.8293886   7.6046103  40.0107718  29.1173077
  62.0687760  64.6984801  55.7273033  62.2513903  63.8062820  55.4325720
  61.2623848  64.6219144  56.2373045  78.1911120  65.4772078  52.3218250
  78.4787450  64.6370100  51.9646597  78.5099110  66.1259501  51.6943455
  76.0720921  20.8528376  49.6140385  75.8323097  21.1312985  48.7301826
  75.8732748  19.9166930  49.6324253  35.9295607  39.9141788  39.2868495
  36.1483049  39.7147131  38.3765769  35.0103188  39.6616340  39.3731499
  48.7273026  25.0525808   5.4665077  48.9364624  24.1814685   5.8036172
  48.7457848  25.6187844   6.2380677  51.7322159  27.2865677  24.3904495
  51.4797115  28.1847477  24.1765594  50.9258270  26.7807126  24.2900515
  60.0550175   5.9342825  36.1403513  59.5030642   6.6161644  35.7574463
  60.2926922   6.2747538  37.0028019  44.8131132  22.4892855  41.4244461
  45.1005983  21.5825748  41.5315151  45.2404881  22.7826142  40.6197453
  53.8465405   9.9627233  59.8835850  53.3748531   9.1909301  60.1967573
  54.6987772   9.6264398  59.6063805  22.8822516  68.3329973  60.1331165
  23.7950523  68.1262550  59.9324056  22.8580556  69.2886958  60.1809081
  32.1927714   2.4198930  20.8238268  32.5648999   2.3303123  19.9464846
  31.2994623   2.7296725  20.6746078   5.9890294   3.0561173  54.7375965
   5.2194214   2.6253605  55.1095915   5.6314921   3.7621865  54.1992044
  21.7191172   5.6244045  10.6397462  22.4806046   6.1362469  10.3670061
  22.0532131   5.0437742  11.3234711  42.7703285   9.9782747  12.7966201
  42.6408672  10.8165812  12.3530948  43.2314491   9.4369841  12.1558356
   1.3726786  72.9082683  13.1131923   0.7009224  72.8386900  13.7915254
   1.0192231  73.5433640  12.4903321  33.1341175  68.0580365  23.3779335
  32.2529987  68.3446835  23.6181307  33.7150625  68.6933785  23.7963533
  25.7685284  69.9045568  17.3400092  26.4100508  70.4242398  17.8243780
  26.0532717  68.9987849  17.4613726  57.5859690  16.3510787  46.1351776
  57.9913521  16.8124950  46.8693399  57.6942635  16.9432187  45.3909492
  19.8272824  61.6683388  14.1889977  18.8771129  61.6671085  14.3047941
  19.9884963  62.3524714  13.5392284  66.7496631  46.1941718   5.4072660
  66.1342511  46.5342831   6.0567456  66.6599426  45.2430796   5.4673141
  41.9557524  18.8914311  22.2968459  42.7769327  18.8689220  21.8055344
  41.2994957  18.5642958  21.6815901  73.0925319  67.7408462  42.3369503
  73.7962303  67.1254384  42.1312475  73.2515917  68.4880399  41.7602062
  39.2791724  22.4412394  27.5203013  39.1685677  23.1689239  28.1322408
  39.5450473  21.7042089  28.0701447  32.2025061  16.8460071  21.9881535
  32.6251745  16.5798473  22.8046966  32.3962474  17.7802670  21.9116259
   8.8169813   2.8317946  37.1996260   8.0646127   2.3504810  37.5438809
   9.4434476   2.8463796  37.9232001  45.4097128  13.9315712  62.3359156
  44.5925760  13.4709096  62.5264835  45.6254339  13.6756253  61.4391518
  30.4196572  16.3041067  34.9064064  31.0638714  15.6226146  34.7146034
  30.6398821  16.6001117  35.7896471  18.7154964  67.2890847  50.3135777
  18.6537603  67.4939560  49.3805981  19.2139057  68.0164670  50.6860495
  10.2240352  70.2649223  21.4251041  10.8261637  70.3222634  20.6832242
   9.7631172  69.4360005  21.2959671   2.3648940   7.1232694  53.6863327
   2.3342860   7.5745648  52.8427505   1.9934084   6.2590528  53.5092449
  61.3767639  56.0472845   7.0463938  61.5541241  56.1051344   7.9852378
  61.5504685  55.1321982   6.8257701  66.4487824  60.5926846  26.5449142
  65.6824419  61.0511815  26.2003326  67.1875141  60.9661614  26.0642672
  74.9161610  64.4134854  31.9308424  74.7514710  64.8178410  31.0790157
  75.8414802  64.5872222  32.1035552  49.2321249  50.9654845  23.0344275
  50.1581761  51.1101402  23.2286909  48.7861534  51.1164309  23.8678339
  46.7304277  27.2708130  31.5724611  47.6211214  27.6150417  31.5060472
  46.4889860  27.0557213  30.6715322  58.3262682   5.8131981  12.4796498
  58.4306955   6.0946482  11.5707433  58.8231754   6.4545476  12.9875767
  51.4084435  26.0134029  49.3457842  50.8762026  26.5914679  49.8924065
  50.8984280  25.2057624  49.2838717  18.9038241  19.3304491  29.8931026
  19.5579875  18.7087548  30.2121639  19.2910039  20.1904678  30.0564837
  20.4683628  39.8510818   4.1063479  19.9523392  39.2998389   4.6946362
  20.0805941  39.7085050   3.2429055  58.9127588  16.2903130   1.0337835
  59.1620970  15.4278338   0.7018283  59.7206450  16.6479063   1.4021379
  27.4879793  55.3470241  36.9376278  27.2006849  55.1506018  36.0459375
  26.7005686  55.2417993  37.4716139  74.7024342  53.7171699   7.6797083
  75.1664396  54.2073967   8.3583859  74.5609566  54.3536319   6.9789007
  56.9614447  56.0299050  19.2460024  56.8517140  55.1228975  18.9604676
  57.8902641  56.1009907  19.4661701  27.6063991  45.1449251  63.2893944
  27.7103233  44.2879963  63.7030411  28.3088827  45.6776142  63.6622047
  16.7977905  23.9560342  54.9619913  16.5283561  23.7197781  54.0744019
  16.5999770  24.8899698  55.0317430  43.4138155  13.0345893  56.0288763
  43.6693621  13.0228448  55.1064968  42.5838614  13.5112989  56.0414171
  25.9268594   8.1727481  28.9401078  25.6038332   7.4679863  28.3786821
  25.4688525   8.9543116  28.6308789  24.8884463  21.6897988  32.5370073
  24.7537875  21.0042596  33.1913280  24.1715884  22.3065376  32.6852608
  47.5193071  23.1622243  45.6755447  48.3182621  23.3892846  46.1513090
  47.7298212  23.3346629  44.7578430  77.4096188  71.3983222  54.4853687
  77.7696237  70.6475439  54.9575520  77.2345505  71.0660135  53.6049366
  16.5496608  64.6439447   7.8964642  17.3799630  64.4565024   7.4586323
  16.7967065  64.8624291   8.7950543  10.6304872  38.1043148  39.9171138
   9.7211313  38.0697370  40.2139425  10.5943418  37.8269172  39.0017033
   6.7864136  68.8767224  14.7578752   6.2685684  68.1092142  15.0007749
   7.5600056  68.5163014  14.3244171  45.8466244   8.6937618  61.8676186
  46.1091566   8.4214169  60.9883404  44.9624157   9.0430272  61.7561722
  42.7795267   7.2892064  42.8615141  42.3041201   7.5470108  42.0717287
  42.8029156   8.0824900  43.3966637  76.6952357  66.1783009  28.7739205
  77.4955067  66.1042421  29.2938399  76.9128404  66.8093937  28.0879164
  33.9945340  15.6904900  55.0746727  34.1660786  16.1668110  55.8870268
  34.0904784  16.3486373  54.3862915  12.7921438   3.3874941  20.4200125
  13.2695758   3.6856446  19.6458042  12.9305518   2.4405026  20.4367971
  73.6060819  68.7479030  36.7778754  74.1304645  69.4705372  37.1229196
  73.7895713  68.7460654  35.8384299  20.1159596  25.4070592  43.3696795
  20.9820676  25.0007892  43.4018183  19.9782014  25.7476020  44.2535830
  56.2694454  19.4402087  30.6068158  57.0487928  19.9956596  30.5889654
  55.9589243  19.4922018  31.5107536  20.7436848   5.3434277  57.5661373
  19.9944532   5.6319082  58.0873489  21.3381886   4.9446556  58.2015753
  28.2114410   7.3032945  17.5315952  28.2168126   6.3698626  17.7435112
  27.8435850   7.7233028  18.3090961  46.5935358  67.5690092   0.1301411
  47.4159952  68.0417241   0.2579382  46.7374178  66.7204417   0.5490235
  40.8576584  21.1890697  46.3185167  41.1371803  20.2837157  46.1827421
  40.0693750  21.1181879  46.8568563  30.2539849  21.2131786  60.5188942
  30.3483081  22.1107578  60.2000046  30.4209757  20.6672454  59.7505808
  68.2841869  28.7792380   7.1798781  67.8680750  27.9400213   6.9828966
  67.7560660  29.4245841   6.7099312  65.3333902  26.0489583  16.1983800
  65.4584503  26.4784956  15.3521597  64.4760227  26.3525367  16.4966917
  13.8607097   6.9589847  27.5438070  13.0049944   6.5615040  27.3825908
  13.8849032   7.7193260  26.9628382  38.1521630  -0.2951751  11.8712044
  37.6825595   0.2935211  11.2803221  38.7451339   0.2771254  12.3581219
  38.3221058  52.1920942  37.4050832  38.0274013  51.7596435  38.2065630
  37.5182346  52.3563813  36.9120979  47.4497509  22.1842909  25.4850388
  47.9507494  22.9967427  25.5568552  48.1139946  21.4967990  25.4364347
  65.3754950   3.2765639  13.7705767  66.1371517   3.6040583  13.2921886
  65.1297092   2.4745703  13.3094609  11.6618991  17.7865207  25.9315228
  12.5275445  17.4094999  26.0888267  11.0784805  17.2969902  26.5113640
  54.0539598   6.0246688  35.4744840  53.3506203   5.4070711  35.2741885
  54.8369884   5.4794294  35.5506778  69.7095871   8.3592039  14.1639555
  69.2465353   9.1935492  14.2393339  70.5441284   8.5074043  14.6087134
  44.0391705  70.5071424  22.0955729  43.3441458  71.1052953  21.8210077
  44.1071561  69.8745786  21.3803983  27.8958035  11.2476873  31.2842631
  27.0191836  11.6043711  31.1409187  28.0930972  10.7668006  30.4804873
  75.6784115  64.3817126  21.5117502  75.5456433  63.7598037  22.2271776
  75.6111083  63.8513445  20.7177663  14.5008854  66.9165247  14.8626792
  14.0558676  66.0854339  15.0284433  14.0013079  67.5601022  15.3651369
  78.7331158   8.0289268  50.1174259  78.8431547   8.9720738  50.2382469
  79.4980253   7.7619034  49.6076775   5.9241333  53.6204471   7.7677468
   5.0256958  53.8034012   8.0426529   6.1963644  52.8831722   8.3141402
   9.0736107  63.3486246  47.0665884   8.4987143  62.6259648  46.8146229
   9.9576405  63.0186414  46.9058561  12.9197025  28.0096292  53.7208796
  12.2679472  28.3955812  53.1356525  13.1214738  28.7052584  54.3466759
  75.8666286  60.2787553  53.4819841  76.4938674  60.8739447  53.0714321
  75.0522051  60.7800292  53.5228443  41.7096714  59.0910684  38.9197159
  41.2314896  59.6536898  39.5288396  41.6384128  59.5368432  38.0756545
  34.1917992   7.0649749  31.7502427  33.7874937   7.8022039  31.2927914
  33.5352278   6.3695586  31.7109728  21.9055390  35.2461767  15.5886793
  21.5827894  34.3956470  15.2909184  22.7887797  35.3079081  15.2249384
  69.6213374  60.5346190  13.2846415  69.7577319  61.4760112  13.1778193
  68.8411651  60.4665755  13.8350344  25.6460667  16.9389009  36.5392423
  26.4971614  17.3768318  36.5485549  25.4507732  16.8146849  35.6104445
  17.1550059  24.1942501  28.6385107  16.7540050  24.1007805  29.5026231
  16.4174533  24.1739035  28.0287266  26.2189078  23.2306910  30.2051473
  25.8666110  22.5913930  30.8243561  25.4458332  23.6568499  29.8350453
  40.8402824  60.0283527  20.5723119  40.5948544  59.5722771  21.3772917
  41.1169767  60.8970165  20.8640265  63.9662790  22.7457333  57.0776606
  63.2204819  22.2541356  56.7336464  64.3145895  23.2144260  56.3192177
  70.4026556  11.5151191  43.4872818  70.0622368  12.1566927  44.1107655
  69.8725510  10.7320893  43.6358881   7.1925986  12.0274699  58.5351801
   7.8475541  12.4847388  58.0077600   6.9419277  11.2719703  58.0035639
  41.9071106  70.7544829  61.4059544  41.7493729  71.0201814  60.4999971
  42.4052910  69.9403559  61.3335085  16.8159699  14.9896753  49.1313791
  17.2177219  15.3585899  49.9179745  17.2521305  15.4380679  48.4068537
  25.4988861  20.7010579   7.5126565  25.9692550  21.4908934   7.2459280
  24.6379852  21.0163736   7.7877140  54.5776974  62.4705171  40.6385565
  54.5427923  63.2883131  41.1347628  54.9189416  61.8275701  41.2601662
   8.5100941  72.6260897  31.1910701   8.6166672  73.3503105  31.8078184
   8.9276389  71.8806302  31.6225529  79.2669949  72.2783275  23.6276197
  78.4945664  72.2762360  24.1929340  78.9432177  71.9775008  22.7785587
  19.8917627  13.4152412  63.5998917  19.8608124  13.2029581  62.6670408
  20.8150125  13.3244455  63.8356829  30.5626088  57.9707422   0.5929068
  29.6288257  57.7640118   0.5536249  30.5937480  58.9242520   0.6708840
  23.9006734  17.3954034  59.7567177  24.6201181  17.3685598  60.3875208
  23.2402277  16.8063319  60.1214600  29.2382407  12.5696874  45.2775717
  28.6604571  12.9696059  45.9275484  30.1087332  12.9047847  45.4924774
  34.2274956  75.0087782  40.1105881  34.2591146  75.2409134  41.0386753
  33.6946968  74.2141391  40.0804758   0.5047969  64.0194630   4.1080540
   0.2395061  63.2628380   3.5852057   1.3783792  63.7948047   4.4283941
  64.8291492  49.7268105  54.3450117  64.9144602  49.2986727  55.1968622
  65.6144094  50.2689600  54.2697191  22.0906261  72.0064678  55.4919624
  22.8718332  72.1015631  54.9470711  21.4847998  71.4957069  54.9550009
  72.3391914  33.3344984  57.0707750  72.2548962  34.2511988  57.3330498
  71.4952898  33.1206536  56.6728592  13.0468378  50.7489537   4.7054920
  13.8275871  51.2750529   4.8783508  12.3163805  51.3158750   4.9530154
  20.0062565  72.8838291  33.7628150  20.7356504  73.1362570  33.1966877
  20.3907398  72.2715714  34.3901467  72.9809735  54.6566485  41.8912697
  72.7994511  55.5670344  41.6578674  72.1523294  54.2013334  41.7420340
  75.0510607  44.5402979  34.5942783  75.6020984  45.2956008  34.7994781
  74.1555271  44.8705887  34.6661282  43.1457186  19.8686588  39.9350047
  44.0563488  19.9247515  40.2245522  43.1593847  19.2274404  39.2244530
  48.0438331  60.3467225  63.2284784  48.1717495  59.4171499  63.0393648
  48.4589628  60.4770254  64.0810728   1.8029657   1.9812804  59.0447235
   2.1427014   2.8418228  59.2902422   1.5526952   1.5766951  59.8753309
  41.7109776  16.1236095  46.1836004  41.3292217  16.5451550  46.9535303
  42.3052645  16.7804730  45.8208561  74.7553682   5.5013269  50.9098005
  74.4176722   4.6109384  51.0067654  74.1348267   6.0467988  51.3931465
  50.5263519  19.0741706  40.3673124  51.1696148  19.4218719  40.9850073
  51.0243082  18.9196360  39.5645714  32.7175808  27.6595497  37.1296954
  32.4407196  26.7839813  37.3998070  31.9005203  28.1461477  37.0207691
  48.3563205  45.6232698   9.5560959  48.6663672  44.7421552   9.3469551
  47.9491540  45.5356254  10.4179314  60.3518200  17.8653944  30.6691790
  60.9923840  18.5448253  30.8796120  60.5868244  17.5798464  29.7863054
  54.2114019   1.9744226  36.4462161  53.5410261   1.8749064  35.7702541
  54.6989298   2.7562448  36.1867809  28.7559247  24.1843796  30.1217604
  29.0351176  24.0955639  29.2105007  27.8006768  24.1352391  30.0854683
  17.4883103   9.9074268  61.0090446  17.5943363   9.9049199  61.9603539
  17.7038622   9.0139616  60.7416725  26.4170122  25.9039235  42.9251337
  26.7087150  25.2608371  42.2789288  27.1921515  26.4382195  43.0981016
  32.9012609  30.0486135  41.6566658  32.5798345  30.6071949  40.9489202
  33.2135415  30.6613970  42.3224068  32.5678110  13.9477921  34.2024899
  32.6411343  14.3526495  33.3382297  33.4676266  13.9109576  34.5268440
  79.0630687   9.1860018  57.5712660  78.5159363   9.5592532  56.8802067
  79.9234737   9.0811047  57.1651527  51.7158222   1.0618456  33.0887866
  51.1923456   0.6290174  33.7632227  51.0835457   1.2993202  32.4105072
   9.6814146  70.7766070   4.1904906   9.3213310  71.5613999   4.6036175
   9.0458670  70.5503334   3.5114411  61.8665184  40.5883843  65.0593210
  62.1743191  40.0247874  65.7691442  61.0383095  40.1956001  64.7836059
  22.0171261  12.7902424  24.6226048  22.8822017  12.4774516  24.8872519
  21.6052079  12.0325732  24.2072821  21.2694601  67.0443838   8.6764050
  21.2199644  67.9084586   9.0852529  20.5506710  67.0369582   8.0443305
  32.2590498  60.9168290  26.0383558  32.6018528  60.2135729  25.4868603
  32.1272901  60.5078410  26.8936920  76.0248133  49.8509647   6.6835860
  75.2573296  50.1728477   7.1564415  76.3106247  49.0861835   7.1832398
  29.7956634  18.0388820  33.1086755  30.1455641  17.3565722  33.6816120
  29.9916863  17.7320695  32.2234249  18.4459452  69.8533921  59.5309591
  17.9899982  70.4674919  58.9554358  18.8135866  69.1976880  58.9383984
  39.2610273  70.9190240  31.7897153  39.4513616  71.5494730  32.4843645
  39.1381142  71.4554327  31.0065222  54.5091935  47.8865947   1.1222008
  55.0479933  47.1926989   1.5022448  54.8313638  47.9759146   0.2252844
  28.1609587  41.4631294  60.9571838  27.9446701  42.3954295  60.9735107
  29.0282730  41.4254951  60.5539703  79.5125389  40.0049019  54.5495558
  78.7646246  40.0560474  53.9543724  79.9123335  40.8735704  54.5070076
  64.4531536  19.0571141  64.8563290  65.0657082  18.4988487  64.3774271
  64.8084545  19.9406469  64.7595596  43.3428431  16.5168464  35.4606915
  42.8516912  17.1955788  34.9977398  43.0696583  15.6985331  35.0460029
  49.1868652  25.1110575  62.8695772  49.0376772  26.0494051  62.7534884
  48.9000214  24.9319110  63.7650430  40.4242516  23.9653611  48.7759352
  41.3136101  23.6704540  48.5802269  40.4846287  24.9206328  48.7822771
  56.8854856   4.1729003  17.9085517  56.0028839   4.2036396  17.5393581
  56.7640543   3.8213769  18.7905490  67.2058579  36.7209779  22.3566321
  67.0354887  36.3677919  21.4834383  68.1045147  36.4550682  22.5514105
  30.8719730  29.2844129  43.6456299  30.3858781  29.1601157  42.8304625
  31.3275814  30.1179814  43.5280800  30.1493601  70.4506125  27.3599601
  29.8589138  71.3626777  27.3570681  29.3409876  69.9416273  27.2991538
  33.1971411  53.7561559  37.4870610  33.6515907  53.1253623  36.9286633
  32.5736145  53.2285713  37.9861593  19.3790865  34.5683885  44.5704508
  20.1270008  34.7087026  45.1511097  19.3949997  35.3170419  43.9742184
  74.7736654  68.8570278  12.8801215  75.0435576  68.4868949  13.7205923
  73.8541398  69.0913456  13.0058146  34.0904190  53.3599235   0.9142760
  33.1515887  53.5463716   0.9061030  34.1474100  52.4120046   0.7941464
  46.0235668  58.8091121  50.9728500  46.1120940  59.0463600  51.8959471
  46.9160045  58.8479194  50.6289288  62.5294825  35.0379183   3.5220650
  62.9093810  34.1896798   3.2931546  62.3954412  35.4750987   2.6811484
  32.3951292   8.4060001  23.3180618  32.5982356   7.5467354  23.6877155
  31.8774390   8.2140654  22.5361490  11.2394756   3.7846428  33.1342983
  10.7820457   4.1959220  33.8676739  11.1851639   4.4275782  32.4272513
  67.1113300  26.4230156  45.1746893  67.0371294  26.5512228  44.2290211
  66.3324356  26.8464231  45.5356359   9.4004327  53.1990004  44.2928743
   9.6271574  54.0884924  44.5642281   9.5233405  53.1995201  43.3436012
  56.5530634  23.0055380   9.1692019  57.2982550  22.4348569   9.3569356
  56.6319132  23.7186646   9.8028129  45.0556231  30.3673267  43.1788874
  45.6866550  30.5275059  43.8805819  44.9912167  29.4136643  43.1277800
  16.8318275  65.2442025  46.1813879  16.2878660  64.5468496  46.5474987
  16.4736322  65.3929310  45.3062820  26.7357373  21.7648292  58.0571938
  27.5475478  22.2054791  57.8061438  26.5510869  22.0873070  58.9393187
  38.8070059  23.5275006   1.2012125  39.4158578  23.4251189   1.9326836
  39.0053296  22.7933097   0.6199502  51.4420795  37.8159690  57.4509907
  52.1998978  37.2366118  57.5302839  51.2474918  37.8288984  56.5138674
  28.7725054   7.0403805   3.5355213  29.5174443   6.4594927   3.3810404
  28.0715929   6.6807881   2.9917887  12.8063226  21.3257217  43.1604338
  12.8023767  20.3852940  43.3387899  11.8892789  21.5883756  43.2396460
  46.1087894   4.4377854  21.0296917  46.2777090   4.7005141  21.9344950
  46.9784355   4.3040228  20.6527925  67.6986023  57.9348315   7.8323057
  68.5983463  57.9798331   8.1558255  67.7808567  58.0226387   6.8826941
  16.5088037  64.7372447  40.2877712  16.5984873  64.6607183  39.3378592
  17.3954634  64.9211287  40.5980158  41.8823481  19.4072127   3.3764404
  41.3124466  18.9756691   2.7398765  42.5561619  19.8318243   2.8454870
  43.0854321  21.9968152  57.6330948  43.4380579  22.8178787  57.2899580
  42.2093391  21.9347978  57.2525072  77.9714489  14.5395088  23.8276458
  78.7848520  14.1870761  23.4665370  78.1918955  14.7755599  24.7287083
  46.1019754  23.1434083  38.9940691  46.0357046  23.6796165  38.2039309
  47.0403242  23.1043530  39.1790175  15.2347044  73.6239017  51.4565563
  14.3528513  73.5233248  51.8149662  15.1080660  74.1099133  50.6417036
  13.2458094  66.9384711  61.8447113  12.5208882  67.5416886  61.6808558
  13.1147841  66.6459488  62.7466488  37.8890300  13.1141949  12.4408388
  38.4397268  13.7292957  11.9564676  37.2739601  13.6694670  12.9199994
  24.3211532  26.5723228  44.8498726  24.7646546  26.5322423  44.0025616
  23.5418534  27.1038508  44.6873999   5.9442353  21.1986327  43.9266157
   5.5077970  20.5417728  43.3841276   6.0775840  20.7635689  44.7687340
  78.9545965  37.4930143  19.4020247  78.5994148  37.5015259  20.2908468
  79.8928642  37.3451638  19.5204425  18.4778023  16.1776555  51.0369682
  19.2527747  16.7389619  51.0127926  18.7160873  15.4658067  51.6308737
  21.6800598  69.7729056  27.5159597  21.4675526  70.6106376  27.9273915
  20.8686260  69.5053290  27.0844412  36.5737128   9.0551448  44.2634201
  36.9728470   9.8920870  44.5010185  37.2555757   8.5949820  43.7739897
  51.4534473   8.6668557  61.1869335  51.0487461   7.9429585  61.6648674
  51.1303329   9.4538492  61.6256475  45.3582859  10.0761437  36.8967509
  45.2497625  10.6690502  36.1531687  45.0964308   9.2192435  36.5600252
  70.3542992  41.2977187   6.8130902  70.5248066  42.2152145   6.6001108
  69.8725887  41.3292338   7.6396492  58.7731361  20.7199335  27.9920244
  57.8879261  20.4219317  27.7826667  58.8274574  20.6579280  28.9456677
  43.1879520  19.5333827  25.1683450  43.9156246  19.8334467  24.6236587
  42.4248028  19.9989808  24.8262143  78.9307642  11.3604200  50.2771473
  79.5861816  12.0577574  50.2576685  78.5953283  11.3219047  49.3814754
  25.2685121  67.2397499  45.4912853  25.7843880  68.0321281  45.6404114
  24.9796108  66.9741892  46.3643503   6.8868774  22.5942874  37.2197437
   6.0593552  22.6569271  37.6967239   6.7138428  21.9624209  36.5218663
  65.5724049  26.6526675  20.4170656  65.6249237  27.1874428  21.2092090
  64.6526337  26.3929844  20.3639388  38.4853911  16.5620172  25.5571008
  37.6158476  16.9542050  25.6365514  38.9881873  17.1958601  25.0455642
  19.1630978  31.6088843  18.3217585  19.4923920  30.7101488  18.3301342
  19.9421257  32.1505857  18.4478664  35.2415375  70.2696114  49.8206902
  34.3008903  70.3318807  49.9866343  35.4852823  69.4029998  50.1459646
  48.7191868  14.1751349  32.8405309  48.9077520  13.2456422  32.7112365
  48.4886122  14.2461586  33.7668252  43.8811970  25.9422588  40.0629187
  43.5284996  25.0691104  39.8913074  44.3070459  25.8650088  40.9166861
  26.1602044  34.0436411  33.7468719  25.6809258  33.6526537  34.4773865
  27.0724630  34.0530133  34.0365720  61.9718218  36.0855103  62.9170895
  62.2344112  36.4616060  62.0769548  61.0234213  36.2108231  62.9496431
  24.0199447  31.3133407  32.9887700  23.4431720  31.9160342  32.5193834
  23.7182021  30.4426003  32.7299404  69.5299339   6.8895644  35.8941007
  69.2494488   7.5833368  36.4909577  70.0083065   7.3472530  35.2027869
   3.1718834  52.1699736  64.7003763   3.9889105  52.1822331  64.2018296
   3.3985336  51.7322740  65.5209126  38.2381725  10.9775913  45.0537682
  38.3901620  11.8218434  45.4784679  39.0216088  10.8317447  44.5234966
  48.9381218  26.2393332  36.3905001  48.1598854  26.6615534  36.7542481
  49.0443134  25.4433274  36.9113922  24.1139388  15.2207386  37.8226471
  23.1947231  15.4746258  37.7400994  24.5931387  15.8970606  37.3439097
  36.1611104  26.5068150  38.5707068  35.5788946  25.7769608  38.7818217
  35.8011842  26.8745899  37.7635956  40.6763180  42.3884444   4.8099306
  40.9619852  41.9510324   4.0078715  40.5245384  43.2961340   4.5466927
   7.8371167  45.7587433  44.9466228   7.3560148  46.4115000  44.4380188
   8.7320971  46.0961676  44.9838638  67.7524611  43.1317057   3.9315632
  67.3954912  43.8081505   3.3560398  68.6760374  43.0722852   3.6872223
  25.8322239   9.9450040  15.0975728  26.1032295   9.4767916  14.3079114
  26.3606954  10.7430935  15.0960588  34.4814873  10.4110181   6.8937290
  35.1101995  11.1044502   7.0939845  33.8288522  10.8334017   6.3352555
  60.2571869  21.4799142  39.3019724  60.1811457  21.7176199  40.2260637
  59.5872164  20.8088613  39.1713667  39.8628211  22.8082132  36.4094067
  39.4905877  23.6089683  36.7788172  39.1022253  22.2756743  36.1767507
  54.5744467  26.0843349  30.0855589  54.8363638  26.6558862  29.3637848
  54.6340179  25.1998734  29.7244334  33.9172974  57.5622894   3.6421898
  34.4877091  56.8191554   3.4456709  34.0111866  58.1426181   2.8867844
   2.6152134   9.9480981  49.2290306   3.0933577  10.3351104  49.9623966
   3.0666137  10.2737069  48.4502792  30.9355927   0.6446423  41.7239428
  31.8553638   0.4112907  41.5982533  30.8211064   0.6640759  42.6740742
  39.0459275  25.5460620  63.6358786  39.8485112  25.4953170  64.1550255
  39.3392515  25.4422593  62.7306604  28.7681532  34.7155905  41.5342855
  28.9145899  33.8453412  41.9050312  29.4122386  34.7873044  40.8298397
  32.4102831  24.6863055  22.9047847  32.6708722  23.7854362  22.7130532
  33.2344460  25.1719117  22.9390144  12.4908581  46.3112183   7.5310829
  12.7801457  46.2644561   8.4423235  13.2946100  46.2186189   7.0195750
  11.9593847  33.0901337  63.3875132  11.5626895  33.6258626  62.7005959
  12.7725101  32.7668214  62.9995346  24.6206045  27.8234982  47.3567486
  24.3366790  27.4455070  46.5244389  23.9435697  28.4650683  47.5717878
  69.2618990   7.8476280  23.7595248  68.9958048   7.3023880  24.4998884
  68.4423494   8.0646950  23.3151674  61.1464977  12.0847034  34.6288633
  62.0591211  12.3723531  34.6534657  60.6941938  12.7653420  34.1304803
  21.1366987  12.8213239  34.8854375  21.2938762  13.3263600  34.0876484
  21.1402345  11.9089592  34.5959353  55.3267717  10.9549904  31.5067554
  56.1689281  11.0865402  31.0712075  55.2605724  10.0066662  31.6187000
  64.4347427  72.6415687   8.2758999  64.9935398  72.9610248   7.5674331
  63.9198313  71.9401153   7.8770751  15.5121811  39.3278450  52.7919552
  14.7859962  39.1815181  53.3981535  15.8053549  40.2193922  52.9801699
  38.4481597  19.7916090  55.3793430  38.9187050  19.1230011  54.8815632
  38.7477994  19.6742260  56.2808228  45.0322536  68.5782247  35.6442070
  45.7440761  68.5041361  35.0085545  44.6646122  69.4487523  35.4917169
  40.7483721   0.5797791  42.9323864  40.9406662   0.6392884  41.9965935
  41.4820242   1.0249385  43.3564425  35.1099014  28.9873672  33.8555026
  34.3090034  29.2811608  33.4213591  35.5111074  29.7906923  34.1870666
  36.3858294  30.3742409  25.3739738  36.8443990  30.6460786  24.5789576
  36.6107798  31.0430241  26.0207772  62.2327331  50.8684491  38.9519262
  62.1646122  50.2697562  39.6956754  61.4044098  51.3481282  38.9539337
  26.6902566  18.8703930  50.2504587  27.5265145  19.1685021  50.6082773
  26.1877108  19.6737123  50.1149750  65.5072832  47.8482533  61.3162851
  65.1525736  48.6953926  61.0465193  65.9060431  48.0164671  62.1700573
  44.0444994   3.1669259  26.1668825  43.6438560   2.2992757  26.2207460
  44.1180992   3.3388942  25.2281380  34.8064780  36.1161923  44.8921633
  35.3520870  36.3685060  45.6370687  35.4048824  35.6598234  44.3006659
  31.0230851  19.6121633  14.6226323  30.9169364  20.3273368  13.9953446
  31.9197989  19.3059003  14.4871962  60.5084265  36.6727818  52.4596521
  59.9604644  37.4445127  52.3168203  60.4051841  36.4746681  53.3904168
  58.5857248   1.8073049  21.7642140  59.4272566   1.6295302  21.3441539
  58.2925558   0.9539904  22.0838046  37.6277184   8.8534427  33.4892201
  37.0672846   9.1620225  32.7772355  38.0069733   9.6510178  33.8583684
  57.9370356  16.5461683  31.7526054  58.7654734  16.8787205  31.4071655
  57.3446178  16.5516102  31.0007787  46.4978123   1.0695571  28.0048180
  46.3017702   0.1967092  27.6643276  47.3356485   1.3005179  27.6036692
  61.1820698   3.5678971  33.5046315  61.5365744   3.5356668  32.6160836
  61.1462498   4.5011181  33.7145066  71.4612818   9.6120912  20.3230596
  71.0674667   9.6182048  21.1954713  71.7812300  10.5055869  20.1984334
  66.4945221  10.7948637  51.6908026  65.7425213  11.3500392  51.4846230
  67.1730185  11.4068615  51.9759893  41.5206289  18.1847095  34.3384838
  41.2646151  19.1069317  34.3524218  40.8929157  17.7530980  34.9180698
  51.4162207  15.1010263  43.2861471  50.8532286  15.7026279  42.7989674
  50.8667517  14.3332183  43.4435749  70.7871819  24.8747468  14.9122107
  70.0418472  25.2930689  14.4812703  70.7028627  25.1244259  15.8324182
  55.2486753  13.1577861  48.2640028  56.1414814  13.4670770  48.4172010
  55.3562975  12.2567463  47.9594135  10.4881152  50.0110735   7.3166016
   9.7477242  49.4365873   7.5115851  11.2538656  49.4385018   7.3615244
  16.6643051  67.9092186   2.9783690  16.1821703  68.2357537   2.2186613
  16.0229973  67.9134749   3.6889625  16.4910269  32.0777249  19.0540409
  16.9873047  31.3136888  19.3476200  15.5766904  31.7963576  19.0864968
  35.6173468  13.5550749  55.8766174  35.3351927  12.7049363  56.2140846
  34.8025393  14.0150344  55.6747246  14.6939606  38.2867742  39.9504209
  14.5519966  37.4921727  39.4359446  15.6043858  38.2254434  40.2395439
  26.1183739  35.5119753  41.7453098  27.0192528  35.2724695  41.9627619
  25.9792280  35.1509285  40.8697987  26.3735175  18.1833863  53.3922243
  27.1999621  17.8575981  53.7487078  26.5419078  18.2898116  52.4559784
  51.4599228  30.5254722  57.1902514  50.6427813  31.0159421  57.2794151
  51.6564655  30.5557132  56.2539339  44.6406984  15.6099987  47.0775557
  44.2238855  16.0947776  46.3651752  45.4058790  16.1361504  47.3097181
  39.5745659  25.9990072  43.4369516  38.7721586  25.8506894  42.9365778
  39.6081305  25.2707100  44.0571833  58.9053011  11.8232810  43.2242680
  58.4688616  12.2202182  43.9780521  59.7938871  12.1783876  43.2476139
  66.6136503   1.6239633  21.5356565  67.2651148   1.1038514  22.0060921
  67.1206284   2.1147519  20.8888698  47.1087790  20.0725985  45.3260088
  46.4729595  19.7785354  45.9783077  47.3462725  20.9569883  45.6047297
  70.9156128  55.8936991  11.4464405  70.8543488  56.8014230  11.7439535
  71.3569637  55.4363336  12.1621588  69.4149824  52.2373881   8.3998755
  69.5309111  52.7963998   7.6315668  70.1442619  52.4673523   8.9756325
  47.4403191  15.7122028  40.4857445  47.0048714  15.3765225  39.7022057
  46.7336321  15.8303440  41.1204672  33.3034169  27.7107563  11.5051153
  33.0224358  28.3409157  12.1685770  34.2583357  27.7767172  11.5013245
  54.9326706  73.0496454  63.0829954  54.2246819  73.5681629  63.4652567
  55.7208776  73.5706377  63.2363939  15.7867943  21.1993208   6.4615563
  15.6513964  20.5124130   7.1142891  16.4380823  21.7794361   6.8559149
  75.5366278  30.3341866  62.3112631  76.0052252  30.3120518  63.1456232
  74.6250248  30.4981017  62.5528193  73.2051607  73.6330570  11.4500645
  73.8785072  73.4615816  12.1084240  72.5448652  72.9566969  11.6009978
  58.8877773  53.2898378  47.3020506  58.9245081  53.8372612  46.5176964
  57.9845238  53.3705711  47.6083899  75.7011744   9.6038319  42.6775312
  75.3602263  10.2398468  43.3063936  74.9584099   9.0295864  42.4910402
   8.8828125  64.0758003   4.1695574   8.2072296  64.3969502   3.5723332
   9.6627131  64.5827879   3.9438275  51.8702173  40.2549219  58.5578394
  51.9095898  39.3694758  58.1963539  50.9485722  40.3806877  58.7836266
  46.1271143  70.2123880  51.5053606  46.5570641  69.7591114  52.2305584
  45.9704638  69.5282412  50.8544827  63.8884211  47.3883247  44.4402361
  64.0601778  47.1903372  45.3608513  63.8294888  46.5313625  44.0178967
   4.4150868   8.1952740  36.8491626   5.3375855   8.0208851  37.0357513
   4.1773501   8.8986851  37.4532509   1.8570179  53.1587410  35.9726620
   1.9467396  52.2701788  36.3170958   1.4019245  53.6389446  36.6644168
   0.0015062  66.9632530  33.5724282  -0.0159937  67.9163074  33.6596799
   0.8644146  66.7086315  33.8992023  71.8203926  50.2431297  26.0289931
  72.3223400  50.2507782  25.2139926  71.5493393  49.3312263  26.1347938
  43.1253862  53.1332302   4.8191696  42.9826117  52.7608585   3.9490062
  42.4000788  52.7969503   5.3455532  61.9735241  64.7688103  32.0230532
  62.5854206  65.0779676  31.3550448  61.3621235  65.4955387  32.1425414
  11.2104458  15.2007246  36.8470883  10.2806324  15.0029695  36.7349601
  11.2263435  16.1007130  37.1726656  22.6452723  71.5370859   5.8449963
  22.6888027  72.4905457   5.9174612  22.5543919  71.2321748   6.7477730
  50.3635836  48.9397478  48.7343550  49.6915150  48.3466244  49.0701532
  50.8721256  49.1872549  49.5065975  76.6139984  14.2737365  59.6592855
  76.9976807  14.8008084  58.9584160  76.8561792  13.3735335  59.4419956
  69.6274567  54.3474913  26.5775251  69.2911291  54.4113922  27.4714112
  70.4517698  54.8336840  26.5964413  47.7580200   0.6774178   0.7426718
  47.0477997   1.2112847   1.0987690  47.9872404   0.0787678   1.4535216
  44.2751265  71.8742514  38.7347770  43.4733343  72.0769596  38.2528305
  44.0136528  71.8975401  39.6552753  54.6603298  36.7543507  49.3614817
  53.9250231  36.1416411  49.3497324  55.4354620  36.1969733  49.4302750
   9.5407433  45.0373936  40.1072741   8.8202805  44.4762564  40.3941393
  10.1967281  44.9577427  40.7997894  43.1618643  65.3377819  39.2764139
  42.6515627  64.7666168  39.8505187  43.6302757  64.7375584  38.6962795
  10.2619543  61.7326535   9.7174767  10.5297938  62.6101436   9.4445160
  10.5576172  61.6635122  10.6252364  50.5689287  41.5753984   4.1518304
  51.0500526  42.2819710   4.5825374  50.8306170  40.7849360   4.6239758
  61.4280068  22.2777930   2.3460034  61.3164078  23.1632700   2.0000151
  60.5685269  22.0487252   2.6996210  54.2316294  54.7851467  54.5128202
  55.1013088  54.6766758  54.1279411  54.3505001  55.4519749  55.1891613
  78.7834311  50.5301237  30.1549101  77.8503704  50.3828669  30.3096724
  79.1388893  49.6575117  29.9863052  60.2223873  53.4984875  37.9256296
  59.8473883  53.9749622  38.6662912  61.1297512  53.8001013  37.8814673
  69.1010427  57.4750805  51.2919569  68.6451149  58.2774353  51.5460968
  68.4104729  56.8146038  51.2361765  39.3282008  68.9861393  64.1052485
  39.6367383  68.7586927  63.2281494  40.1207447  69.2347479  64.5809603
  39.2659460  22.0646372  21.6229800  39.1795288  23.0162087  21.6802386
  40.1446949  21.9247380  21.2701872  79.6754885  38.6535263  60.4262018
  79.7720146  39.1612101  59.6204901  78.8104677  38.2502627  60.3530169
  53.9103413  66.1001015  39.5301628  54.0772724  65.4920149  38.8100290
  53.0193615  65.8960247  39.8143148  14.4737183  19.2887345   7.8062609
  14.8926197  18.8145533   8.5245303  13.7972628  18.6913624   7.4872235
   1.3010830  30.1360488  61.8517780   0.5769485  30.7582378  61.9206333
   1.9817204  30.6123543  61.3762760  28.3021965  53.6912717   2.6415709
  28.6800137  52.8164663   2.7321556  27.3822060  53.5340180   2.4291542
  67.4105358  41.2477684  55.3363609  67.9343939  41.3624144  56.1292410
  68.0061388  41.4717627  54.6213007  11.9397726  62.8389587   3.0880478
  11.3019743  62.9403581   2.3815325  12.2438564  63.7290014   3.2657746
  62.8319680  15.2462712  16.0657957  62.5121628  14.7206774  15.3325060
  63.7550961  15.4006329  15.8652094   4.1437859  19.0480947  26.1657596
   4.7958702  19.4313681  25.5791473   3.3104939  19.4143283  25.8695650
  61.8049479  47.3943090  48.9832783  61.4315701  48.2755852  48.9966297
  61.0819578  46.8320608  48.7050772  77.1564381  25.3413143   0.9533385
  77.0069544  26.2486830   1.2189749  78.0446665  25.1473227   1.2527588
  75.3130627  62.3286200  60.5642748  75.4807758  61.5463972  61.0898542
  75.9781694  62.9554605  60.8487654   6.6883892  68.7660122  59.3009090
   7.4088329  68.4568405  59.8500919   7.0780415  69.4514704  58.7581825
  60.0520420  59.2842627  27.2912478  59.5273781  58.5775661  27.6674604
  60.9553432  59.0534830  27.5080895  71.5221596  41.6493034  41.5737629
  72.2417688  41.0563898  41.3573313  70.7468176  41.0882807  41.5920305
   1.6577377  26.2820412  22.2635984   0.9159746  25.7191921  22.0417452
   2.4273434  25.7304932  22.1230960  59.4523335  25.6051469  59.9586058
  59.4254637  26.2509441  60.6646204  60.1865435  25.0339699  60.1842833
  50.5838680  71.0468245  33.8135147  49.7932863  71.5750933  33.7033367
  50.5428791  70.4038477  33.1056070  13.1079430  69.7048712  33.0771589
  12.6451534  68.8871717  32.8943348  12.4288792  70.3783464  33.0378747
  22.0371246  65.6412315  36.8660212  21.8653774  65.4335451  35.9475446
  22.6741028  66.3550520  36.8351102   4.4125108  14.3789182  54.2117354
   4.7536782  13.4901033  54.3109855   5.0097422  14.9233805  54.7246739
  66.1635208  44.8386526  27.0627451  65.7628393  44.4940615  27.8608322
  65.4268932  45.1681614  26.5479279   6.8244976  40.9837389  32.3885846
   6.6069359  41.8494558  32.7341700   6.6148323  41.0384083  31.4562321
  53.0503321  72.8980350  22.2179627  52.1963406  72.7840614  21.8008947
  53.6526299  72.3919249  21.6726947  62.3989868  48.9470816  32.3624182
  62.7937889  49.1793013  33.2029152  62.6786661  48.0448437  32.2075534
  56.7459523   3.5814991   3.0935982  56.8636643   3.6145010   2.1442345
  56.8262707   2.6532021   3.3127764  54.6337032  71.9650936  20.3120017
  54.5848799  72.7431202  19.7565484  54.7201967  71.2367582  19.6969616
  70.1950121  60.7026720  46.7650032  70.9296036  60.1995134  46.4136553
  69.6118832  60.0437832  47.1419096  65.6754589  62.1114206  14.5267344
  64.9361229  61.5662622  14.2576349  66.4461088  61.5680599  14.3621504
  65.2927542   9.1877675  25.5158901  65.1310635   9.6333331  26.3474894
  64.7911930   8.3748817  25.5782223  71.7109680  35.8858490  35.7273698
  72.4481964  36.4961696  35.7120275  71.7428970  35.4502320  34.8756361
  16.4697924  41.3654781  41.0222721  15.9573164  41.1512829  41.8018341
  17.1946182  41.8973804  41.3508177   1.7037907   2.5405718  38.7003469
   1.9727888   3.3247305  38.2218432   2.1297255   1.8193651  38.2370162
  79.0722080  59.1815771   4.3085316  78.6721130  59.9457683   4.7234610
  79.0579029  58.5059847   4.9864701  58.5137892  57.9840326  30.1603198
  57.8132963  57.9157591  30.8090734  59.2046785  58.4754467  30.6046367
  44.5291458  40.0628510  10.1526383  44.8119961  39.1501703  10.0957611
  43.9724480  40.1894036   9.3843249   4.6646824   8.5678650  42.0087814
   4.3968477   9.4777084  42.1379614   5.6008711   8.6188580  41.8159676
  10.6217999  27.1772718  39.5444441   9.8250431  27.6972246  39.4392753
  11.3324398  27.7823496  39.3320751  64.4203663  38.5851312  26.0605454
  64.6860981  38.2822728  25.1922750  64.8743439  39.4204021  26.1721802
  63.0467844  24.7113943  26.5582609  62.9655600  25.6556273  26.4238715
  62.6012611  24.3231010  25.8052874  65.4960632  62.8577805  53.3997107
  66.4501047  62.9353619  53.4029245  65.3167963  62.1319389  52.8020000
  13.2772552  32.8927651   2.6819685  13.5538517  33.6346569   2.1440771
  14.0906655  32.4361649   2.8966931   1.2262335  54.9408938   6.2426737
   0.7507076  54.6317805   5.4715994   0.8597126  54.4358458   6.9684962
   5.3068489  65.4396677  16.2041402   5.5702347  65.0894022  15.3531599
   4.7273582  64.7710705  16.5693843  29.9891602  15.9734574   1.4056185
  30.5597054  16.6308203   1.0073880  29.8820435  15.3067055   0.7272318
  70.1721191  52.8622246  35.5071545  69.2857504  52.6527643  35.2126908
  70.3976250  53.6644936  35.0362587  16.2170496   8.5688282  40.0161695
  16.6044941   8.6323715  39.1431952  16.8239870   8.0156113  40.5078983
   6.3840145  34.9888325  52.1952486   6.0178799  35.6915379  52.7322578
   5.7321590  34.2892838  52.2392797  17.2832150  64.5448542  37.5606847
  16.9139713  65.2000189  36.9685292  18.1881088  64.8264694  37.6951766
   4.5939146  48.9433899  20.6006125   3.7927924  48.4220925  20.5488280
   4.3700730  49.7697106  20.1724509  74.4900799  47.6587963  41.0442209
  74.5742750  47.4543810  40.1129007  74.9196720  46.9284630  41.4895248
  61.3208723  40.6182098  52.7347136  62.1055365  40.3939199  52.2344828
  60.6042624  40.5370331  52.1053362  32.6332222  19.5650616  -0.0884411
  33.0732333  19.7744456   0.7354382  32.4503027  18.6272755  -0.0306865
  61.2587833  58.9719677  34.7262073  60.3303814  58.7473249  34.7881579
  61.6523075  58.2366180  34.2564940  75.2969881  16.1285378  43.6423635
  76.1037584  16.0855557  43.1290388  75.2297493  17.0461250  43.9064598
  15.6425181  17.0659805  28.5166478  15.7933083  17.2142578  29.4501948
  16.4128914  17.4382568  28.0875063  11.0447449  55.9876394  60.4641199
  11.8252129  55.7415915  59.9675655  10.3364605  55.9717560  59.8204422
  15.2526421  56.1215115  37.6655960  15.2207417  55.3829718  38.2736897
  15.7823032  56.7796373  38.1156707  21.2922692  69.7524452  30.3904009
  20.8233738  70.1271296  29.6447611  22.2095227  69.9768591  30.2338219
  39.2970562  71.4697266  62.1352911  40.2213430  71.3195753  61.9368458
  39.1974807  71.1835909  63.0432796  63.0346441  41.0583258   0.5444383
  62.7645159  40.4125929   1.1973464  63.8918304  40.7537031   0.2466658
  65.1206493  63.8268232  24.5510125  64.9430799  64.3286657  23.7554908
  64.3579912  63.2569075  24.6499133   7.4575435   6.7438688  12.9192713
   7.8971921   6.6173115  12.0784834   6.8653237   7.4811688  12.7712897
  61.4831877  49.4332838  52.0980835  61.9086123  49.7675037  51.3084364
  62.0976162  48.7869406  52.4458694   4.5333873  32.3094883  24.5792750
   5.3610622  31.8699637  24.3843344   4.6535908  33.2016936  24.2540720
  79.0875912  71.4748764  36.5899634  78.7049389  70.7376242  36.1142874
  79.4511461  72.0380259  35.9066486  69.1901970  56.9627476  14.8401487
  69.9401760  56.4021349  15.0388432  69.5603514  57.8428793  14.7724259
  18.9520302   9.6242977  57.5950909  18.7584486  10.5589272  57.5228882
  19.8759928   9.5518852  57.3557472  27.7280274  56.8120445  -0.0651571
  27.2678604  55.9761955  -0.1415703  27.5277653  57.1156372   0.8202580
   2.5423092  63.9118910  60.8704090   2.5175232  64.8671055  60.8139992
   2.2093243  63.6132669  60.0241375  16.0373869  11.6339088  29.6473622
  16.7184868  12.1702553  30.0531602  15.9317293  12.0037914  28.7708616
  26.1069778  33.3975874  58.3286306  26.9643358  33.6926924  58.6353573
  26.2832884  32.5661932  57.8882584  61.6303479  24.9418440   0.5849484
  61.8511521  25.8531227   0.7774189  62.1417462  24.7313633  -0.1963302
  27.5140137  28.6430049  14.8080039  27.0100826  29.2352891  14.2498946
  28.1877178  28.2846141  14.2301500  18.2480759  69.5983982   9.9897534
  17.7899879  68.8762045  10.4196560  17.9207558  70.3841209  10.4276264
  23.0700439  62.7047110  15.6059480  23.2789272  61.7770624  15.7157981
  22.1217102  62.7230740  15.4772758   2.7726450  13.5188652  39.4682884
   2.2856035  13.8270451  40.2325201   2.1196547  13.4751583  38.7697721
  63.1010008  28.8392448  47.2606230  63.8039255  29.0497804  46.6459656
  62.7839804  29.6904373  47.5626183  67.7076340  57.8775167  44.0886164
  66.9294119  57.5114250  43.6684084  68.4299898  57.3388672  43.7656784
  29.2901268   7.2229458  27.0315433  29.2299500   6.8402649  27.9068518
  29.7444954   8.0548645  27.1645737  59.9280456   8.2311712  60.6112101
  59.5881561   8.6551367  61.3992217  59.7064594   7.3066030  60.7221311
  38.2742825  13.7467171  33.4645653  38.2217446  14.5091606  34.0408897
  38.3509197  14.1162373  32.5848985  21.7095080   5.9346748  27.5694275
  22.0209112   6.7733170  27.9099441  20.9869757   6.1665035  26.9859576
  58.8136911  52.8650570  19.7029126  58.5940075  52.1975279  20.3528166
  58.1431484  52.7705336  19.0263999  65.7619858  46.4631987  58.1705999
  65.7575703  46.8217468  59.0580988  66.2234497  45.6285191  58.2517862
  72.3894215  58.0623579  22.5390649  71.7264128  58.4325027  23.1218529
  72.5720978  57.1963215  22.9035401  28.1439819  11.9456268  27.9577208
  29.0217724  12.3170448  27.8695917  27.8358593  11.8429161  27.0573092
  72.4709991  17.3440777  60.2171758  71.9349197  17.7415071  60.9033990
  72.6566414  18.0622326  59.6121797  43.8476276  68.5912085  49.4032860
  43.1847572  69.1471195  48.9936543  44.6784925  68.9093256  49.0501547
  74.8664427  55.3121662  20.1297450  75.2660513  55.3205204  19.2599893
  73.9246225  55.2891636  19.9603999  60.9520245  60.9098816  50.0184250
  60.8369684  61.8331099  50.2434778  60.5808592  60.4341650  50.7615042
  54.7036492  31.4440909  15.0411204  54.8216568  32.2401371  14.5228365
  53.8876854  31.5889158  15.5201319  69.6781349  53.4135008  23.8436437
  69.9461842  53.7575483  24.6957064  68.7325907  53.2874250  23.9229417
  62.5744915  43.1942415  46.7103100  62.5398970  44.0758705  47.0814753
  63.4799480  42.9137278  46.8433189  48.9425965  12.0947815  27.2197795
  49.3133422  12.5938202  27.9476094  48.1136056  12.5326897  27.0268011
   1.4814841  25.6765595  11.8187741   2.3683797  25.7493725  12.1713951
   1.4683663  26.2811127  11.0767678  22.2589439  58.9769363  28.1806707
  22.0638985  59.5688248  27.4541354  23.2039017  58.8343191  28.1263518
   2.3823399  34.0700221  20.2196598   1.8685669  33.2935357  20.4417729
   2.5587124  34.4894719  21.0617924  21.0343781   1.6232611  23.3783698
  21.5395060   1.5439440  24.1875577  21.6931667   1.7566658  22.6968789
  42.0253611  74.0974903  57.7720308  42.6006365  73.5718918  57.2161198
  41.1407423  73.8528395  57.5003147  57.1413937   0.5181051  25.1789856
  56.8108025  -0.2373241  24.6929073  56.8213215   1.2762381  24.6900916
  41.8769550  58.9061832  64.0820265  42.2789097  59.7709608  63.9994240
  41.6217899  58.8476181  65.0027275  13.3979645   0.2048756  29.3975544
  13.4099808   0.6652761  28.5584378  12.9617348   0.8105255  29.9968266
   6.2096733  67.3946619  38.3149338   6.6008705  66.5685797  38.0307102
   6.6033882  67.5641775  39.1707850  61.5607834  70.5825758  39.3669152
  60.7361412  70.9746981  39.6540356  62.1349525  70.6465816  40.1301098
  24.7362713  21.7608867  61.0087928  25.6779102  21.9099699  60.9231916
  24.3683962  22.6319824  61.1574423  20.7584801   1.5680529  50.2917337
  20.0595942   2.2185637  50.3597260  20.6373873   1.0055710  51.0567045
  -0.0272804  46.0639572  34.4414616   0.0598759  46.8568420  34.9705744
   0.4963249  46.2390518  33.6595321  64.1389942  60.7312584  62.0554018
  64.8416424  61.2451601  62.4534225  64.5283413  60.3693199  61.2593842
  40.3555145  16.6752602  63.7444735  40.2181568  16.2462498  64.5890522
  41.3067188  16.7004753  63.6405373  23.6537212  51.7894363  38.3535409
  22.8090328  51.7565107  38.8026023  23.6218399  51.0640144  37.7298617
  54.7862577  48.6602497  35.0783229  55.4109621  48.9288568  35.7519889
  54.7181129  47.7108812  35.1797318  58.4363365  64.9758577  47.3030758
  57.5328684  65.2867746  47.3605824  58.3980227  64.2402077  46.6918612
   5.7302803  48.7375164  14.9075353   5.2534050  47.9189682  15.0446606
   5.0638908  49.4196653  14.9901366  69.5348978  26.0729122  56.3393164
  69.1791439  25.7354259  57.1613693  69.7991800  26.9700480  56.5431118
   4.7328609  59.4305897  28.2962632   4.0629620  58.9433527  27.8166032
   5.5560345  59.0044737  28.0574322  25.6888461  64.0528297  18.9061451
  26.0712838  63.5002995  19.5878243  26.4425302  64.4394064  18.4603322
  58.3047056  62.2840881  28.5188150  58.3813667  62.3403502  27.5663495
  59.1588640  62.5673723  28.8449979  29.6425667  12.2558476  33.2739019
  29.2050972  12.1222187  32.4330711  30.4785957  12.6629807  33.0468917
   9.6015495  71.8259573  14.0263951   9.8412365  72.7416706  14.1686726
   8.7641758  71.7244720  14.4788802  78.3385944  47.3313665  54.9003172
  77.6876259  47.5543165  54.2349100  77.8245449  47.0007420  55.6369781
  20.7446276  33.1495419   2.6226977  19.9129044  33.1868258   3.0950096
  21.2332522  33.9099589   2.9377249  74.8535395  42.3707438  43.7190533
  74.3702126  43.1539249  43.4558868  75.6556559  42.7072668  44.1185474
  57.0823326   1.9741131  44.8300743  56.3812866   1.4303185  45.1893044
  57.6345387   2.1817661  45.5838585  24.3181175  31.6724348  36.2547755
  25.1066727  32.1478963  35.9933519  23.6342854  32.0045948  35.6731558
  75.6511923  17.4637009  48.9933872  76.3452717  17.4972607  48.3350897
  74.8695179  17.2066189  48.5043859  16.3903278  34.5362210  52.1818924
  16.8225235  35.0517225  52.8628492  15.9528393  33.8300610  52.6574707
   7.3358006  47.7395201  27.7712011   7.3657841  47.0165873  27.1445441
   6.5217442  47.6028061  28.2558155   7.8877396  19.0745926   3.1478390
   8.4617275  18.5049951   3.6600184   8.4600109  19.4541728   2.4810176
  58.0053854  72.4576712  34.3563533  58.2415056  73.1115437  35.0143266
  57.5570536  72.9563046  33.6732793  49.3417362  49.6625744  61.0173660
  50.0738148  50.1380668  61.4100468  49.7553305  48.9791618  60.4899987
  16.9256487  57.3675396  10.1155833  17.5004091  57.8467240   9.5187071
  16.2466946  56.9992651   9.5502261  46.9090530   2.8934885  44.9501801
  46.2100693   3.5385633  44.8428011  47.6134988   3.3738209  45.3852320
  68.6682749  49.9667931  18.3024049  69.2395449  50.7318068  18.2343435
  68.6641836  49.5918131  17.4217200  10.6501717  48.9566278  32.4206924
  11.0462708  49.6849442  32.8991222  11.3906902  48.5052061  32.0156217
  65.1454115  69.6416283  48.5316277  65.5277586  68.8460827  48.1612968
  65.8836985  70.0954008  48.9381456  29.5388304   2.0744553  15.0243929
  30.2127110   1.6757312  15.5749682  29.3084990   1.3910547  14.3949869
   6.9931358  60.7075787  35.1982737   6.8592400  61.4524126  34.6121621
   7.5192875  60.0923920  34.6874499   0.1022142  72.9765129  47.7241087
   0.5646366  72.1986771  47.4120665  -0.3044849  72.7000332  48.5453176
   6.0822859   2.7808167  64.5819616   5.2406874   3.1941963  64.3894482
   6.6375246   3.4985138  64.8866653  55.1939583  50.4404354  47.6927757
  54.5756292  49.7296476  47.8621340  56.0268879  49.9988890  47.5269556
  46.1366068  46.4435234   1.5025261  46.2397419  45.8813229   2.2703293
  45.3862368  46.9996872   1.7119625  54.6512747  26.3140702  51.0095358
  54.1342163  26.2866545  51.8146038  54.0028858  26.2693858  50.3068066
  61.0044336  40.6758404  16.9411361  60.3218889  41.2987471  16.6914403
  61.4980841  41.1240101  17.6279283   8.9567131  29.8882461  42.2780704
   8.9852280  29.9732637  41.3250828   8.4230656  30.6278467  42.5686598
  11.3169331  40.5146694  65.0195456  10.9892410  41.2046194  64.4426346
  11.0058731  39.7017002  64.6213531  73.1650209  70.3877783  40.9041595
  72.8333139  70.5939579  40.0302649  72.4677896  70.6677675  41.4972115
  71.1601019  14.6092725  40.2878714  70.8334970  13.7141144  40.3787136
  70.5992699  15.1284897  40.8641672  10.0448174  31.5237617  49.8964119
   9.3682713  32.0770073  50.2868414  10.8429951  32.0496702  49.9470854
   6.5625423  49.0892029  60.7150412   7.0545715  49.9090624  60.7595110
   6.0750240  49.1467190  59.8933029  35.8391653  12.9902497   6.9951466
  36.6749178  12.8315582   7.4339751  35.6139361  13.8911047   7.2274283
   8.1829443   0.1464582  63.2943249   8.1512680   0.6458498  62.4783373
   7.5548973   0.5851866  63.8681746  45.0218773  55.1389027  40.6927395
  45.3742361  54.6006203  39.9839902  45.7554150  55.6925154  40.9604359
  69.0298367  30.7888174  34.5129561  69.8643637  30.8751273  34.9737668
  68.5278225  30.1679230  35.0408816  78.8200951  48.1317377  44.9443722
  79.5733547  48.0802107  45.5327415  79.2031336  48.2384443  44.0736723
  67.8008604  50.9287739  34.9014544  67.3138762  51.3002634  34.1658759
  68.1924200  50.1291275  34.5500541  64.7293953   7.7029787  64.6495238
  65.5180076   8.1194197  64.3018229  64.6144966   6.9201980  64.1107385
  41.3283144  12.0920315   0.0668219  41.2902294  12.4801293   0.9409884
  41.2144934  12.8324070  -0.5290958   8.4516758  11.2098908  10.7928181
   7.7044338  10.9978199  11.3521779   8.5268826  12.1627223  10.8446765
   3.2857313   4.4772030  35.2124858   2.7343359   3.7671543  34.8838162
   3.0082026   5.2461124  34.7145033  11.2181606   7.0717312  35.5537415
  10.9396448   7.6643635  34.8555636  10.6584349   6.3019348  35.4519820
  12.4237814  70.6734790   0.7120112  11.8685236  70.1047458   1.2453631
  12.3151293  70.3455199  -0.1806661  12.3685593  60.1596451  35.8947420
  11.7802376  59.4974661  36.2575436  12.4794334  60.7949162  36.6021109
  14.9095482  64.5162916  25.0954843  15.1165432  63.9149714  24.3800855
  14.8814625  63.9609480  25.8746099  75.5899715  41.8779087  27.7821040
  75.4134750  42.3688507  26.9795752  74.8170567  41.3256884  27.8999424
  14.2144817  52.6167870  45.0539780  14.7544807  51.9858265  45.5299187
  13.3236546  52.4500799  45.3619957   5.2514977  41.8907499  64.5870495
   6.0435242  41.3746023  64.4369888   4.6934456  41.3238192  65.1194000
  69.7570610  69.4467878  42.2703171  70.1966810  70.2960253  42.2283173
  69.0611839  69.5689964  42.9161167  28.9349880  22.7548481  21.6482067
  27.9803887  22.6845623  21.6431403  29.2407074  21.8824554  21.3997960
  44.9110260   2.5356318  38.3730865  45.4044476   3.1032730  38.9651561
  45.4654446   1.7629219  38.2646394  76.5714836  62.1507692  14.5419371
  76.4045620  61.2294817  14.3429494  75.9348679  62.6295948  14.0112054
  70.3218937  68.2627630  53.6009693  70.9694958  68.4495735  54.2806339
  70.3837156  67.3173475  53.4646034   5.8890572  72.7428712  43.3673075
   5.0525274  72.3901881  43.0638865   6.4747229  72.6502718  42.6158789
  48.8888407  67.1885872  24.6229577  49.6350670  66.6553879  24.3489528
  49.1951180  67.6442766  25.4070306  46.6482496  30.1804066  58.2883453
  46.6511345  31.1229372  58.4552622  46.0523605  30.0702095  57.5473928
  71.1060234  16.5915466  20.7488537  70.3945728  16.1204506  21.1826062
  71.7272898  16.7860580  21.4505792  42.4357262  20.0997616  54.2662764
  41.6230145  19.9291492  54.7423172  42.3626461  21.0123802  53.9869881
  56.3363791  74.3861628  32.7663565  56.3629103  75.0446177  32.0721197
  56.2513733  74.8929024  33.5739613  73.3450031  50.3506708  12.0085323
  72.6239920  49.9858379  12.5216317  74.1302729  49.9469423  12.3781085
   8.1196064  57.1252346  55.7103491   8.3316750  58.0569124  55.6535149
   7.7989334  56.8988943  54.8373270  76.0977840  45.6932545  42.4351120
  76.6166878  45.2531385  41.7618608  75.3454399  45.1175499  42.5721216
  75.0503683  54.5340395  58.4500456  74.7131157  55.4293585  58.4798765
  75.6938553  54.4967842  59.1576910  59.7368336  23.8091993   5.6236207
  60.5937338  24.1766262   5.4069400  59.9177933  22.8970838   5.8506298
  46.5884304  51.0627794  31.6418552  46.2608147  50.5152225  30.9283566
  46.6976976  50.4588938  32.3764420   1.3185638  50.2200174  15.7169116
   1.5685791  50.0607729  16.6270578   0.9404415  51.0993433  15.7227385
  76.8154192  49.1053057  47.6302290  76.0012913  49.5817089  47.4675226
  77.0479488  48.7311983  46.7804050   2.3748821  69.0809536  18.2339978
   1.5278000  68.6356878  18.2543480   2.8556675  68.6489248  17.5279987
   9.1079468  63.7922001  27.1594214   9.7102016  63.1462479  26.7902756
   8.4523052  63.9268780  26.4751434  68.7308502  40.3419685  33.3468437
  68.1777382  40.7562637  34.0091610  69.2482853  39.7006989  33.8339424
   2.5467100  59.0962471   6.3782862   2.9382172  58.7844242   7.1942023
   2.8672924  58.4890165   5.7114056  10.6580586  44.5165730   8.2677311
  11.3828892  45.1256323   8.1266785  10.7531017  44.2379761   9.1785449
  75.0269842  35.2757978  37.5084615  75.4693937  34.7700262  38.1901503
  74.0944719  35.1509714  37.6847243  73.2676077  55.9401608  14.5099723
  73.1897831  54.9908876  14.4148099  72.6145363  56.1689138  15.1713347
  47.1456242  54.7747993  17.0396233  48.0499458  54.8852015  16.7459357
  46.6800451  54.4555330  16.2666214  13.6827360  32.4791422  25.8124998
  14.6088253  32.6091805  26.0166720  13.6416327  32.5095978  24.8566702
  77.7289248  61.6612482  46.0070515  76.9476604  61.7030239  46.5585136
  77.4769068  61.0956192  45.2771282  47.0378160  63.3342695  29.5183563
  46.4278412  64.0714407  29.5456290  46.5132952  62.5793791  29.7852850
  50.6119776  53.9271879  35.8367300  51.0848618  54.7555208  35.7562351
  51.2326908  53.2662487  35.5299640  63.0384588  56.2847662  44.5801020
  62.8773880  55.3775311  44.8393583  62.2019291  56.7271471  44.7241354
  14.6195835  56.0131836  17.7835417  15.4756874  56.4404726  17.7562475
  14.7948879  55.1087904  17.5235832  37.1188870  70.1928510  17.2906569
  37.3354569  71.0823621  17.5701121  36.9179955  70.2768649  16.3585451
  66.9821930  28.5149288  59.6424055  66.8864822  28.6548209  58.7003326
  66.9848776  27.5631547  59.7441578  67.3743916  70.8988667  40.0878239
  67.5859070  69.9747610  40.2202082  67.3075628  70.9955740  39.1378713
   0.0146383  58.7500238  23.3864594   0.9240097  58.4523392  23.3606315
  -0.4996687  57.9444695  23.4393930   8.3693832  24.3066216  39.5095062
   7.9593987  23.4735537  39.2768288   8.7290234  24.1604543  40.3844500
  26.5236222  27.5000658  27.1481207  27.3148857  27.5596466  26.6127852
  26.8412386  27.5395527  28.0502203  60.0872564  53.6325455  42.6519394
  59.7718000  53.9276409  43.5061312  60.0701046  52.6771021  42.7072859
  24.5933285   7.4587608  50.8615637  25.3339281   7.9944969  51.1456823
  24.9671021   6.8540836  50.2205515  63.6218500  46.9160891  23.5840321
  63.2202911  46.3960648  24.2801332  63.0976248  46.7217398  22.8070855
  60.3363848  31.2477326  44.8964643  59.8584318  31.7177176  44.2131567
  60.4168892  30.3547025  44.5614338  57.4499512  60.9464884  31.9222403
  56.7581701  60.9058809  31.2619209  57.1450663  60.3715801  32.6242065
  12.5895924  73.3359766  40.6168175  11.9595951  72.7161694  40.2491522
  12.2070641  73.5979271  41.4542437  72.1882435  11.6786743   4.2080623
  71.9788500  10.8447338   4.6287024  72.9523750  12.0023418   4.6851024
  76.6742945  40.3155136  23.2471657  77.0625019  41.0931635  23.6481452
  76.4730883  40.5834770  22.3505354  65.1366472  44.8981142  48.7495804
  64.8287296  45.7182646  49.1352844  65.1915884  44.2918205  49.4882441
  46.0199394   5.4401279  44.0092039  45.9207096   5.8572174  44.8650169
  45.9940186   6.1652638  43.3849096  21.8974342   5.4703403  64.3888712
  21.6972008   6.4058567  64.3580580  21.7347517   5.1611115  63.4977293
  54.5908203  31.5728451  11.9534445  54.7777977  32.3717857  12.4463642
  53.9301148  31.8358303  11.3127100  58.3854437  38.9899111  10.0153947
  59.3273115  38.9576435  10.1829445  58.2232618  38.2597041   9.4181287
  11.1877231  26.5531908  60.4303929  11.1891774  26.6128097  61.3857335
  10.5422953  25.8742271  60.2337679  25.0270643   2.5249649  33.1661987
  24.8520079   1.7894484  33.7532282  25.9199228   2.7952791  33.3805990
  63.7622690  74.1865969  63.1155968  62.8758144  74.5472193  63.1351709
  63.8322020  73.7693644  62.2569609  68.6646271  64.3007135  58.7733841
  69.6114969  64.3597746  58.6461782  68.3203697  64.0761900  57.9089117
  31.1775290  40.4655447   3.6509112  31.4296709  41.3815012   3.7678746
  30.3690039  40.5030670   3.1399229  71.2880087  64.6590662  58.7435198
  72.0366621  64.7121906  58.1494427  71.4023066  65.3992033  59.3396473
  54.7680759  45.0960684  54.8425961  54.7427273  44.2333603  54.4286871
  53.9511251  45.1477814  55.3387356   3.3141178  66.0845613  21.5010667
   4.2240280  66.3408756  21.3507438   3.2127995  65.2654743  21.0162377
  75.8734322  66.6938448  58.6603022  75.7021523  66.6429758  57.7199221
  76.8241119  66.7839670  58.7260628  26.3887158  22.3294903  22.1341848
  26.2261429  21.4144875  21.9048715  25.5495825  22.7659584  21.9872737
  19.9007692   5.8001877  35.0556350  19.8809328   4.8582531  34.8865056
  19.0081062   6.0947968  34.8750949  57.2440815  74.9962425  59.7393227
  57.9461813  74.3738317  59.9287891  56.9610834  74.7752428  58.8520193
  71.8367100  52.6711988  37.6794481  71.0955000  52.7344227  38.2818103
  71.4357996  52.5717115  36.8159628  24.8405733   0.5353619  34.7373962
  25.3020277   0.6072546  35.5729365  24.0250435   0.0826670  34.9523640
   5.9395451  38.2553172  17.2090232   5.4318661  37.5642848  17.6344228
   6.8455071  37.9497838  17.2549689   2.9157776  54.1605139  28.1899214
   2.2603268  53.6440086  28.6587906   2.7951283  53.9229250  27.2705603
  29.6203556  15.8587242  40.5613995  29.3142166  15.5002190  39.7283387
  28.9077702  16.4269520  40.8539295  45.9860611  54.5359087   8.2709908
  46.9003010  54.5874548   8.5498071  46.0305500  54.4504547   7.3186517
  19.1306252  56.8971491  36.0914946  18.4382862  57.5425482  36.2341833
  18.6659473  56.0672569  35.9838438  21.9986572  16.4195419  31.6459632
  22.4714079  16.8376900  32.3656130  21.4163580  17.1024681  31.3131189
  49.1421261   5.3225208  37.9396462  48.4926834   5.7026745  38.5311961
  49.9352970   5.8359600  38.0929303  44.4296971  15.9565998  63.9753962
  44.6569481  15.3495956  63.2710218  44.9360123  15.6506229  64.7278976
  30.7370507  28.2740202   6.7485979  31.6599690  28.4172955   6.5390089
  30.6223141  28.6739817   7.6106289   5.4975552  37.1749306  48.8961029
   5.9706921  37.5276470  48.1424665   5.9700245  37.5148439  49.6560097
  68.4910050   4.9031044  48.4807396  68.6908283   4.4483591  47.6625013
  69.1638413   4.6031595  49.0919352  70.4136896  74.4848061  20.6408739
  70.5257320  75.4255104  20.5039120  71.3053274  74.1474009  20.7267404
  18.9558357  48.0484343  11.9444823  18.1070751  48.1433010  12.3767245
  19.1740173  48.9321995  11.6485322  26.9171467   6.7372967  25.6159496
  27.0865765   5.8014561  25.5076814  27.7558079   7.1013237  25.8994317
  23.4160462  21.2084080  44.8268366  23.6122885  21.8724323  45.4877424
  23.0352011  21.6999889  44.0991402  12.2693625  40.0330235  31.8904018
  12.9546108  39.8001171  31.2639666  12.1989002  40.9853912  31.8252110
  50.9561335  57.8933468   8.0141857  50.4211460  58.6220303   7.6994875
  51.5607582  57.7118817   7.2946528  40.7628142  47.6530400   4.2535237
  41.5574108  47.4572506   4.7500256  40.4906021  48.5153523   4.5674589
   5.7835716  50.8326864  64.9704981   5.3455967  50.5044603  65.7557869
   5.7221645  50.1122904  64.3432045   6.1185879  57.0740461  48.1229496
   5.7088894  56.2590647  48.4130812   6.0923046  57.6425552  48.8925838
  57.6594496  56.3887072  41.9981337  58.0082226  56.4455891  41.1085510
  58.3305836  56.7969465  42.5450802  35.0523857  22.4912201  60.1242867
  34.2687324  22.3727499  59.5875516  35.2146677  21.6281114  60.5049968
  38.1572461  56.6882610  33.8432598  38.1140685  55.8858585  34.3633699
  38.9656162  56.6028547  33.3378124   3.9841694  67.3750305   8.1816852
   4.4795937  67.3115158   7.3651332   4.3554157  68.1357908   8.6285162
  28.1148857  18.0318487  44.0193796  27.9115147  17.8280771  43.1065035
  28.9802498  18.4396636  43.9867020  29.6921864  43.2138515  37.3893905
  30.4339638  42.7377201  37.7626181  29.3334141  42.6197125  36.7302084
   5.6834263  62.3765039  23.5103869   4.7638363  62.4501419  23.7656617
   5.7005447  62.6530838  22.5941777  54.9437046  70.9432745  26.7096758
  54.3987942  70.7225084  25.9543180  54.9148083  70.1622534  27.2623062
  21.7037243  71.8029928  42.0732260  22.3390717  71.7205811  42.7844048
  21.0724491  72.4491835  42.3897076   1.7466206  73.6147881   4.1154867
   1.4145988  72.7170181   4.1140288   1.1058468  74.1063023   4.6293473
  55.2500200  70.4927492  17.4276352  55.3098440  71.0361671  16.6419208
  54.4394112  69.9964285  17.3144341  65.7445288  72.1642923  35.2515960
  65.1740217  71.4274359  35.0329852  66.1651039  71.9064379  36.0718775
   0.5801434  40.5961514  41.2347364   0.9027905  39.8408246  40.7432032
   0.2149242  41.1776447  40.5678654  26.5505158  22.8682699  18.3022288
  26.1975180  23.7035361  18.6087397  26.9990813  23.0834475  17.4844721
  38.9720860  23.6289955  46.2634087  39.0840569  24.0387131  47.1212101
  39.6757832  22.9820610  46.2132883   8.1502861  72.5531864  17.6119184
   7.9999870  72.0782042  16.7945838   7.3783535  73.1105471  17.7104616
  44.2879429   5.6588818  19.6742678  43.5807171   5.3302837  20.2293158
  45.0816574   5.2713181  20.0431108   1.0590592  15.7889248  48.7203932
   0.4570093  16.3260437  48.2053518   1.8739786  16.2908054  48.7363338
  45.6045055  59.2256594  15.7511067  46.1525011  58.5325575  15.3829467
  46.1909199  59.7124672  16.3302171  27.6644268  33.9542557  15.8450651
  27.3043671  33.4923149  16.6021657  27.6467648  34.8774887  16.0971534
  26.1688509  24.0786530  49.7408676  26.1434832  24.4607044  50.6181479
  26.5660372  24.7575546  49.1953659  69.9160957  43.5877609  30.0862145
  70.0608301  42.6553154  30.2469110  70.7469082  43.9009571  29.7285867
   6.0680431  55.4192209  63.4910107   5.3688282  55.4957581  62.8418016
   5.7147640  54.8269653  64.1548300  79.4469305  26.5490128  31.0206461
  80.1546618  26.1068607  30.5517578  79.8938080  27.1257187  31.6402721
  15.6899590  39.3028045  42.8495741  15.0073761  38.7145758  43.1725359
  16.1302704  38.8038540  42.1615314  71.8218851  36.7465687  16.6002643
  71.7384863  36.1346340  17.3315752  70.9688330  36.7195725  16.1669016
  15.0505533  23.4460045  65.1503372  14.9143877  24.1609455  64.5285940
  16.0019484  23.3673645  65.2202845  58.5134935  65.0833035  55.1669502
  59.1676188  64.6927452  55.7464457  57.9216671  65.5521154  55.7553339
  68.5048580  56.8159246  61.5064907  67.8801584  57.2660398  60.9378242
  68.7484932  57.4710035  62.1605110  36.2223564  60.7063332  10.1548365
  35.7295119  60.1534405  10.7611779  35.7631336  61.5460625  10.1691655
   0.7600159  63.1495142  33.7685752   1.0463947  62.8564262  34.6336293
  -0.1336437  63.4637642  33.9058661  70.0032993  26.7254711  17.2058582
  70.1399656  27.5169827  16.6852176  69.0563151  26.6876293  17.3400891
  21.6443104  59.7818232  25.5735159  20.9366077  60.3262949  25.2286267
  22.4114365  60.0315285  25.0583458   6.2022537  73.0095434  40.6143665
   6.1548180  72.3585653  39.9142170   5.2916092  73.1481600  40.8746290
  68.5701084  59.8978710  60.6657887  69.0851641  60.4679394  61.2367249
  69.1613674  59.6844816  59.9439049  51.8107275  22.8387295  58.7292650
  51.3703159  22.1593414  59.2398527  52.6369575  22.4377809  58.4594205
   9.8888916  58.7863970  21.3639927  10.1863903  58.9660263  20.4721069
  10.1957935  57.8978729  21.5444613  48.4219399   0.6004358  33.6233926
  48.7473717  -0.2592491  33.3564281  48.7826862   0.7313705  34.5002866
  34.5704117  25.9886051  23.5256982  35.1081410  25.2493549  23.8095808
  34.7829380  26.6898323  24.1416097  71.9886017  53.2552290  12.2776616
  71.1272049  52.9538584  11.9888544  72.3876667  52.4859047  12.6840091
  24.5053759   7.6538063   3.3571607  23.5933151   7.3715378   3.2885966
  24.5593586   8.4277702   2.7965373  24.5084992   7.0400692  23.6937690
  25.2299395   6.9791676  23.0676341  23.8394919   6.4501072  23.3464718
  25.3295698   1.0646320  25.9122491  25.9878006   0.5480314  25.4473996
  25.6939974   1.1835362  26.7893386  77.6621485  73.1095791  38.4063435
  77.2637892  73.8659048  37.9756308  77.9017162  72.5237179  37.6882887
  16.7543835  36.9848657  50.6232023  16.8931812  36.9272447  49.6778727
  16.4589352  36.1101031  50.8756638  23.9037171   2.8689600  46.5971422
  24.2908421   3.7346483  46.4669561  23.0778351   3.0414415  47.0492458
   9.9399132  40.5706787   9.8449516   9.5187038  40.7425451   9.0027690
  10.1487679  39.6368194   9.8221439  42.4670544   0.1693321  47.3908377
  42.5604000   0.4862000  46.4924383  42.5873890   0.9486748  47.9334021
   3.7757980  17.1993103   3.2747916   3.1913697  16.4412346   3.2741097
   4.6235524  16.8484106   3.0020026  67.7442122  62.7749825  24.9240065
  68.4471607  63.3169889  25.2822232  66.9886398  63.3609962  24.8800159
  46.2340307  72.6534033  44.4550037  47.0699739  72.6752329  43.9892244
  46.0229969  71.7223692  44.5248318  25.8383646  14.4974304  16.1945558
  26.1154595  13.8430191  15.5533063  26.6553631  14.8262383  16.5695596
  17.8878679  28.2695175  44.3344927  18.6239615  27.7035023  44.5669317
  17.4369612  28.4286762  45.1636982  71.3826180  58.4725904  35.2085710
  72.0979309  57.9921103  35.6253481  70.8775187  58.8308907  35.9384537
   6.2474384   6.3424183   9.1739935   6.5411606   6.8418194   8.4120464
   7.0226898   6.2784077   9.7317749  64.6684790  32.5775695  42.5635672
  65.3417921  32.4571896  43.2331896  64.1911602  31.7479539  42.5520039
  51.3805485  70.7694101  14.5110142  51.7773247  71.1978531  13.7525678
  50.7496881  70.1548481  14.1360986  73.4464836  63.9841080  25.7053208
  72.8655767  63.3304119  26.0945010  73.5863113  63.6772346  24.8094940
  60.4675865  72.4158525  22.6048422  60.1977253  73.0242157  23.2928133
  59.8904467  71.6599989  22.7135992  50.7218266  65.3799915  17.6966047
  50.0588655  65.1655960  17.0402920  51.3733101  64.6834278  17.6153791
  26.1793080  20.2914024  24.1584015  26.2165346  21.2468983  24.2017150
  27.0482578  20.0314785  23.8524556  50.6015205  51.6194057  57.8649664
  51.4548206  51.1878061  57.8222132  50.8078718  52.5508261  57.9430628
  78.5283089  42.1637106  39.8289990  78.9174843  42.9495049  39.4452071
  78.1927252  41.6720486  39.0794110  15.8809557  11.3330723  22.6402473
  15.0689974  10.9444691  22.9657388  15.6419697  11.7149807  21.7956972
  29.8947182  18.1261517  61.9054508  30.5149975  17.5558353  61.4513302
  29.2777004  18.3980537  61.2260485  17.2439995  12.8420902   9.4575506
  17.8307142  13.5571075   9.2110705  17.8012457  12.0638252   9.4564551
  34.2996349  29.0638901  30.1659536  34.9535027  29.3286491  29.5189691
  34.5767155  28.1905437  30.4429507  31.2712227  60.6412926   1.1116770
  31.9266735  61.0634365   0.5563334  31.0228478  61.3156357   1.7439678
  16.5518370   5.4577328  44.0386677  17.1366158   6.2154747  44.0291882
  17.1133747   4.7249676  44.2915964   6.5718594  14.2174316  17.0811021
   7.1812048  13.6111809  17.5022721   7.1092453  14.6985889  16.4518726
   7.8577847  39.4571519  43.6525869   7.7110714  40.1333714  44.3139791
   7.2398705  38.7621999  43.8794184  41.3744580   5.0960579  20.7124594
  40.6504332   5.2694597  20.1108340  40.9518515   4.9389019  21.5568140
  11.6175121  19.8413301  29.1616297  10.9345192  19.8881853  29.8306251
  11.3049358  20.4122996  28.4598303  72.9260063  44.4266081  46.3846922
  72.7634096  44.6404600  45.4659653  73.8789558  44.4514227  46.4713573
  75.1623726  50.4137278  41.1469269  74.5279121  50.7207775  41.7945480
  75.1409006  49.4598913  41.2241268  28.5863876   5.0450063   5.9129220
  28.8891506   5.4684079   6.7162257  27.8319502   5.5657274   5.6374127
  26.4045882   6.5609503  21.7585754  27.1751952   5.9940344  21.7269087
  26.7614436   7.4484217  21.7943835  34.5377302  10.6535196  11.1244512
  35.2814126  10.5555785  11.7190742  34.4172406  11.5998137  11.0454547
  66.8732691   1.3314517  52.3153114  66.7556953   1.2238817  53.2591534
  67.2627974   0.5060451  52.0268583   8.9494699   6.6100127  19.8627698
   8.2503021   6.1456263  19.4026148   8.7607992   7.5363714  19.7127867
  66.0951516  58.0057155  40.8438540  65.3576491  58.0030023  40.2336788
  65.7648764  57.5545703  41.6207838  71.8278980   5.9507561  42.3524952
  71.1417294   5.9197623  43.0191660  71.3654852   6.1667717  41.5427160
  34.4388723  13.4638500  11.5104508  33.9104199  14.1957092  11.8288088
  35.2962494  13.5933137  11.9158852  32.2143722   7.5313610  10.6766331
  32.5220513   6.6799283  10.9874821  32.9718542   7.9121149  10.2322459
  66.2570462  56.1931287   9.4431776  67.0441470  55.7361912   9.7396773
  66.5635118  56.7673587   8.7413442  33.8493013  26.9073129  46.5716124
  33.6531448  27.8442001  46.5718794  34.4950342  26.7980051  45.8735323
  55.4281616   5.2517420  24.3502569  54.9172735   5.8890605  23.8512063
  56.0613537   5.7801044  24.8361921  61.0455767  75.1298123   5.4588097
  61.1088381  75.1505937   6.4136910  61.3708136  74.2629133   5.2160358
  12.6784237  36.2330425  40.9081933  12.6719721  36.1601705  39.9537942
  12.2058256  37.0454356  41.0895750  56.3429130  62.7395162  61.8908030
  57.0881237  62.2170243  61.5943315  56.6462768  63.1521163  62.6994833
  22.5364260  65.2243887  33.7839675  21.5909675  65.0794291  33.8203120
  22.6558641  65.8471643  33.0669475   0.1141385  48.7577175  52.2753000
   0.9873632  48.7681149  52.6672220  -0.3618094  49.4511007  52.7323818
  46.0955385  74.8444915  27.9065919  46.6881613  74.9579856  28.6496592
  46.6513876  74.9638699  27.1365190  48.4950161   3.4882078  20.1635361
  48.9641285   4.1960794  20.6052160  49.1822243   2.8834635  19.8837888
  74.2059383  54.9032234  11.3967741  74.7905431  54.2056226  11.1004269
  73.5295091  54.4508790  11.9008195  51.2533446  69.1220154   1.9766787
  51.1097118  69.3169440   2.9027489  51.3279792  68.1683792   1.9414213
  77.7860022   9.5329607  41.0502338  77.2009039   9.4982195  41.8069935
  77.4301529   8.8847828  40.4423952  73.4740210  32.2935057   9.5837897
  73.9549875  32.2542858  10.4104495  73.8276386  33.0627632   9.1372132
  18.0951504  20.2203011  33.9959002  18.8679460  19.8800968  33.5450292
  17.3864416  20.1282333  33.3591247  34.3176675  20.6728888  25.6542420
  34.7160912  20.7511425  26.5210557  33.3975315  20.4765558  25.8304143
  11.4189506   3.3261698  16.3496530  11.7050993   3.6316657  15.4888260
  10.8751023   2.5607720  16.1635685  75.4340076  38.7972331   5.5450952
  74.9229336  38.1650496   5.0397426  76.3434458  38.6116695   5.3111660
   5.7515530  60.1306437  16.8096685   5.2010778  59.3479227  16.7861044
   5.1343182  60.8544241  16.9164133  20.3505329  53.2311248  45.6931162
  21.0679821  53.4928392  46.2701845  20.7307629  53.2492994  44.8148632
  28.6815838  71.2277951  33.2891107  28.4193281  70.3074770  33.3107829
  29.6211485  71.2134611  33.4714317  17.0020584  58.7163221   7.7734190
  17.4810509  59.3127333   7.1980113  17.3152927  57.8452658   7.5297475
  27.9237080   1.4283942  36.8547297  28.1550574   2.3477310  36.9871259
  27.0615649   1.3375328  37.2605467  56.2646389   9.4117600  56.2699318
  56.2994480  10.1607323  55.6749010  55.3308582   9.2231083  56.3631439
  70.1668808  53.4362506  46.4570427  70.5403933  53.6502837  47.3119736
  70.5828974  54.0514230  45.8531189  55.7829428  10.4541087  35.9712291
  54.9760532  10.5810785  35.4721928  56.3326454  11.2002075  35.7316542
  33.3384851  66.9405972  20.9743190  33.3441786  67.4377756  21.7922521
  33.3870033  67.6068138  20.2887297  28.6968174  51.0350873   2.5277546
  28.1758156  50.4889335   1.9391039  29.6030464  50.7861103   2.3461512
  15.2294898  19.7929597  45.2593517  15.1739132  20.6480622  45.6859016
  14.9799168  19.1687357  45.9407425  20.3723001  13.9194345  58.1252241
  20.9603262  14.6692133  58.0341816  20.9555221  13.1618083  58.1709003
  14.9782852  42.7782010  36.4803720  14.1410831  43.2055234  36.6612673
  15.1634935  42.2701906  37.2702169  40.9063148   0.6490164  12.4319971
  41.0287952   1.5258798  12.0682096  41.7598152   0.2271932  12.3328054
   9.1211871  69.2160063  35.3036141   8.6412338  70.0298135  35.4572177
   8.4490017  68.5876369  35.0398946  44.3489933   9.0407109  29.8452449
  45.0530481   9.6609288  30.0346351  43.7889194   9.4983131  29.2182302
  30.5687384  52.2861694  17.9829013  30.6139091  51.3425158  18.1368792
  31.2965063  52.4668788  17.3879814  58.2239008  43.0920123   8.6517167
  58.7478731  42.8902720   9.4269490  57.3891280  42.6494264   8.8050240
  25.1583580  71.9839167  64.2988586  24.8771671  71.2274473  64.8135614
  24.6531252  71.9231646  63.4881306  36.0976410  22.4613142  38.0651760
  36.6975713  22.6603484  38.7839961  35.2701426  22.8664398  38.3246922
   7.1306038   9.3372428  29.9211264   6.8479574  10.0827861  29.3914962
   8.0747646   9.2827404  29.7734070  48.8463783  21.2982321  21.5950489
  49.4915533  21.9644475  21.8319750  48.2023335  21.7666698  21.0640097
  23.5949949  74.3596688   5.3973180  23.8742021  74.7591203   4.5734772
  23.9391283  74.9420027   6.0745847  14.2675356  50.8793377  40.8211279
  13.3438209  50.6334137  40.7711363  14.2600159  51.7670726  41.1790466
  22.8002695  63.6578022  18.5283673  22.7969030  63.3685397  17.6159263
  23.6973719  63.9539432  18.6824381   8.3237532  53.2860469   6.5889513
   8.5561279  53.9364957   5.9262669   7.3813347  53.3976292   6.7139643
  62.6953349  72.3734333  11.7218447  63.4051940  71.8130382  11.4083326
  61.9266269  71.8031543  11.7319512  79.7888169  56.7766749  44.8551083
  79.3832526  56.2442540  44.1708040  79.1841373  56.7172491  45.5947447
  49.0227413  22.3902440  40.9914494  49.2772818  21.7485905  41.6545630
  49.7172308  22.3439646  40.3343534  32.5030947  23.0620861  26.5470147
  31.5896630  23.3353758  26.6317868  32.5055456  22.4629450  25.8005190
  38.6241841  24.5233226  25.5842972  37.8357267  24.8020244  26.0500145
  39.0430021  23.8977385  26.1754537   6.4822538  40.7293940  60.5479637
   6.3012274  41.6692609  60.5374753   7.1859606  40.6281600  61.1888888
  56.0558271   0.4083480   6.2003309  55.6563234   0.8539118   6.9473946
  56.6975069   1.0337226   5.8636105  35.7672171  56.2074720   8.7764770
  35.5019096  56.8482577   9.4362026  36.6356853  56.4970540   8.4969532
   3.9606817  70.6854496  61.4978224   4.0984686  70.0105629  62.1624842
   3.0268486  70.8884058  61.5525618  15.1755337  61.0512852   5.3746206
  16.0476545  61.4127766   5.2166146  15.3100113  60.1039301   5.4004407
  59.9163342   1.7164811  12.6320648  59.7973156   2.0680903  11.7497742
  59.7193384   2.4522956  13.2117224  74.5965004  43.3197021  54.5691442
  74.9653244  42.4528408  54.7387075  75.3427362  43.8452721  54.2808008
  69.2526245   4.1881725  15.5663085  69.9286366   4.1858089  14.8886430
  68.5852146   4.7899869  15.2367377  28.1254200  56.1966394  30.3139591
  27.1728329  56.2093996  30.4069471  28.4286217  56.9261443  30.8544421
  44.2740107   0.5996474  15.0246131  43.3262634   0.7308123  15.0529456
  44.5677090   1.1333697  14.2862928  39.6152043   1.4784701  18.3829284
  39.2542768   0.5997504  18.5004604  40.1057529   1.6455279  19.1877198
  18.1099613  31.5370861  48.1043181  18.9591320  31.7965278  48.4618553
  17.4726255  32.0381257  48.6132321  47.4383020  14.4004655  20.6323791
  47.3581553  13.7838161  21.3600826  46.7986631  14.0958190  19.9887323
  43.7936930  75.4484864  20.4069567  44.3116382  74.6630173  20.5830216
  43.4035639  75.2904108  19.5472777  77.0587587   7.4378705  32.0277190
  77.0377302   7.4791121  31.0716391  77.1197224   6.5033895  32.2258615
  44.4682550   4.8492670  58.8925505  45.0417471   5.5913752  58.7012053
  45.0441265   4.1990247  59.2947865  32.8748707  67.9905896  39.1345954
  33.1533722  68.6970769  38.5518909  32.3342518  68.4239232  39.7950363
  48.1908468  55.7721876  42.0985889  47.9153494  54.9164938  41.7697716
  49.1098741  55.8433556  41.8406105  23.3658171   7.2908920  39.5727348
  23.8250852   8.0301178  39.1741753  24.0614462   6.6808879  39.8181462
  18.7416891  51.8905758  13.2996726  17.8802637  51.5076756  13.4657013
  18.5948662  52.8357219  13.3367622  45.4320049  25.3564692   7.5129849
  45.0521469  25.4468441   8.3869243  46.1953783  25.9338784   7.5227469
  17.1533779  61.2997078   9.2916119  17.2745470  60.3997241   8.9889890
  16.3086418  61.5633999   8.9267606  53.7646151   9.9412113   0.2729377
  53.7330770  10.8875370   0.4133128  54.6117830   9.6742624   0.6296957
  52.2922853  65.5653756  47.0553303  52.1340612  64.6237933  47.1233082
  51.6483358  65.8709448  46.4164352  33.1679157  75.0137794  35.7417059
  33.6917690  75.2894919  36.4938974  32.3471311  75.4981005  35.8310151
  13.5777716  58.7771832  45.6863642  14.2966274  59.3729578  45.4753447
  13.3209161  58.4036826  44.8433018  78.6426363  33.0947184  14.0428030
  78.4553370  33.9955210  14.3068290  78.7662492  33.1437468  13.0948853
  40.8322862  57.7271556  26.3280344  41.6108374  57.6953982  26.8839884
  40.3808454  58.5283410  26.5936184  37.8277206   4.6060309  57.2542000
  38.4594226   5.3202188  57.1698236  37.5395584   4.4339916  56.3577652
  22.3136190  57.4099909  13.9635992  22.9000095  56.9487702  13.3638883
  22.5845865  57.1192919  14.8344040  61.5199614   5.3537166  25.9125209
  61.2348366   4.5162308  25.5470729  61.8278265   5.8527863  25.1559639
  58.2298622  59.3282925  16.5797830  58.8273368  58.6529874  16.2585080
  58.4526620  59.4243943  17.5057185  29.9545550  33.4714937  35.8675408
  30.0747561  32.7985072  35.1975632  29.4083667  34.1346979  35.4455590
  45.8485798  63.0041563  44.9460840  46.5397552  63.0372941  45.6074524
  45.4800514  63.8875507  44.9403143  26.4468149  66.8763416  29.2761636
  26.4188436  67.6381480  29.8550415  25.5826239  66.8560486  28.8650703
  38.4043316  69.5237642  21.3991356  38.9609341  69.5407998  20.6205869
  37.5902752  69.1167306  21.1027122  69.0347290  18.9042377  58.5896444
  69.1153717  18.5230172  57.7153444  68.1475449  19.2627800  58.6137009
  62.0793676  11.9708848   9.0976810  62.5676203  11.6977978   8.3209795
  62.7391529  12.3627555   9.6698284   7.9738430  68.0084704  40.5075836
   7.5241379  67.9362624  41.3494730   8.6612109  67.3433947  40.5453873
  68.3655405   7.0800924  18.0895519  68.4978056   7.9849106  18.3724678
  69.2220354   6.8033385  17.7638912  27.2645143  57.7234196   4.8344749
  27.5591663  56.8129145   4.8542583  26.3295034  57.6683437   4.6371165
  10.7658533  48.3251428  25.6744695  10.1849750  48.2389854  24.9185681
  10.8593015  47.4326896  26.0076761  54.1420031   1.0783914  26.4212132
  53.8100052   0.3151044  25.9485602  54.0909195   1.7936203  25.7871222
  29.3230844  15.5600202  28.8659310  28.5773730  15.3196716  29.4158220
  29.0029788  15.4567373  27.9697728  59.6264050  70.3202449   7.6649541
  60.2048567  71.0821604   7.6982796  60.1163981  69.6693133   7.1625334
  32.2545958   8.1800115  29.8415804  32.1572828   8.1367743  28.8903213
  31.5799856   7.5903642  30.1784015  65.9235668  11.1157048  22.2264910
  65.5798578  10.4350066  21.6479182  65.1542854  11.4473093  22.6896071
  56.8296242  11.4238334   5.1266313  56.0302114  11.6458476   4.6492666
  57.4973345  12.0019293   4.7575805  53.0457497  59.4749880  18.1065559
  53.1025696  60.1268435  18.8051891  53.6589670  58.7884855  18.3690667
  54.2253936  46.9916967  60.0973341  54.6706856  46.5470598  59.3760547
  54.9167288  47.4868909  60.5367297   1.0676792  47.9480505  46.9987011
   1.6430999  47.1840620  46.9607115   1.6616631  48.6975431  46.9577932
  70.9351254   6.8065041  27.6159096  71.3294268   6.3344014  28.3493090
  70.4427004   6.1389267  27.1383238  27.1704865   3.5900471  19.4525421
  26.2706256   3.8704076  19.6195161  27.4785519   4.1739047  18.7594068
  12.2502331  70.2396648   8.8926309  12.4919442  71.1656355   8.9122987
  12.4486855  69.9215662   9.7733474  38.6877418   2.3281525  64.8192453
  38.5664010   1.4681453  65.2216053  38.9395380   2.1365450  63.9158535
  28.1561804  37.6443863  40.7450914  28.4157848  36.7901421  41.0902071
  27.6006508  37.4400353  39.9928546  55.7478294  47.5744556  47.8892183
  55.2900644  47.6155685  48.7288570  55.6847802  46.6561030  47.6267672
  43.3568712  57.7826108  14.8562983  42.6089653  58.3552708  14.6862200
  44.0079018  58.3536448  15.2641085  40.0348186  12.6132512  10.5761003
  40.5274439  12.3359656   9.8036605  39.8313117  13.5341549  10.4125357
  26.3232875   0.7510811  28.4093118  25.9223747   1.0041799  29.2408419
  27.2357869   1.0289942  28.4889627  26.9568563  10.9365761  20.4873204
  27.0872545  11.7089987  21.0374045  26.6702580  11.2883651  19.6445048
   2.7538818  27.7709603  58.3992004   2.3634285  26.8981481  58.3546925
   2.7207893  28.0943418  57.4988890   7.4902800  52.0864319  37.2535825
   7.5814060  52.2680139  36.3181925   6.5466884  52.1138333  37.4120712
  72.0229397  71.8871733  26.6676092  72.3701737  72.7082579  27.0161510
  71.6223690  72.1315106  25.8332992  79.5526419  51.0021566   9.8033166
  80.2987323  51.5569352   9.5757121  79.6823797  50.2041816   9.2908388
  40.0428871  71.4545258   8.1421840  39.4749121  70.7322573   8.4104514
  40.0663761  71.3986598   7.1869045  13.3461618  10.9169829  53.3500147
  14.1336191  10.3764117  53.2873583  12.9241991  10.8254254  52.4957323
  49.6443701   7.0766002  29.6421289  50.5960608   7.0561123  29.5416641
  49.4115734   6.1848825  29.9007368  76.4724526  74.7135822  15.7430100
  76.6267404  75.3092948  16.4761901  75.7213888  74.1868629  16.0163283
  53.2499695  27.8149390  31.9484425  53.5243607  27.2001600  31.2680101
  53.7808800  28.5962105  31.7935848  64.7134638  14.2250311  29.3296051
  65.5207443  13.8321304  28.9977002  64.9269295  15.1511848  29.4431996
   8.1907300  71.6881259  22.4220705   8.0754522  71.6663312  23.3720541
   9.0244130  71.2424966  22.2716808  64.4449615   8.1608689  38.8760877
  65.3780270   8.2550973  39.0677834  64.2586040   7.2366691  39.0414906
  49.5666313   4.3447617  27.3483157  49.6982431   5.0764346  27.9512787
  48.7898445   4.5867142  26.8440461  26.8430805  20.3435254  44.4843006
  26.2064338  19.8099768  44.9599457  27.3442793  19.7135365  43.9664745
  42.2007564  74.4980468   0.5366940  41.4415316  73.9725723   0.2843236
  42.0504288  75.3491364   0.1252568  18.5761503  12.4944053  53.8065442
  18.8613848  12.2756277  52.9194090  18.3798031  11.6490351  54.2103168
  37.7892259  67.5638460  49.2292452  37.6222519  66.7202442  48.8089037
  37.3439077  67.5026648  50.0743389  51.5404610  62.8824817  34.8759007
  52.1482614  63.5854625  35.1053047  51.9930080  62.0801615  35.1361179
  61.9042209  65.7174199  11.1542213  62.4526409  64.9367033  11.0771096
  61.0161880  65.4042517  10.9822845  32.3518566  68.7981426  54.6901560
  32.3061756  68.0908965  54.0467691  32.8870348  69.4708144  54.2690516
  72.5844002  25.2851248  63.3385944  72.4644661  24.7751594  64.1397095
  72.1349621  24.7781587  62.6624155  62.3521328  18.8836265  20.3853607
  62.5167179  18.2202423  21.0554838  61.4404106  18.7443113  20.1292562
  65.3283834  29.8711896  12.5648320  64.9859047  29.0038276  12.7807546
  64.7502947  30.4786634  13.0263734  60.2402353   1.6974507  17.6611996
  59.5930433   1.8059877  16.9643557  60.2398300   0.7579143  17.8442383
  37.8966621  61.8975436  32.5658989  38.7910799  62.1932029  32.7357101
  37.9886392  60.9707343  32.3450017  46.7455912  21.2940645   3.2434395
  47.4396086  20.9878111   3.8272023  47.2101688  21.6883159   2.5052202
  21.5701587  65.8787546  60.3831354  20.7508095  65.9086141  59.8891702
  22.0211799  66.6896806  60.1481655  40.3662443  27.1520948  23.5279226
  40.9920788  27.8696012  23.4292150  39.6033692  27.4280906  23.0199099
  24.4417667  38.5993528  50.0949049  25.0774574  38.7256312  50.7993078
  24.8111415  37.8949380  49.5623732  47.7756432  63.2790207   9.6969688
  48.5366294  63.8272869   9.5058209  48.1045554  62.3823260   9.6338290
  22.4103407  71.2016763   8.5873812  21.7699293  70.5720546   8.9185697
  23.2237915  70.9756719   9.0384346  19.3542198  63.0752050  29.4948077
  18.8789419  62.6588248  30.2138138  19.7067503  62.3450052  28.9861202
  12.8039531  73.2431447  43.3187389  13.4854034  73.9142694  43.3567524
  12.0479921  73.6448770  43.7469530   7.6228074  66.7971074  34.8955846
   7.4971799  66.3332855  35.7234240   8.1306700  66.1910408  34.3561482
  11.1855272  67.6956349  25.0355554  11.7115477  68.4948360  25.0070977
  11.8281654  66.9868331  25.0646544  53.6395920  42.3944620  64.8304498
  54.4994296  42.5642023  64.4456166  53.0963076  43.1248597  64.5344858
  63.4904480  40.1979971   5.3891873  62.8419828  40.6614161   4.8591182
  63.8412857  39.5258808   4.8048928  36.7320157  20.1441750  58.4820220
  36.0740192  19.8677501  57.8441641  36.2843658  20.0906954  59.3264040
  26.9593243  69.6499138  22.0748734  26.1739067  70.0200497  21.6719484
  26.7884592  69.6921664  23.0157495  23.3212141  48.2350253  20.6922603
  24.1713957  48.5001205  20.3413415  23.0856327  47.4569129  20.1870131
  65.1992406  61.2237868  57.1054336  66.1170281  61.4077554  57.3055586
  64.7217239  61.5147266  57.8823283  22.1582627  24.7638559  45.8971310
  22.9531717  24.9872851  45.4129505  22.4646997  24.5646477  46.7818022
   5.3008421  37.4424401  58.7932923   5.6917865  36.8513312  58.1498751
   4.8960836  38.1333907  58.2688984  40.2730989  13.3513176   2.8052095
  40.3635931  13.3591855   3.7580901  39.4236493  13.7611866   2.6418978
  31.3984466   4.5212924  39.2262006  30.9350848   3.7049571  39.4136095
  31.5865159   4.8932099  40.0879049  43.7674046  24.4035745  25.8305216
  43.7283134  24.0461993  24.9433994  43.0884886  25.0781322  25.8471274
  54.2893219  35.1868939  10.2622163  54.6406460  35.2344775  11.1513388
  55.0511599  35.3129864   9.6965891  36.7289567  14.9546099  29.7680449
  36.0917592  15.0471544  30.4763150  36.2115264  15.0416934  28.9674711
  64.3343925  26.1062264  43.4675360  64.9708748  25.6093812  42.9534674
  64.5147228  27.0213246  43.2523394  54.9072218  21.0163760  11.2790680
  54.6272945  20.2902818  11.8364370  55.6447220  21.4073873  11.7475080
  51.0199022  26.9665432  16.1340809  50.4844809  27.4865055  16.7334139
  50.5645752  27.0249224  15.2941382   3.2045025  61.0041809  38.9334536
   3.4645313  60.1323318  38.6359692   2.5327820  60.8408880  39.5955396
  50.0148964  14.0163815  23.6292005  50.3329897  13.7310100  22.7726889
  50.1652527  14.9616599  23.6377621  65.4686798  20.5740425  58.4972337
  64.6225489  20.8416602  58.8559475  65.7027019  21.2741146  57.8878364
  18.7922424  15.7659018  35.8600545  18.0353111  16.1437786  35.4122925
  18.8466209  16.2467325  36.6859341   0.7493633  28.1620288  42.9984856
   1.3378185  27.4619293  43.2810020   0.9061188  28.8723326  43.6206818
  31.8574528  65.6306671  27.5580025  31.5828804  64.8458635  27.0837402
  31.1439995  65.8007204  28.1730604   9.4333080  65.6657027   9.2936826
   9.0919045  66.4985179   8.9679646   8.7029652  65.0541805   9.1994858
  51.3625908   0.3747671   2.9816094  50.8437490   0.8455598   2.3293887
  52.1975374   0.8421904   3.0063203  35.4286218  67.5426102  12.9418790
  36.2006187  67.0713425  12.6285791  34.6917367  66.9795132  12.7049160
  66.4434481  11.8004811  39.9426603  66.5356493  11.2573218  40.7254171
  66.4658642  12.6993716  40.2708769  65.9924412   9.4313264  18.3805692
  66.0108471   8.9760029  17.5388014  65.8342361  10.3477156  18.1537795
  33.1224394  19.2182565  21.7371011  33.4005666  19.2822790  20.8234382
  33.7480640  19.7613704  22.2165298  71.3072395  22.9986930  22.6941037
  71.9161844  23.2999635  22.0198250  71.3742733  22.0441961  22.6681781
  16.9729713  43.1088375  14.7561073  17.8875927  43.1397413  14.4754863
  16.5405277  42.5586270  14.1030431  56.6065550  27.9349637  31.0899949
  56.0242271  28.6212826  31.4157081  56.0376883  27.3625135  30.5752897
  58.5081387  15.6976700   4.6833923  58.9365673  16.0169530   5.4775834
  57.6074982  15.5176353   4.9529517  45.8311371  74.0155912  46.6324520
  46.2174038  73.5633283  45.8824587  46.3067535  74.8447189  46.6831112
  21.5948490  56.8058156   1.8327211  22.4774937  57.1760630   1.8233950
  21.0406736  57.4986743   1.4734587  64.5991945  26.1020637   3.3762395
  65.4365158  25.8435559   2.9911378  64.7997379  26.2656450   4.2977899
  76.8484064  64.0063895   1.1490563  77.2919365  64.4689144   0.4380158
  76.5618225  64.6996083   1.7436531  54.6382999  16.4104545  46.1961079
  54.7790098  17.1719766  46.7587042  55.4830170  16.2690938  45.7686758
  65.1254357  40.8016262  61.4389890  65.6739677  40.0326395  61.2840542
  64.2688216  40.4422200  61.6697901  29.6766857  66.8764656  48.9606190
  29.9031643  66.8876212  49.8905754  30.2015785  67.5794469  48.5778284
   7.0094437   9.4897765  50.8117962   7.3077435   9.0349865  50.0241327
   7.8003449   9.5977271  51.3400555  41.1257397   0.2583184   6.9663790
  40.2571522  -0.1026163   7.1438912  41.2723719   0.0834456   6.0367802
  78.1744159  72.4867997  64.7900710  77.5309099  72.0850310  64.2063685
  77.7451481  72.5022206  65.6454788  46.4191536  64.9146246  39.4849825
  45.5165199  64.6465515  39.6571064  46.9365648  64.4499790  40.1427221
  55.1397753   7.6730102   6.0762930  55.4490900   8.2477641   6.7764461
  55.8251143   7.0103621   5.9900451  57.9934549   5.8414477   5.9848273
  57.5347853   5.0185686   5.8153421  57.9083729   5.9729862   6.9291210
  13.8179687  73.7651860  34.0767765  13.4409050  74.2378806  34.8188114
  13.1719188  73.8629023  33.3772755  68.2820654   5.8411026  21.9423842
  67.7381897   6.1541808  22.6651669  67.8027248   6.0960746  21.1540604
  12.4609625  22.0566821  47.2757435  11.8311310  22.6096797  47.7380610
  12.2255301  22.1460104  46.3522625  66.5456724  16.9534588  35.5860925
  67.1022511  16.8422878  36.3568664  66.9595861  17.6609838  35.0918102
  56.0664940  37.4247360   9.0793014  56.3812256  37.7879405   8.2514983
  55.5432129  38.1270814   9.4654572  60.4762602  15.4323757  23.8533902
  60.1818895  14.7895491  23.2081366  61.1554623  15.9323776  23.4007144
   5.8087772  31.5570903   1.8595551   5.5473084  30.6716371   2.1122183
   5.8703655  31.5254021   0.9048643  38.6078334  25.7981443  13.4957874
  37.7574158  25.9412503  13.9111686  38.4340048  25.8839297  12.5584209
  25.0403456  64.5947741  34.6182513  24.1075376  64.5913683  34.4035721
  25.2565960  65.5202793  34.7318745   3.4368366  22.4270964  13.1726396
   4.2230934  22.0770431  12.7537203   2.9827255  22.8981495  12.4739802
  62.5358009  20.5933976  23.6000466  62.6802397  20.6047177  24.5462179
  63.4041452  20.4416013  23.2269979   2.9691544  61.5671195   4.4003514
   2.1583595  61.8048610   4.8501519   2.7222672  60.8385696   3.8307074
  46.9495964  19.7563958  17.7775407  46.7231369  20.6854486  17.7350354
  46.2758160  19.3710160  18.3376634   6.1100338  57.2607171  27.0724273
   5.5575989  56.7779492  27.6872277   6.8971203  56.7231118  26.9846201
  42.9415703  12.1640170  10.9286630  42.6934290  12.6229131  10.1261222
  43.5860348  12.7377152  11.3431096   4.4412687  18.1946337  15.8340919
   3.5159248  18.0075574  15.6760657   4.5064059  19.1477895  15.7750750
  42.6733780  16.2633455  10.3648031  43.2456350  16.5315282   9.6458930
  41.7872953  16.3904154  10.0257766  18.9431423   5.3695548   4.4572347
  19.6092457   6.0475540   4.3439075  18.1561703   5.8481294   4.7177884
  68.3442161  73.4577889  10.9149539  67.9884956  72.5720160  10.9863794
  69.2806969  73.3541415  11.0837483  46.9582367  22.0867777  13.2539594
  46.5176725  22.0219517  12.4066508  47.5811815  22.8054142  13.1456494
  64.2854309   4.6182930  15.8194220  64.4424629   4.1816750  14.9822021
  64.6093893   4.0014127  16.4757299  30.0556183  23.8127542   9.4793022
  29.9554276  22.8765774   9.3067712  29.2015100  24.0875983   9.8127538
  22.4433950  58.4429525  38.0096841  21.7041067  58.3862113  37.4043179
  23.0005316  57.6999926  37.7776480  47.3168564  56.2123299  38.1549621
  46.8588161  55.4142618  38.4186220  46.9759655  56.8886375  38.7403107
  68.3351374  32.3906207  32.2129464  68.3644295  31.8915534  33.0292225
  68.1626987  33.2908797  32.4886847  22.6393894  71.9102367  62.2143078
  23.0290083  71.5358060  61.4242268  21.7754845  72.2132384  61.9348574
  62.1092367   4.4649616  13.0582118  62.3768711   4.5209095  13.9755297
  61.2852240   4.9504554  13.0190885  52.4454359  70.4182379  19.6333158
  52.0476107  70.2667694  18.7759817  51.9945291  71.1910503  19.9734259
  14.2978001  35.6746125  20.5725622  14.3351936  35.2429938  19.7190166
  15.1174724  35.4287267  21.0014081  43.8077021   4.5173150  17.1034133
  44.7010088   4.2302102  16.9141877  43.7654829   4.5547029  18.0589509
  64.3314872  69.6488105  11.0812843  65.0997934  69.0779977  11.0708320
  63.7770114  69.3170642  10.3750730  44.4417095  16.5681779  24.3224788
  45.1337624  16.8960619  24.8967505  43.6321497  16.9045019  24.7068286
  42.3307089  54.0784477  23.1263447  42.1023897  53.5954498  23.9205837
  42.5470690  54.9583220  23.4349632  39.1225103  75.2830330  46.9747639
  38.4002403  74.7485363  46.6448069  39.7674850  75.2770021  46.2675190
  72.1175718  47.0875740  11.0325718  72.7241564  46.4470005  11.4039922
  72.6644135  47.6386452  10.4726458  40.1427889   1.9303170  39.1812801
  40.1338005   0.9731724  39.1863155  41.0097504   2.1634492  39.5133305
  43.9249706  19.0008378  18.5327578  43.4877348  19.2290771  17.7124143
  43.3014059  18.4341431  18.9869130   8.5216911  59.1085896  62.2090858
   8.1144626  58.2910213  61.9227657   9.4560058  58.9812503  62.0445415
  13.0038051  64.4260787  14.2345595  12.4199728  63.6696707  14.1778421
  12.6071218  65.0786256  13.6574507  15.6035860  63.0335603  54.1462585
  16.4570863  63.0633507  54.5785579  15.0933082  63.7199197  54.5760926
  30.6861043  33.7108278  32.5956178  30.6489015  32.7611661  32.7095938
  31.1803436  34.0238094  33.3532500  42.9917860  11.0208750  35.3669453
  42.1562433  11.1408937  34.9156237  42.9433155  10.1362896  35.7294250
  43.5123634  24.8826790  19.3977070  44.2344618  25.5075955  19.3322563
  43.2183075  24.7610497  18.4949505  52.5183535  31.9747233  16.4434540
  52.8096914  31.8860555  17.3509181  51.6083956  31.6779137  16.4539528
  25.2116299  31.9451523  46.8023157  25.7976151  31.1886406  46.7789936
  25.0533986  32.0969129  47.7340698  47.7953339  25.7950687  40.2539921
  48.6434221  25.9219694  40.6792879  47.9874468  25.2417064  39.4969463
  49.7854284  56.4219641  46.1262894  49.7252516  55.4756795  46.2572765
  50.7174209  56.5848755  45.9811068  57.7135992  34.7808075  -0.3182726
  57.1310806  35.2321815   0.2925991  58.4686041  34.5281219   0.2130974
  49.0564207  73.5369839  50.5569839  49.5040277  73.4472642  49.7156620
  48.1926159  73.8832555  50.3329897  23.8944248  56.7988812  11.8436074
  24.0113787  55.8513855  11.7742896  24.5746998  57.1661090  11.2791550
  11.0511426  25.7980417  17.5297034  11.4711503  26.1488985  18.3150220
  10.8174614  26.5718578  17.0170295  54.4545463  68.7633472  29.9130154
  55.1827148  68.8723277  29.3013620  53.7309269  69.2449354  29.5121694
  37.1970868  25.0734591  60.3924942  37.8872395  24.5037222  60.7320881
  37.6525807  25.6790137  59.8076344  74.6815634  26.7624974  23.2712579
  74.2535019  26.8840742  24.1187334  75.0070047  27.6325417  23.0402994
  38.5226965  22.1537161  54.0191793  38.3424783  21.2826514  54.3727303
  39.4151378  22.3484135  54.3053150  27.6089692  26.9794750  29.9680495
  26.9059277  26.8697882  30.6083083  28.1691003  26.2135315  30.0938129
  53.2314825   6.6974854  22.0098090  52.5335741   7.1816039  22.4511576
  53.8319159   7.3743224  21.6973972  70.7479429   8.5463971  33.9660883
  71.2637424   8.4462863  33.1659889  70.0055027   9.0916073  33.7057829
  47.7786064   8.8395393  18.7842143  47.9069710   8.5685354  19.6932304
  47.0324945   8.3211613  18.4828234  46.7241907   4.9434441  23.5828352
  45.7862806   5.0803053  23.7163544  47.1348143   5.3256577  24.3584204
  77.7739811  26.5529966   6.6779846  78.4403896  27.2240400   6.8257397
  77.5347328  26.2556601   7.5558126  11.4940766  53.2218217  25.0381517
  11.3734726  54.1688251  25.1079369  10.6066946  52.8729080  24.9542022
  60.5763483  23.9469385  33.4689426  59.8993731  24.6181655  33.5549045
  60.9310293  23.8499212  34.3526983  79.6214375  73.4463673  34.6226430
  78.9533100  74.1050192  34.4328666  80.4216466  73.9515025  34.7666407
  51.8286133  13.6384237  36.2294507  52.7832079  13.6420679  36.2999630
  51.6362953  14.2829227  35.5483723  70.1426805  58.4520397  54.1138717
  69.8067440  59.2914948  53.7997111  69.7311271  57.8013787  53.5451051
  79.2492962   4.3293723   6.5096283  79.8869896   4.8933789   6.0720527
  79.3997812   4.4771197   7.4433076  48.0748463   0.2073317  29.9901509
  47.3107290  -0.2306761  30.3649855  47.7346325   0.6677913  29.2230368
  50.7286072  31.1009383  20.9174037  49.8792648  31.5335059  20.8294582
  51.0943222  31.4539266  21.7285037  61.0704613   7.0580447  13.1077456
  61.5387630   7.1188909  12.2751427  61.4281988   7.7713114  13.6364317
  18.7272171  68.6634772  38.5351133  18.0338196  69.3233453  38.5338616
  19.5260242  69.1558026  38.7242007  19.2554879  17.3748350  55.4251289
  18.3701622  17.4554932  55.7799864  19.2381954  16.5614498  54.9208069
  75.4756731   9.3880147  26.8941569  75.9454122   9.1575193  27.6956868
  74.5538538   9.2412663  27.1061611  53.4999180  27.8602052  17.8458154
  54.2066145  28.4391713  17.5601339  52.7391434  28.1422472  17.3379707
  45.2561048  55.9806203  14.1355610  45.6686500  56.4164244  13.3898318
  44.5247749  56.5511941  14.3718588   5.8258766  32.5486946   6.9688624
   5.3346104  32.2206259   6.2156987   5.3607983  32.1990561   7.7289182
  74.0476594  66.6772299  33.2741475  74.1576967  67.5409358  32.8764844
  74.3513617  66.0646682  32.6042485  40.8121446  73.8955276  19.1097856
  40.3315977  73.8005330  19.9321485  40.8089689  74.8371667  18.9379203
  54.0020704  17.9904068  17.6895940  54.3173885  18.8081288  18.0744779
  53.0522823  18.0223906  17.8041053  44.0200571  63.2240294  33.7858272
  44.4491724  62.6958250  34.4589496  43.6497167  63.9661502  34.2636752
  24.0572548  35.7231426  10.5850410  24.2524219  36.3448358   9.8838723
  24.7395015  35.8772111  11.2385190  36.5518236  27.5530100  24.8042512
  36.7573357  27.0353580  25.5827332  36.7324877  28.4566998  25.0629687
  68.6505461  12.0934212  21.5896249  69.2741013  11.5307677  22.0487928
  67.7913904  11.7675853  21.8577933  32.3537493  19.3503881   8.1639624
  31.5906978  19.7940969   8.5342407  32.0940781  18.4305537   8.1119353
  34.0025425   7.3532760  54.3543005  34.9568558   7.3263127  54.2850971
  33.7370420   8.0371726  53.7394619  37.5665045  33.0343819  37.1747017
  38.4381032  33.4299350  37.1839643  37.3749280  32.8986549  36.2467432
  46.1377954  24.4114327  36.6975260  46.1071634  23.5446572  36.2925649
  46.3087606  25.0097179  35.9701633   1.4820522   9.0684754  21.5575576
   0.6220192   8.9091080  21.1687279   2.0846027   9.0699750  20.8138108
  29.7829155  74.0930164  40.5587626  29.9238590  73.6204367  39.7383738
  28.9392046  73.7726985  40.8777857  -0.0328390  53.2178423  63.3974318
   0.2031524  52.3511586  63.0666753   0.3760774  53.8279650  62.7836159
  57.9968691   8.2949740  15.9419978  57.8492451   8.4401572  15.0074601
  58.7767315   7.7411300  15.9780860  65.2441025  28.9112186  45.3626966
  65.4286432  29.8490500  45.4141855  64.9130154  28.7806964  44.4741154
  10.8632797  59.1776419  18.6008644   9.9725861  58.8852310  18.4074605
  11.4237160  58.4820843  18.2568598  74.4384861  13.8301873  10.0077260
  73.9780235  12.9968381   9.9090642  75.3328037  13.5832620  10.2432239
  65.4178381  24.7632337  28.4497452  64.7045374  25.3754854  28.6302471
  65.7308674  25.0100374  27.5794983  64.2786789  10.9972334  10.7896364
  64.0628338  11.8768239  11.0994136  64.2161608  10.4464233  11.5699780
  66.6823448  62.2060451  28.8801166  66.6773618  61.9047007  29.7886321
  66.9456114  61.4372859  28.3742234  32.8079438   5.9530932  50.5519152
  32.0019364   5.4471248  50.6547785  33.4050536   5.5877352  51.2047577
  57.1600819  23.8423419  32.1662164  56.3897657  23.4531951  32.5802302
  56.8073559  24.5337605  31.6060734  30.3606514  71.3155000  13.7092829
  29.9932293  70.6073519  13.1803584  29.7993902  71.3519528  14.4838083
  15.3134067  56.7309973  49.8075363  15.1497562  56.0803733  49.1247925
  14.8993500  56.3665948  50.5898377  77.8936100  39.5019579  16.6613376
  77.2491026  39.3697429  15.9660935  77.3708725  39.5978546  17.4574423
  66.4968654  21.8106999  13.0313853  67.2520062  22.3874141  13.1471375
  66.8384071  20.9323396  13.1989077  46.3840055  14.1529393  59.6646404
  47.1443987  14.0017653  59.1032267  45.6308270  13.9975667  59.0947151
  35.8421254  34.2262959   6.0771900  34.9527001  34.5654702   5.9766287
  36.2980652  34.5111752   5.2852345  65.7218456  15.2157831  38.7195516
  66.0259151  16.0949147  38.4939384  64.8007202  15.3332162  38.9518666
  39.6667600  16.4008749  42.0109463  39.7186112  15.9895015  42.8736830
  38.7846375  16.1963356  41.7006969  63.5240841   8.0853879  14.9996161
  62.9066849   7.3587328  15.0834203  63.3925819   8.6041456  15.7932353
  33.7648872  17.6542650  59.9698266  33.0219797  17.0520864  60.0110975
  34.5308117  17.0849787  59.8956558  48.7161970  58.9582443  15.6614339
  48.9273405  58.9470720  16.5949881  48.6426544  59.8874235  15.4436064
  13.0867346  53.7463650  61.3252899  12.2307308  54.0944156  61.5749976
  13.4583385  54.4146738  60.7495251  53.3844856   9.1378055  56.3004574
  52.9573492   9.8018204  56.8416300  52.6620821   8.6593853  55.8936664
  54.4304371  31.4564347  22.6762915  53.5088110  31.5655088  22.9106736
  54.6438599  32.2415280  22.1719956  62.4001122  37.1737790  60.6392622
  63.0905008  37.0395803  59.9899673  62.2750807  38.1224728  60.6633282
  22.3290066  68.7049996  12.5473654  22.6557449  69.3226289  13.2015884
  22.8330282  67.9056584  12.6998413  30.4643921  56.7380368  34.1881847
  31.3781170  56.6813015  34.4676876  30.2452997  55.8506261  33.9040518
  72.2184801   2.0447378  44.7787237  72.8286982   2.6805168  44.4050217
  72.6908922   1.6666916  45.5204391  47.5252485   8.6838210  21.6500115
  46.7903852   8.3621311  22.1722388  48.2458878   8.0894613  21.8589425
  77.9303265   1.5405798  33.3985353  77.9992962   2.2320518  34.0568233
  78.6069584   0.9090890  33.6426997  62.5554756  66.1450415  35.8874083
  62.6924995  66.7707246  35.1760888  62.4457554  66.6891908  36.6672134
  11.9391210  38.9811480  57.9715761  12.7472456  38.7306507  57.5238910
  11.7180975  38.2211791  58.5099307  77.8528214   6.5535384  61.9933128
  77.1619797   7.1328765  61.6718578  78.4266806   6.4232260  61.2383699
  59.1841555  21.9918346  10.3745329  59.1498518  21.0382128  10.2992892
  58.6403322  22.1916890  11.1364663  47.5179546  73.9969834  65.2671493
  47.1341341  73.2638320  64.7861027  47.0845954  74.7716316  64.9088853
  59.8870277   5.0145829  50.0338221  60.7903528   5.2697921  50.2211905
  59.7861719   5.1634920  49.0936708   4.0752071  26.1134887  36.7152667
   5.0138706  25.9262180  36.7074609   4.0211147  27.0682931  36.6745782
  60.8286027  43.2421946  44.6669102  60.9289006  42.3688649  44.2881441
  61.3679347  43.2237720  45.4574871  32.0707655  41.3794947  41.5014982
  31.4977455  40.8938980  42.0948553  32.6024175  41.9284964  42.0778465
  36.9881225  16.2469590   7.6606679  36.1500168  15.9146833   7.9822332
  36.7959094  17.1374583   7.3669034  33.6724047  63.1003093  26.4135265
  33.2108358  63.6951577  25.8224773  33.1918386  62.2752201  26.3463116
  23.0695319  24.8702431  20.4974174  23.9223957  25.2750826  20.6554031
  23.1690145  23.9716578  20.8118749  20.2917147  28.8193870  36.2692070
  20.3836751  28.7864780  35.3170013  20.3365898  29.7515321  36.4820933
  45.1074409  35.5708814   0.2767908  45.0646448  36.3965487  -0.2055714
  45.9619331  35.5892801   0.7077643  19.6347002  73.4981138  36.3076639
  19.5987514  73.5321227  35.3517437  20.5536655  73.3187345  36.5065575
  50.1860622  68.0090796  17.9782426  49.8960403  68.4199749  17.1638191
  50.2058081  67.0727729  17.7803230   1.0968168  52.8674993  50.8201846
   1.2492616  51.9756112  50.5078932   1.8942030  53.0931005  51.2992546
  51.3290548  51.2768126  19.9514890  51.7193127  51.0758686  19.1008711
  50.7511234  52.0203829  19.7802079  41.8289570  71.3228180  17.6184666
  40.9749321  71.1433439  17.2251999  42.4498562  70.8388661  17.0739377
  61.9972277  61.4531755  17.4205220  62.4036169  60.6014585  17.5806987
  61.3596106  61.5511084  18.1276906  36.7423606  11.5174687  40.3904629
  36.0530901  12.1802485  40.3473139  37.5343895  11.9770992  40.1117849
  27.5767811  69.4297418  62.4925351  27.1036155  69.2596445  63.3070357
  27.0076568  70.0250563  62.0047614  10.3290395  61.7689263  21.3257027
  11.1547307  61.4528893  21.6925621   9.6616463  61.4645266  21.9406509
   0.0960297  30.6406283  25.9396601  -0.1837498  29.7602153  25.6890035
   1.0375351  30.6508970  25.7673430   3.9885525  68.1901645   3.7113065
   3.4152297  67.4283998   3.7964353   4.7832230  67.9460596   4.1857973
   0.1870674  39.4632387  63.1178474   0.0657648  39.2724228  62.1877384
   0.5393356  40.3530836  63.1358385  43.6369228  19.7902369  12.3266065
  44.2092085  19.9539065  11.5769827  43.9486885  20.3926539  13.0019796
  39.5391754  67.1667700  40.5286598  39.6729425  66.7672258  39.6691799
  40.3432611  66.9731968  41.0105324  57.0667648  27.1275973  20.2307796
  57.9696751  27.3157740  19.9746966  56.6952467  26.6675591  19.4780695
  59.3717241  38.4012532  30.8312178  60.2713728  38.1503272  30.6216931
  58.9745855  38.5992336  29.9830914   2.4913925  44.9121571   4.6436101
   1.8646473  44.2705488   4.9779269   2.0818943  45.2557421   3.8495731
  14.2564062   1.5296231  49.3876919  15.0103096   1.2834965  48.8517031
  14.4846205   1.2379680  50.2703509  70.7318258  41.8262720  32.5064063
  70.5001688  42.7028275  32.8133535  69.9033928  41.3467693  32.5035954
  34.7642092  22.4941383  47.3842689  35.4211811  22.9551349  46.8626341
  35.0934652  21.5974747  47.4460277  53.1580452  73.3956871  32.1867514
  52.2338919  73.1923819  32.0423722  53.5126594  72.6125141  32.6076031
   1.1011261  35.9954929  32.8650045   0.5019135  36.2392402  32.1594834
   0.7486671  35.1731324  33.2051945  18.2228474  71.6514276  44.8990107
  18.2257036  71.8811404  43.9697886  18.9288286  72.1754580  45.2774477
  62.0477390  61.9224215  37.9479599  61.1718225  61.8815327  37.5641203
  62.6234293  62.1233797  37.2101068   0.7597679  35.0070977  22.6176763
   1.0730595  34.3525362  23.2418799   0.8340591  35.8389330  23.0853963
  70.2820266  61.1189613  62.3097750  71.1289657  60.7912526  62.6123234
  70.4317154  62.0491037  62.1404743  55.4532862  50.3769588  29.6051216
  54.9635601  49.6938944  29.1470623  56.3713169  50.1315975  29.4900179
  16.5960259  22.5048876  13.5343003  17.4558395  22.0856476  13.4996593
  16.0835880  22.0563626  12.8616464  78.7974596  36.1559606  31.0438251
  78.4619427  35.2969170  31.3001490  78.7952995  36.1381197  30.0867939
  20.8704418  38.4831119  47.2751904  20.7160229  38.2787943  48.1974936
  19.9954075  38.6076856  46.9077158  58.9942837   8.5761458  25.2156568
  58.8856173   9.3616664  25.7517362  59.3490791   8.8987291  24.3872285
  55.1288414   4.0596226   5.2883536  55.4424429   3.9423978   4.3916130
  54.3111849   4.5482937   5.1941878  61.7664003  42.1302032  25.6205273
  60.9766674  41.5893316  25.6164265  62.3142529  41.7489481  26.3066244
  56.5595818  34.1209888  49.5625067  56.9131660  33.2508373  49.7470236
  57.3243237  34.6966267  49.5691872   2.0301479  47.6449633  56.9834757
   1.1290306  47.3224211  56.9696522   2.5002617  47.0681477  56.3813925
   7.3340839  66.1187840  30.7724786   6.7530960  65.3587627  30.8050323
   8.1421989  65.7859564  30.3820992   5.3729481  14.9394941  36.7519712
   5.5243439  14.3875825  35.9847021   5.7859272  14.4650948  37.4735117
  29.6187252  23.9655089  27.5687695  29.4882816  24.8169923  27.1514058
  29.0591473  23.3676100  27.0731640   7.5151676  44.9754715  24.1557884
   7.1661324  45.8658171  24.1969776   7.0278687  44.5598507  23.4444284
  12.2025055   5.4883409  23.6481118  12.9719013   6.0523462  23.5696697
  11.5603584   5.8750600  23.0528522  75.5369759   8.5444850   9.6580464
  75.5252171   8.3265293  10.5900276  74.6573544   8.8766158   9.4786304
  51.8644467   3.4515453  13.2350409  51.5392246   2.5744129  13.4377670
  52.8101292   3.3937861  13.3713424   5.3316540  30.5967116  20.5874586
   4.9944443  30.0377464  21.2875128   4.7095913  31.3226652  20.5399632
  77.8400135  21.9080544  23.5560226  77.6079702  22.0226145  22.6344681
  77.8489828  20.9595776  23.6846328  66.1879110  34.1783237  13.7495315
  65.9236860  34.8706865  13.1436849  66.7905807  33.6339045  13.2429445
  61.7878379  48.4201834  40.7327696  62.5406159  47.8786728  40.4954502
  61.3833631  47.9591915  41.4676997  29.2884445  21.0517979  45.5434513
  29.5052242  21.9832158  45.5022383  28.4831190  20.9704828  45.0324965
  61.0269649  44.8306135  57.1180615  61.6661842  44.4013253  57.6866963
  61.3766487  44.7150514  56.2345484   4.8000915  25.2916953  43.9909550
   4.3255241  24.5305118  43.6568638   5.7233913  25.0713835  43.8676068
   3.1235741  67.8762644  27.6283240   3.1380508  68.1499635  28.5454440
   3.6771534  67.0958059  27.6025176  66.1352543   1.5917407  42.1853992
  65.4600624   0.9431921  41.9860622  65.8185676   2.0326148  42.9737994
  11.5382713  11.0896432  25.3052330  11.6568607  11.6914821  26.0400510
  10.6224579  10.8174765  25.3639603  75.7592787  39.0028644  56.1847856
  76.3522400  38.4882672  55.6372252  75.1966680  38.3526054  56.6053387
  50.2202879   9.9252596  28.8053015  50.0130354   8.9908304  28.8165549
  50.2368342  10.1557484  27.8764132  76.7057323  31.2211776   9.8581010
  75.9428501  31.6156626  10.2807391  76.6786194  30.3021908  10.1244795
   9.0450329  51.9268084   2.4812093   9.3923229  51.5634727   3.2958287
   9.4213051  52.8055286   2.4312820  75.9206724  17.3773980  13.9957738
  76.0580730  18.1759751  13.4862363  74.9733067  17.3366845  14.1264415
   7.9055412  39.3286963  53.7066361   7.0345409  38.9527828  53.8342413
   8.3919246  38.6518407  53.2359680   0.0696796  45.2921486  41.8121815
  -0.1258045  45.1269627  40.8898306   0.9168095  44.8705912  41.9567013
   6.1090746  61.8225207  26.3313273   6.2651053  62.2999729  25.5165079
   5.9130802  60.9284391  26.0512617  69.7340298  29.6058035  37.7441955
  69.2029381  30.3453016  38.0396867  69.1040707  28.8984156  37.6064038
  44.4924545  28.8972473  23.1250525  44.3585443  28.0747485  22.6540995
  44.8538256  29.4929552  22.4687171  59.6462284  16.3409653  15.9240225
  60.2627217  16.9024172  15.4539851  59.8805176  15.4520455  15.6572512
  17.3113197  50.8215284  25.8409858  18.1410831  50.7401037  25.3707790
  17.5373882  50.6557369  26.7562103   7.5643105  53.1018591  40.2939081
   6.6146893  53.1955147  40.2185059   7.7362865  52.1946383  40.0417089
   6.9704921  48.8883254  53.1612524   7.8874357  49.0826497  52.9671356
   6.9914015  48.4693131  54.0216145  76.1697674  52.6188993   4.0982276
  76.6526794  52.6569796   4.9238062  76.3825178  53.4418678   3.6581248
  74.5359850  34.2049718   7.9806501  75.2408504  34.7809887   7.6846743
  73.9143038  34.1937613   7.2528988  68.1797171  53.4589052  12.5927436
  68.0896950  52.5713968  12.2456729  68.4508371  53.9841509  11.8398535
   8.3835262  27.2677016  13.7000966   7.9851574  26.4450383  13.4159136
   9.0794510  27.4294281  13.0631042  61.6387320  19.7459650  35.6779385
  62.2488499  19.0250432  35.8337069  62.1988058  20.4905605  35.4585528
  78.8465881  22.9495502   7.6690674  78.6571836  22.0187402   7.5509471
  78.8933992  23.0659032   8.6180156   3.9900440  55.4640245  15.5455506
   3.1373734  55.8989143  15.5531383   3.8630718  54.6786165  16.0777593
  62.9096317  27.3281169  26.1684561  62.3208427  28.0070400  26.4980292
  62.8110600  27.3667550  25.2171278  74.0488148  41.4134645  57.5781202
  74.1752005  40.5390120  57.9463482  73.7197924  41.2554693  56.6932392
  72.9549503  11.5932429  42.7231884  72.0227003  11.6784573  42.9228783
  72.9835892  11.0320342  41.9482994  50.2057791  12.4312699  21.3239646
  49.2797136  12.3076594  21.5321803  50.2658272  12.2546506  20.3851175
  43.8699478   9.9012136  24.2066312  43.0475468  10.3511775  24.4000602
  43.9110989   9.1914195  24.8475146  74.8889732  61.1700535  25.5237985
  75.6100368  61.1695862  26.1533213  75.1598454  61.7934370  24.8498178
  67.8753185  66.5935564  27.9024887  67.0867729  66.2749815  27.4632502
  67.5481510  67.1638536  28.5981560  66.8297485   6.8362795  49.0909359
  67.5021843   7.4890838  49.2856368  67.3136524   6.0955559  48.7257036
  13.0649976   4.0917955  55.5982920  13.3778290   3.4805284  56.2651625
  12.1224479   3.9320455  55.5502268  57.5412130  33.7219906  18.5050845
  57.4979496  33.3766103  17.6134157  58.0498362  34.5289087  18.4249651
  60.9039831  57.7694798  45.4497480  61.4317703  58.4003830  45.9392786
  60.0753784  57.7287817  45.9272337  78.1307364  30.7867789  54.4424868
  77.6348209  30.0483871  54.7961473  78.5990381  31.1441159  55.1969624
  36.0807171  73.1936206   0.2121094  35.5347576  73.5545339  -0.4863903
  35.7236900  72.3192133   0.3675869  55.6775045  37.7841496  32.1236300
  55.3362656  38.6485624  32.3529315  55.1670551  37.5205159  31.3580108
   1.4401764  46.0892963  14.9328923   1.3408608  45.6091452  15.7549763
   0.8299583  46.8228579  15.0087428   7.3775620  50.8097506  33.5787463
   7.8424210  51.0547304  32.7786636   7.0785755  51.6414833  33.9462495
  36.0206628  64.3342447  23.6320996  36.0297132  65.2572250  23.8855863
  35.1906943  64.2212200  23.1688404  13.3620491  59.6220459   2.0925883
  13.6245957  60.5262627   2.2649172  13.3839216  59.5439209   1.1388329
  21.2658638  10.1722836  23.3863544  20.7576603   9.3990809  23.1411719
  22.1581310   9.8456299  23.5020828  56.6795826  21.6901422   4.6556735
  57.4021292  21.3402343   4.1344029  57.1036816  22.0899320   5.4149759
  58.1084871  46.6323280   9.6233869  57.7282810  46.2959146   8.8119030
  59.0539742  46.5594053   9.4931483  63.4300947  30.2105713  30.6794953
  62.8245068  29.5059228  30.9096265  64.1107416  30.1703739  31.3513112
  64.8897886  29.2072344  16.3511765  64.9092627  28.5776281  15.6304491
  65.2587366  30.0083995  15.9793663  45.6612873  16.2099469  29.8456407
  45.8393002  15.2704275  29.8026848  46.2429523  16.5327072  30.5339170
  53.7320232  45.9791183  20.9192204  53.8833904  46.5126419  21.6993928
  54.5341682  45.4662418  20.8204579  55.1664925  46.2379837   5.0008279
  54.2768145  46.0047913   4.7356471  55.0622225  46.6362715   5.8649629
  59.5983934  21.8329167  16.0681975  58.9954901  22.5264215  15.8002615
  59.1668892  21.0225606  15.7973492  65.9544039  54.3515396  33.2892609
  65.4113197  55.1291370  33.4182596  65.9242153  53.8960505  34.1305995
  78.4410095  39.6139765  49.8696089  77.7419281  38.9715171  49.7481155
  78.3034992  40.2527380  49.1700983  77.7910042  22.6190424  27.5098872
  76.9007540  22.2735000  27.4443841  78.3475876  21.9092894  27.1894264
  62.8731155  41.0916424  31.1711979  62.7169847  40.5187654  31.9219732
  62.9276371  41.9700956  31.5474725   7.0907158  38.7391043  50.5511999
   6.3933414  39.2565036  50.9539366   7.7943176  39.3682647  50.3920078
  67.7773190   9.2602432   0.6799158  67.4704552  10.1074338   0.3569070
  67.3442125   8.6182553   0.1173323  46.3448334  53.8236332  38.8483524
  45.5954027  53.6334324  38.2840729  46.8952990  53.0429840  38.7866807
  49.6390486  25.2219701  23.5610676  49.0477324  25.3638864  22.8218532
  49.0709496  24.9111700  24.2659783  67.5148726  18.0841660  16.4504504
  67.8773832  17.5978351  17.1909237  68.2790279  18.3347321  15.9313011
  21.0275311  36.1147237   2.6619279  20.2934307  36.5423298   3.1029412
  20.9966034  36.4497185   1.7657945   3.6466640  38.2833290   7.2370064
   4.1097397  37.5548601   6.8233389   3.3464188  37.9313374   8.0749708
  61.0864115  37.8038096  20.2057910  60.1514387  37.5997686  20.1853156
  61.3351583  37.8800297  19.2846251   5.5660481  62.3106432  10.7369864
   6.2070126  62.8599977  10.2857637   5.3468365  61.6280985  10.1027036
  55.4837036  34.9891543  31.9949746  56.3194942  35.0846910  32.4516535
  55.0529289  35.8369637  32.1039820  72.5878624   6.7497955  53.0946800
  72.1138386   5.9324680  53.2479927  73.0679230   6.9044815  53.9082190
  12.9571861  44.3126249  40.5879736  13.3806747  44.1099310  41.4221287
  12.7863831  45.2535868  40.6284904  55.5230331  64.6750832  47.4500942
  55.2095318  64.4870663  48.3347368  54.7262812  64.8138618  46.9380808
  18.5092110  18.7030721  40.7274437  19.1179127  18.4544110  41.4230585
  17.6440186  18.6382031  41.1317635  37.3251671   4.4017950  49.0916538
  36.8997139   4.3104768  49.9442291  38.2617420   4.3909007  49.2889595
  70.1816988  29.1634798   5.3357738  70.3311443  28.2954931   4.9609438
  69.4845200  29.0302467   5.9779763  76.6114616  25.7347226  57.4023676
  76.9985962  24.9617648  57.8133345  77.1733618  25.9116149  56.6479063
  64.4575453  21.5252852  43.5827446  64.8708344  22.3699808  43.7614012
  63.9155531  21.6825795  42.8096104  62.7727127  27.1487951  60.1438141
  63.4727287  27.0691609  60.7917881  62.2414303  26.3622046  60.2672863
  53.3473396  23.7282848  21.9926524  53.0920172  24.4614434  21.4327264
  54.2953205  23.6593032  21.8795013  75.3523966  66.4248385   2.3712233
  75.4686257  66.7817940   1.4907053  75.4043575  67.1873178   2.9475573
  61.7363739  15.3716946  12.4585128  62.4603033  14.8645246  12.0911729
  60.9530210  14.9978614  12.0549810  79.6861696  32.3435283  62.1369743
  78.7722397  32.6214671  62.1979475  80.1845837  33.0797768  62.4915886
  28.5110035   4.4118525  14.7422194  28.8190594   3.5238243  14.9231696
  28.0504837   4.3399120  13.9061725  69.7922182  44.3452597  33.1780386
  69.0974808  44.3978167  33.8343954  69.3611383  44.5727634  32.3542404
  46.5780583   3.1195808  10.2955806  47.2247257   3.6358906   9.8144662
  45.7357063   3.3901287   9.9302304  59.9317598  18.3434021  42.6891375
  59.6245718  17.6440752  42.1122408  60.7249451  17.9903424  43.0921698
  77.7478279  70.4159674  46.2051436  78.5624708  70.3536424  46.7038485
  77.6695408  69.5683441  45.7673797  29.8071808  20.8018017   9.2161071
  29.2350430  20.4234862   8.5484499  29.2944759  20.7586861  10.0232697
  29.7485685  28.4918833  22.5138545  30.3584647  29.1445279  22.8578210
  30.0859046  27.6558375  22.8355122  77.4708223  53.5992336  23.7898588
  76.9343138  53.2804728  24.5156574  76.9463062  53.4228992  23.0088210
  65.9443092  45.8299923  35.1067019  66.4896059  45.0573874  34.9584746
  66.0879612  46.3763666  34.3339992  63.7587929   9.8494482  47.4491644
  63.4473896  10.2990222  46.6635799  64.6798992  10.1001728  47.5193644
  69.6854687  31.4496064  21.4258456  69.4544268  31.9508910  20.6438160
  68.9198399  31.5273809  21.9950533  20.9203434  29.7609496  13.4370434
  21.7323184  29.5559764  12.9734540  20.6285214  28.9211607  13.7917638
  53.7329006  22.7689624  36.1235237  52.8737926  22.9600453  35.7471561
  53.5506248  22.1610761  36.8401027   3.2903427  48.5973549   6.8558335
   2.9836124  49.3454790   6.3435239   4.0408272  48.9339018   7.3454642
  33.3868694   4.4419464  26.7958760  32.9253602   4.7811562  26.0289478
  33.8974881   5.1854354  27.1163821  10.6896773   0.6429173  16.1261010
   9.8407688   0.2108265  16.2203670  11.2640276   0.1778151  16.7344022
  58.1517792   4.5649314  47.2265339  57.5134993   4.2082888  47.8442955
  58.2439137   3.8856539  46.5584564   3.7890966  68.9833746  63.7763150
   4.1605766  69.2450032  64.6188024   4.5446260  68.7104783  63.2558001
  44.2106680   1.7626034  60.1832256  44.8913196   2.4303137  60.2675482
  43.3982233   2.2595583  60.0873056  59.4943571  17.6589704  19.2870319
  58.6483526  18.1060779  19.3116283  59.9421215  18.0351424  18.5292506
  68.6479998  30.4129744   1.7717606  69.5313454  30.7681060   1.8708128
  68.7719536  29.5918846   1.2956513  26.5131000   7.0344005  42.2699424
  25.8409933   6.3532768  42.2461149  27.1315674   6.7847286  41.5833589
  54.3377113  51.5874958  21.8318367  54.6525431  52.4869967  21.7423677
  55.1083565  51.0901165  22.1056104  31.5288118  68.5858988  14.8340046
  31.6092018  69.5186244  14.6345246  32.2289614  68.4144472  15.4637885
  45.4981470  15.4472744  16.9132030  45.7080889  14.6066368  16.5064037
  45.1983595  15.2192855  17.7931917   7.2145222  24.1952501  60.6900388
   7.3689030  23.2840715  60.4407403   6.4995716  24.4812809  60.1214734
  35.9603825  29.8894096  15.6439710  36.0278263  29.8898006  16.5987921
  36.1256161  30.7978989  15.3918207  75.0609446  44.3761539  14.9718308
  75.3692102  43.5831547  15.4104185  75.7525396  44.5872164  14.3446290
   7.0699543  53.3714390  34.5202994   6.7880386  54.1812801  34.0949607
   8.0094379  53.3225918  34.3436003  60.7906389  45.1647902  31.8578672
  60.2764177  44.4016314  32.1213078  61.4675760  45.2411938  32.5302911
   8.6506500   1.0999037  13.8040411   8.0905810   1.3741852  13.0778730
   9.5255366   1.4009024  13.5586715  17.7159065   7.8680366  30.0054932
  18.0777020   8.4878296  29.3720913  17.5189251   7.0860791  29.4897699
  10.9433788  41.6863394  12.5609112  10.6808895  41.2275314  11.7629004
  11.6688675  41.1672735  12.9079950  77.9813671  47.5945187  16.1650145
  78.0516768  47.8629971  17.0810962  78.5025501  48.2387877  15.6859326
  58.3498526  49.2203093  17.7775979  58.5083199  49.5789814  18.6507964
  57.4040699  49.3003416  17.6538134  54.5008659  54.7884989  46.3041067
  55.0526857  54.5997667  45.5450869  54.7761869  54.1525793  46.9644403
   1.7209667  59.0470886   3.2069790   0.7806725  59.1617584   3.3445826
   1.9644207  58.3346987   3.7981340  18.9922184  30.5460858  29.9948311
  18.0808682  30.7532454  29.7880411  19.1257042  29.6686935  29.6362305
  63.1114817  65.6656265  29.9184394  63.0544662  66.5432787  29.5406771
  63.2625151  65.0911427  29.1678452  53.8538790  51.3201952  44.8218012
  54.3530607  51.5799999  45.5961084  54.2748785  50.5134058  44.5250082
  13.3156723  54.2112160  41.0951710  12.5326675  54.3909883  40.5747747
  13.1529659  54.6477604  41.9313478   3.2470364  39.4272900  45.7473803
   3.4473557  38.6418247  46.2564468   2.4344009  39.7592616  46.1290216
  25.4437454  74.6898374  49.6304437  25.7530267  75.5858288  49.4971224
  26.2376363  74.1870127  49.8124870  59.0996408  67.9799509  35.9550881
  59.5359802  68.7509918  35.5926800  59.7083378  67.6484442  36.6152573
  49.6182585  48.9370108   1.7600815  49.4869089  48.0230761   2.0124698
  50.5526590  49.0918064   1.8985304   1.4981407  56.8952942  32.3487306
   2.0267242  57.4045658  32.9631186   1.8996948  57.0580292  31.4952087
  10.1929369   1.8365885  51.0226679  10.4541483   1.5322567  50.1535416
   9.4293633   1.3033510  51.2436819  75.7023665  10.0685383  57.5908518
  76.2660738   9.3413425  57.3269367  74.8284432   9.6832539  57.6544857
   1.9379086  31.8917513  41.0869360   1.5923256  31.4774585  40.2962589
   1.3483566  31.6054583  41.7845726  19.2227406  46.8512917  20.2833915
  18.7003845  47.4255657  19.7234035  19.6541256  46.2512445  19.6750450
   5.5573601  26.5096688  10.1058972   6.3529629  27.0341563  10.0156057
   5.0438065  26.9662809  10.7722366  18.0513901  62.0820332   5.3220654
  18.3769077  62.1465158   4.4242266  18.1252712  62.9714441   5.6680757
  75.0590328  29.6641622  57.5706062  75.6725220  29.2283951  56.9790318
  74.9294666  29.0393196  58.2840594  30.3989357  41.4984131  34.9240255
  30.3107018  41.3528252  33.9820862  30.7660717  40.6805229  35.2594399
  44.8463106  62.3746824  39.9176598  45.3576183  61.6435146  39.5709729
  45.0872374  62.4179506  40.8430290  53.8674927  55.7595110  26.5166521
  52.9418612  55.8565283  26.7403221  54.3330288  56.2024403  27.2261024
  10.9218639  25.7909536  13.7836266  10.1421398  25.4471445  14.2195725
  11.5881676  25.8173990  14.4703364  79.1532135  74.0552187  14.8374975
  79.7351170  74.0804577  15.5970907  78.3062792  74.3470430  15.1747930
  31.0822910  63.1188059  20.5714655  30.3475613  62.6382446  20.1900649
  30.7358116  63.4769869  21.3887143   5.9411472  46.3846540   8.6080873
   5.2468914  46.3738060   7.9492033   5.7235950  47.1260738   9.1730648
  55.9956173  28.0103384  58.7718919  56.1877445  27.3086391  59.3939313
  56.7321781  27.9969393  58.1607172   0.5421837  74.4113240  58.1786308
   0.5909260  73.4554586  58.1652757   1.3217457  74.6975717  57.7026263
  61.9353342  37.9170966  29.9117279  62.4398041  37.1479487  30.1765895
  62.5616598  38.6398196  29.9519515  75.3866529  44.9935484  46.1071634
  75.8753347  44.7687149  46.8989182  75.8423185  45.7573175  45.7532501
   2.0114082  62.9692316  36.3797212   2.7196449  63.5960102  36.5272737
   1.2911266  63.2895088  36.9227290  51.5734673  18.7742770  29.4179177
  51.4316416  19.0221775  30.3315187  51.0147047  18.0079961  29.2881656
  36.9951763   2.0543552  13.4085488  36.7635479   2.9826666  13.3799255
  37.6789131   1.9985796  14.0760994  52.3031954  52.6868915  31.5832019
  52.0352177  52.1976589  30.8053374  51.8148426  53.5083913  31.5294933
  59.5029688  23.0267978  30.7377505  58.8277388  23.1434584  31.4060926
  59.3782282  22.1307373  30.4251027  10.5769867  52.6532412  15.1982474
  10.1100105  52.0738029  15.8002603   9.9482769  53.3463430  14.9968517
   8.1385068   1.1458431  60.5361327   7.3285965   1.2288104  60.0327524
   8.7930445   1.6109930  60.0151273   0.0858397  30.8162832   3.9217162
   0.9833282  30.7811666   3.5907912  -0.1321512  31.7483258   3.9243883
  40.3496981  13.7999177  36.3302064  39.7866488  13.3982313  35.6684995
  39.7411585  14.1908348  36.9571781  60.0968409  57.5934982  15.9054685
  59.9022102  57.2112942  15.0497401  60.1240349  56.8450069  16.5015018
  66.5696621  36.9066095  16.4411557  65.6907558  37.2584724  16.2999177
  67.0134449  37.5737572  16.9647968  23.9650196  35.3402710  28.2106924
  24.2960209  34.6035051  27.6970291  23.7194008  35.9960580  27.5581264
  75.8014215  74.1295943  49.5618126  75.4664434  75.0160060  49.6970686
  76.3728298  73.9722023  50.3134486  59.5562315  44.4327879  25.4754114
  60.3966045  44.0175772  25.2815032  58.9044952  43.7639380  25.2653623
  68.1114101  12.9840207  34.2616081  67.7489042  12.2666967  33.7417388
  67.5445938  13.0321538  35.0314355  23.5182900  60.9709072  24.1234446
  23.3730835  60.4765844  23.3167291  22.8638310  61.6689444  24.0977073
  66.3755131  26.2403607  24.0408373  66.0034132  26.9502139  23.5174966
  66.9880533  25.8026624  23.4497023  71.1302567  31.9504094   6.6504908
  71.3446760  31.6538072   7.5349587  70.9779358  31.1440134   6.1577892
  26.4132490   8.5111500  33.8165164  25.8386078   7.9594112  33.2858467
  27.2428265   8.5218311  33.3391142  57.6930857  56.9998932   5.1018578
  58.5051203  56.4975357   5.1687080  57.4748135  57.2238207   6.0065365
   9.5626205  54.4196892  41.8495321   9.2210907  54.3398952  40.9589005
  10.2443356  55.0885773  41.7856026   9.2965263  58.2894468  15.2779710
  10.1956982  58.6171246  15.2594435   9.0571255  58.2991219  16.2047005
  25.1413197  38.7791657  22.2205329  24.9315208  38.0916262  21.5884662
  24.9483913  39.5954537  21.7593598   0.8982033  38.2849360  56.3771391
   0.3018803  38.8481188  55.8837271   1.2383122  38.8475251  57.0728779
   1.3348717  52.3226881  29.7100854   1.6556591  52.1657848  30.5981755
   0.3815598  52.3229647  29.7963357  71.0395241  20.2715254  37.4617577
  71.0655832  21.0871172  37.9621172  71.5531540  19.6543491  37.9828238
  60.2930450  34.8405194  26.1067224  59.7189188  35.5960178  25.9808755
  59.6971893  34.1159320  26.2968802   8.2210011  73.4954691  51.7232132
   9.0191692  74.0082073  51.8507338   7.7449745  73.5839939  52.5489235
  59.8077345  56.5713453  24.6338248  60.3837442  56.1559868  23.9920163
  59.1700554  57.0530558  24.1069865  73.4965658  47.4358511  51.1041594
  72.9267025  48.2021475  51.1695480  72.9695702  46.7152882  51.4495516
  14.8736042  44.4913149  16.8859470  14.0037293  44.3964911  17.2739601
  14.7586960  44.2275238  15.9730172  14.3538803  36.0480809  29.7286034
  14.4558662  36.4156723  28.8507032  13.4353489  36.2038898  29.9482799
  63.7921333  36.3478208  48.1142330  64.5221806  36.9661999  48.0848169
  63.9122820  35.8743858  48.9374304  41.0825729  64.1402197  25.3879023
  40.7980013  64.7624397  24.7185063  40.3330040  64.0641212  25.9783149
  12.5841274   2.1984268  35.3777289  12.4102345   2.4451424  34.4693661
  12.1191635   1.3698746  35.4940891  64.1177177  58.8653374   1.6423827
  64.5311546  59.0591908   0.8011211  64.5093250  59.4912338   2.2515868
  56.5220881  68.9081669  27.9261851  57.4563074  68.8850117  28.1333828
  56.4901686  69.0057421  26.9745064  22.6764431   5.5071426   4.6473494
  22.3288670   5.6803776   5.5222291  21.9582167   5.7312275   4.0555945
  63.1948090  56.2544680   1.6721715  63.8318253  56.0324192   2.3512441
  63.3824015  57.1681976   1.4573696   8.7823051  50.4805994  30.6676388
   9.2588181  49.8458338  31.2026501   8.4477657  49.9694967  29.9306941
  42.6617813  48.6942911  10.9384906  41.7305183  48.8921785  11.0376060
  42.8339577  48.8138151  10.0045204  32.8871142  24.7458544   2.1271590
  33.8405882  24.6874800   2.0662430  32.7229868  25.6178751   2.4861458
  65.1312245  69.9337110  61.9693038  65.2654327  69.1161761  62.4487367
  64.1898812  69.9589286  61.7976305  47.1410889  65.4475832   7.0405829
  46.5252060  65.5553341   7.7653652  47.6754898  66.2414646   7.0603508
  11.3426359  56.8367109  56.2267968  11.4115436  57.7335677  56.5541044
  10.4762037  56.5443835  56.5097806   5.8510536  51.4588451   1.0609620
   5.2113289  51.4142609   1.7715900   6.4439625  50.7257605   1.2261059
  73.3232546  64.2791891   2.1773964  74.2060375  64.6125126   2.3380773
  72.8260183  65.0457621   1.8921721  12.8046173  63.8333941  19.7433078
  12.6679939  62.9620934  19.3712854  12.6359600  63.7234116  20.6790900
  22.3825115  53.7886763   0.5574381  22.6631779  54.6946716   0.4284751
  21.4317268  53.8438177   0.6533568  22.5582209  13.4917046   6.3603061
  21.6487112  13.2123447   6.4651054  22.5889721  13.8850952   5.4882216
  79.7920513  55.2160406  10.7483053  79.0416002  55.3186798  11.3335550
  80.2726460  56.0399723  10.8283234  69.4851589  50.5593920  23.2933402
  68.7207985  50.9891844  23.6770940  70.2001143  51.1827374  23.4218526
  74.4885254  66.5863609  16.6925335  75.4384995  66.5379333  16.5855742
  74.3387651  67.4269104  17.1252930  68.9211035  65.8874464  13.5217631
  69.0749931  65.7556534  14.4572735  69.7916031  66.0432625  13.1554532
  52.3501778  56.3551188  53.1540012  51.5714025  55.8245564  53.3220625
  53.0063820  56.0170507  53.7633801  49.9976483  10.1740910  17.5080717
  49.2260399   9.8623634  17.9810143  49.9359074  11.1283089  17.5515258
   1.4540714  53.3271313   2.1747844   1.5462441  54.0020275   1.5022871
   0.5839008  52.9573965   2.0253700  12.0739726   1.8171106  62.5395837
  12.8434280   2.2428284  62.1615174  11.4750079   1.7055474  61.8013248
  19.7248596  66.3015985  43.2333231  20.6526226  66.5007639  43.1075668
  19.5237583  65.6581736  42.5537634  59.6602392  60.7583427  24.9911618
  59.5772362  61.6136885  25.4127407  59.8978233  60.1629925  25.7020378
  53.4486008  70.9616804  33.5516310  54.2731810  70.4759741  33.5318947
  52.7721882  70.2883005  33.4790850   3.8529533  14.0063846  16.3988173
   4.6768040  14.3595695  16.7346191   3.4237141  14.7540152  15.9828424
  58.0336285  23.9387393  14.9765778  57.3704481  24.6074343  15.1476550
  58.8571644  24.4244289  14.9304855  51.7033052  51.2321091  28.0854392
  51.5079546  50.6628227  28.8297415  51.9127655  50.6297255  27.3716545
  78.9321995  36.1785436  25.8399773  78.3281279  35.4572225  25.6638432
  78.8386345  36.7591453  25.0847435  22.0845074  66.9382143  26.3473868
  21.8660397  66.3130045  25.6562924  21.7972607  67.7844238  26.0043907
  75.9026051  39.1670513  31.2523842  75.2962351  39.7944808  30.8588362
  76.7119741  39.6624756  31.3777256   8.6097855  46.5945244  17.2306788
   9.0276188  46.8404913  16.4053583   7.6730770  46.7039394  17.0668530
  37.6162285  27.4956465  22.2901893  37.0435089  27.6160383  23.0476356
  37.2102398  28.0170059  21.5976667  67.3640203  36.0175538  19.5335340
  66.4597845  35.8687353  19.2570579  67.6756716  36.7214274  18.9646149
  70.4716730  45.8546066  53.8314915  69.7212505  45.3110933  53.5913038
  70.0847149  46.6713953  54.1466856  78.1775045  73.4901714  17.8968811
  77.6925755  73.4721947  17.0718038  78.6196232  72.6419830  17.9333806
  62.9299688  16.4891911  31.5705037  63.5029745  16.3464177  32.3238373
  63.5153484  16.7997849  30.8797836  77.4154806  47.1959543   1.0921523
  78.0317593  47.6786327   1.6430147  76.9039249  46.6712856   1.7080000
   8.6967606  13.7226665  40.3324509   8.9403099  12.8305292  40.5794477
   7.9729694  13.9442599  40.9183311  52.7119497  26.5363966  42.3058697
  52.8069357  27.4811683  42.4267885  53.3687500  26.1532865  42.8873035
  26.6277164  66.9304466  35.3887033  25.7842392  67.3471451  35.5651593
  27.1406025  67.6061773  34.9453425   5.1864380  54.6560097  48.8188076
   4.3388886  54.2280197  48.6975002   5.8238071  54.0233946  48.4874773
  31.9467787   4.8664032  58.7924966  32.1552662   5.2245699  57.9296621
  32.0731453   3.9224134  58.6968854  76.8185564   4.7298695  11.5371263
  76.6296002   4.9398685  12.4516892  77.6883408   4.3307663  11.5577972
  45.7360081  25.8531366  60.1411387  45.9387735  25.7783018  59.2086586
  44.8082928  25.6257902  60.2035180  59.6614027  42.6180744  11.5769136
  60.0603580  43.3829594  11.9916701  58.7283564  42.6974392  11.7752910
  62.6743130  23.8990055  42.8017160  63.1519417  23.7226234  41.9911644
  62.8169731  24.8311840  42.9657814  76.5178871  31.3136220  44.6302032
  75.8465862  31.6803074  45.2056408  77.2881413  31.2191415  45.1905680
  68.5060409   4.8039089  29.0133497  69.1147331   5.3084551  29.5529482
  68.6141399   3.9006506  29.3111250   1.8738216  69.3514729  39.5498180
   2.2798771  69.7981215  38.8069487   2.2103352  68.4565306  39.5042896
   0.4339359   0.8507739  61.3730830   0.1249359   0.8600078  62.2789892
   0.1093719   0.0233589  61.0177347   6.5673870  30.5116820  23.9921951
   6.9686646  30.7226944  24.8352146   6.4594120  29.5607519  24.0096593
  75.6459141  57.5221729  16.2275946  74.9864340  57.1697426  15.6300056
  75.1862621  58.2054615  16.7155170  28.8606491   4.5998884  17.4091220
  29.6532192   4.0634562  17.4265635  28.6264649   4.6511341  16.4824283
  68.4069964   1.1379267  40.7203388  69.1571756   0.9823681  41.2941599
  67.6720520   1.2735821  41.3184071  65.3683380   4.1464029  65.0650383
  64.5753673   4.6053062  65.3422323  65.0680927   3.5332619  64.3941159
  79.9852848  39.5206618  25.8400393  79.5114136  39.8625684  26.5981817
  79.3052149  39.1402817  25.2841139  21.5419621  43.5464621   9.3131500
  21.0364574  43.3969116   8.5141927  20.8832115  43.6132383  10.0043952
  76.5659857  23.6355901  36.8869209  76.4201880  24.5600677  37.0877099
  77.4599075  23.4642339  37.1831846  59.3427849  46.4155245  48.0499220
  58.9606762  46.4245129  47.1723461  59.3834639  45.4882669  48.2839584
  29.2379891  28.0753603   3.6520508  29.0487086  28.8578358   3.1342343
  28.9376293  28.2935610   4.5343235  42.9536963  24.6430516  33.0659270
  43.7932777  24.4478631  32.6497126  43.1872368  25.1038980  33.8717246
  59.6807241  74.6726084  43.3355188  58.8503313  74.4255400  43.7424994
  59.4279909  75.1861572  42.5683022  69.0233898  28.0237103   0.4744470
  68.2218647  27.5372195   0.6671052  69.7051096  27.3533869   0.4279914
  37.2503189   7.8220545  50.1530835  36.9514898   8.7308822  50.1220760
  37.4236730   7.5956188  49.2393514  76.8893671  54.3901491   2.4503480
  76.9304037  55.3410196   2.3483619  76.1205006  54.1279268   1.9440743
  54.4684935  14.2190754  55.1357460  55.3513479  14.4949067  54.8893452
  54.4846487  13.2653069  55.0563908  22.1728939  67.5044680  16.3317192
  22.8605980  67.9779005  15.8635771  21.7917484  66.9231653  15.6736600
  39.4623223  17.5353695  31.3040423  40.0811043  17.9902054  30.7326579
  40.0137177  17.0844055  31.9434357  71.5161848  32.8945947  62.5565004
  72.4083281  32.5776911  62.6975250  71.5859318  33.8465142  62.6287174
  61.8247128  55.0019073  23.3103132  62.4349070  54.2662191  23.3618283
  61.1690235  54.7248793  22.6703453  71.9281816  34.4628286  12.3589873
  72.3073006  35.1271558  12.9344642  71.7695904  33.7122893  12.9315007
  51.8059584   8.0135990  49.3421602  51.6941830   8.3220554  48.4429407
  52.7237626   7.7463032  49.3913412  28.5015018  66.8354592  60.4339024
  28.0331333  66.2074027  59.8839876  28.2985504  66.5671978  61.3300475
   7.6776547  30.6805420  26.6344333   8.6096233  30.4651785  26.5987778
   7.6556057  31.6173625  26.8296576   1.5402399  19.2447891  24.6217039
   1.3516771  20.0139799  25.1593092   1.5209471  19.5708599  23.7219599
  44.5399708  61.3505316  35.7950330  43.8794369  60.6592607  35.7495499
  45.3512806  60.8925056  36.0146189  36.3909664   6.4924789  17.8620315
  36.4954224   7.1080280  17.1364760  35.6419411   5.9517551  17.6114428
  56.0456696   2.1554256  31.2095571  55.2985516   2.1302343  31.8073940
  55.6641331   2.3699642  30.3583026  41.6194477  26.0151268   5.0888932
  42.1545544  25.2476479   5.2910465  42.2501125  26.6820599   4.8174313
  76.7795801  55.4812670  38.2908416  75.8941221  55.8401108  38.2322979
  76.8468761  55.1548147  39.1881323  46.7772484  47.5483608  44.4356108
  46.7501259  46.8523693  45.0921822  45.9690809  48.0417013  44.5760012
  78.8205143   9.8117233  26.0291076  78.9055630  10.7535244  26.1775041
  77.9545303   9.7086693  25.6345415  21.8485394  44.6931244  14.0092397
  21.5454855  43.9927841  13.4313858  21.6932144  45.4969288  13.5132575
  56.1137915  17.2256279  43.0182552  56.5331411  17.8548050  42.4313021
  55.2179337  17.5486076  43.1150150  13.2676401  20.7970501   9.8061329
  13.2584467  21.7526413   9.7512829  13.6054697  20.5116535   8.9572215
  59.6397594  20.9024893  61.1718958  59.3643097  21.5761362  61.7936307
  59.0280823  20.9870754  60.4405075  13.5998196  55.8602571  23.8853407
  12.6586384  55.9647894  24.0249276  13.6767429  55.0663567  23.3561516
  11.6008514  71.1086416  39.3500900  11.2307209  70.3726292  39.8374486
  11.6088718  70.8132410  38.4396482  79.6202612  39.0824795  33.8062382
  78.9312458  38.4712720  33.5456347  80.4034710  38.5386992  33.8905764
  39.6119738  68.3691788  45.3466702  40.2039289  68.8580847  44.7750139
  39.1096997  69.0434074  45.8042383  60.8560085  21.2032604  13.2509339
  60.7664204  21.6708350  14.0813434  61.7938805  21.2293649  13.0613327
  71.1878157   4.2121896  19.6700799  72.0798016   4.3484375  19.3506682
  71.0362339   4.9387932  20.2744842  24.2016415  70.8179851  43.7658978
  24.7658543  71.2390574  44.4144297  24.7264675  70.8029639  42.9655457
  10.6908025  37.8086668  46.6529998  11.3520790  38.0601105  46.0082349
  11.1862768  37.6581347  47.4580321  71.3790477  19.9354431  43.3035609
  71.5898813  19.2915294  43.9796921  71.6959203  20.7665667  43.6571929
  78.6818933  15.0173795   9.4582480  78.1124163  15.7432103   9.7133839
  79.0641403  15.2941549   8.6254716  41.3845062   5.4503447  40.1948071
  41.8348503   4.9786738  39.4941282  40.5932617   5.7954055  39.7811699
  52.2825193  17.0543206  14.3416512  51.4126158  17.1980393  13.9690280
  52.6567745  17.9316878  14.4215894  15.2808050  63.4309696  12.6830721
  14.7852901  62.8516542  12.1042025  16.1967567  63.2049440  12.5212646
  71.6092157   5.4487699  37.6449442  72.1432114   6.2431771  37.6450610
  70.8070517   5.6994510  37.1867728  69.2368507  14.7875714  21.8947816
  69.0831041  13.8511443  21.7694926  68.4450054  15.2073741  21.5586591
  31.2581257  65.0589262  17.7406585  30.9874157  65.5585968  18.5109031
  32.2039179  65.1959645  17.6865172  53.5039234  16.4201307   5.8866709
  52.5687885  16.5116417   5.7039511  53.5437870  15.8392680   6.6464341
  19.2864187   2.0629391  57.1164438  18.8482292   1.2592444  56.8366334
  20.0171097   2.1622834  56.5061566  31.5677476  16.8468201  37.4631763
  30.9640861  16.2571669  37.9149842  31.2687135  17.7243376  37.7014494
  27.9682739  33.1420988  50.9463677  27.9329212  33.7756262  51.6630444
  28.8943489  33.1020064  50.7075974   3.3266143  75.4934603  13.0033565
   4.1655711  75.5732815  13.4572399   3.1163434  74.5608534  13.0509222
  70.1510286   2.4341953   6.0809195  70.1406384   1.9027349   6.8769556
  70.4891348   1.8466844   5.4050875  12.0380695  49.1417596  51.0283014
  12.4511011  49.4462261  50.2202543  12.7181204  48.6305985  51.4670262
  64.0433741   6.2318063   1.4645353  63.2902908   5.6685215   1.6428834
  64.6682453   5.6615794   1.0166418  32.8883747   0.9022055  55.4164132
  32.1334318   1.3560019  55.7910642  33.5320381   0.8831201  56.1246237
  69.6314253  48.1214783  62.3537287  69.7704805  47.5733838  63.1260556
  70.3809227  47.9337487  61.7887142  17.8457792  39.9676276  60.6996232
  18.0624826  40.2695835  59.8175260  18.0937679  40.6955266  61.2696206
  12.7461380  12.7027011  23.0738592  12.5078911  12.1527219  23.8201785
  13.6183018  13.0334127  23.2888031  60.4623413  32.2063804  12.2626889
  60.3728199  31.4404249  12.8297246  60.5156469  31.8445992  11.3780951
  30.2693466  73.7280131  10.6114554  30.9549002  73.5580525   9.9654168
  29.6841530  72.9735552  10.5438256  51.5246630   3.6827275   2.2240019
  50.9568501   3.2259598   1.6033705  50.9991312   3.7554020   3.0207229
  77.0472956   6.0242796  49.2614126  77.6152802   6.6778165  49.6694756
  76.3601971   5.8663714  49.9088621  56.1870197  57.0741486  31.6109109
  55.8365444  56.1879407  31.7005467  55.7997898  57.5596642  32.3393011
   9.9062676  15.0365579  18.0911970  10.7697529  14.6876514  18.3123028
   9.4254154  14.2845452  17.7455282  45.1912880   8.0098850  22.4670744
  44.7508335   8.3766967  23.2336783  44.5894861   8.1778067  21.7419028
  17.4179405   8.9404881  51.3341665  18.1111950   8.3109647  51.1358595
  16.6063446   8.4440058  51.2290812  65.4936413  73.8306137   5.7891935
  66.2597565  73.3853929   5.4271501  65.8527187  74.5893548   6.2492055
  18.7878174  13.7947917  12.9456329  18.7072891  13.4486151  13.8344014
  18.8762039  14.7405171  13.0640495  62.2479057  38.0139732   7.1833885
  62.8710842  38.1838179   6.4769638  62.6238871  37.2751713   7.6619714
  48.4569076  66.3991814  28.0508614  49.1157297  65.7086830  28.1243038
  47.8842501  66.2651401  28.8060617   8.1959194   6.5937793  36.4982319
   7.7937359   6.6762590  37.3629189   8.7798065   5.8393556  36.5766311
   7.4109787  17.6479185  34.2433834   7.2869152  18.0269504  33.3732247
   6.5230888  17.5072908  34.5721817  44.8694900  72.6767831  20.0761127
  44.9400238  73.0352016  20.9608698  44.3585590  71.8744068  20.1827693
  41.3079265  74.7062764  31.4654684  41.9161991  74.7264861  30.7266665
  40.7526974  75.4757782  31.3397002   4.5593909  58.6867808  38.3406091
   4.5105962  57.7658354  38.5969472   5.3161553  59.0282260  38.8170052
  56.5207386  11.7008007  23.2491541  55.5640554  11.6701388  23.2418895
  56.7902946  10.7855129  23.1728745   4.0636963  31.3525224  48.5258484
   3.1738037  31.7011905  48.5782719   4.0689415  30.8288336  47.7246284
  72.0821203  20.0051031  55.1681933  71.7311538  20.7102535  54.6243033
  72.4679340  20.4527817  55.9211650  25.9867672  52.3940348  11.9399977
  26.7932848  52.7841829  11.6030383  25.9597496  51.5220593  11.5460956
  48.8890600  20.2912974   4.4936311  49.7339249  20.3847694   4.0535218
  49.0158987  19.5647097   5.1037258  66.1735535  31.7574048   0.5047383
  65.5156898  31.9297504   1.1783466  66.9294786  31.4238286   0.9879920
  57.0979786  28.8833880  14.7752833  56.9160128  29.4678521  14.0394032
  56.5311766  29.2001581  15.4785788  28.5499147  66.4516520   7.6958174
  28.8441090  65.7996510   8.3318794  29.3526653  66.7450856   7.2648692
   4.1557068   5.6875104  20.1360226   4.3159431   5.9149677  19.2201531
   5.0287193   5.5617017  20.5078435   9.3311924   6.0706496   2.9830486
   9.1423553   6.9974285   2.8358930   9.0871185   5.9185088   3.8960189
  39.4270281  72.9814405  59.6415663  40.0387529  72.3462229  59.2693806
  39.2367224  72.6458251  60.5175686  61.7402506  37.1495032  24.4038081
  61.6213703  37.3540068  25.3313208  62.6894188  37.1394515  24.2805004
  56.3544989  16.4502656   8.1812644  56.1513710  16.8326068   9.0349549
  56.0242367  17.0880413   7.5484908  56.5164150   8.7749753  59.0532133
  56.6498316   7.8559766  59.2853144  56.5382708   8.7859473  58.0963257
  10.5237968  69.8366174  63.3978832   9.6072872  70.1106438  63.4318666
  10.6750257  69.4017086  64.2370581  11.5026325  20.0034070  11.8216145
  10.8436913  20.6928515  11.9034374  12.1731228  20.3793883  11.2512457
  68.4439754   8.9896613   9.0033239  67.9433203   9.1964346   8.2141322
  67.8351450   8.4928524   9.5498925  71.7666626  26.9451094   4.6764010
  72.4573040  26.5278316   5.1913089  71.0077095  26.3719583   4.7846469
  15.7807262  68.8156471  62.0087007  16.3941486  68.3038363  62.5359547
  15.1640709  68.1696496  61.6642347   2.0658024  62.6811895  51.4849695
   2.1062906  63.0188761  52.3797104   2.6561220  63.2477388  50.9882042
  47.1506691  14.9902976  44.9433517  46.6199541  14.7923768  44.1717291
  46.7212152  14.5184028  45.6568766  31.8621755  10.9807360  17.2172320
  31.9238472  11.9350445  17.1757030  32.7693534  10.6796503  17.1661556
  63.3405876  10.1685226  36.6828609  64.2213535   9.7953403  36.6479111
  63.4061527  10.8777189  37.3223710  50.9395361  16.6312647  34.5395923
  51.3921642  17.1903801  35.1710582  51.6336298  16.1000431  34.1493702
   9.3669660  55.6775567  57.8324881   8.7568481  56.3838527  58.0449363
   8.8132055  54.9802444  57.4812951   5.7910580  40.6485081  11.8002796
   5.1321262  40.5741453  12.4905801   5.3625244  40.2945662  11.0209751
  26.0315756  67.7279316  40.7921982  25.4545740  67.0307719  41.1040783
  26.9140533  67.3705034  40.8907700  78.9042521  18.0632997  15.1048660
  79.8416805  17.9725814  14.9338973  78.5353947  18.3520794  14.2701316
   6.5747875  33.3282709  12.0354009   5.6863064  33.3385944  11.6793942
   7.1125645  32.9744339  11.3270044  67.6391948  69.7018108  54.3911204
  68.4318651  69.3037758  54.0312955  66.9217313  69.2088089  53.9930937
  43.7627888  17.5491822  44.5479631  43.9096498  17.0336485  43.7549400
  43.7356901  18.4559512  44.2425632  21.8538165  14.4455600   9.9468452
  22.0437312  14.9732494  10.7225430  21.7390943  13.5570168  10.2838349
   5.0090450   2.7449045   1.0492957   5.6109184   3.4411538   1.3123950
   4.6416706   2.4222445   1.8721917  36.3745073  66.1129337   3.1252739
  35.4474834  65.8772849   3.0888543  36.6304067  65.9391492   4.0311146
  36.1798719  58.4007358   6.2609291  36.9144634  58.6374127   5.6947213
  36.1090521  57.4498998   6.1765027  47.5307182   6.7438827  39.5652029
  46.7195371   6.7871652  39.0589019  47.3918442   6.0225044  40.1788470
  10.4007776  31.5479961  54.4880947  10.3049429  31.2359986  55.3879311
   9.5246895  31.8459675  54.2433235  62.3459816  43.9899588  23.4716725
  62.0657158  43.2636881  24.0286350  62.6148844  43.5737991  22.6526904
  10.4030937  37.3822975  37.3467708  10.5697483  38.1694913  36.8283296
   9.7933620  36.8702412  36.8154860  32.5620321  73.2679567  43.0251169
  31.7696289  73.7788795  42.8599358  33.2775740  73.8949809  42.9199076
  78.9902748  54.6228227  42.9512331  78.1660284  55.0705919  43.1419036
  78.8926090  53.7597511  43.3534786  52.2711468  47.2187901   4.2290694
  51.7097282  47.5579739   4.9262005  52.3292112  47.9361153   3.5979557
  13.4639114  24.9111700  30.0978947  12.7282089  24.5495939  29.6036983
  13.0605644  25.3173971  30.8650470  58.9721493  74.3171812  11.2744856
  58.2594971  74.9186696  11.0586703  58.6376671  73.4532886  11.0335577
  43.6635975  71.6710891   4.5583040  44.5847277  71.9090300   4.6638373
  43.6680702  70.7156058   4.5011759  58.9471535  66.3562422   5.3291565
  59.4191364  65.7644938   5.9150684  58.2011036  66.6603743   5.8460176
  79.8869137  62.4458860  24.9024916  79.2332081  61.7944955  24.6483445
  79.9010471  63.0675744  24.1747999  41.9691519  57.7488433   9.5738131
  41.9406799  56.8251358   9.3244404  42.2990040  57.7442895  10.4723716
  36.4364441  27.0326123  53.4851810  35.6303604  27.1259818  52.9774985
  36.6812332  26.1133466  53.3790430  60.5805683  16.6904438  39.0806818
  61.4199877  16.2423456  39.1846704  59.9538898  16.1360145  39.5455670
  78.2447433  13.0860877  32.5530624  79.0584421  12.6262486  32.3464823
  78.4861469  13.7003970  33.2463002   2.6007504  26.0105801  26.4961052
   2.0062679  25.5232191  27.0664597   2.4841255  25.6132793  25.6330967
  72.1589231  51.5785027  33.8263822  72.5101662  51.9268560  33.0069256
  71.5355396  52.2423697  34.1211677  24.7685055  67.7140038  19.7824025
  25.5494598  67.6929771  19.2293227  24.1472343  67.1343016  19.3417180
  22.6639599  10.7770050  11.0613096  21.8550915  11.2705731  11.1968303
  22.5059361   9.9358523  11.4899385  29.3534044  72.9158070  20.4977155
  29.4519333  72.6490783  19.5837235  28.4669212  73.2732671  20.5486703
  16.1589344  22.4256513  46.4619705  16.9996364  22.0561585  46.1919185
  16.2449081  23.3641538  46.2944814  14.2773197  72.8590528  11.4247835
  13.6375187  73.3919086  10.9526086  13.8234470  72.0333733  11.5935457
  58.1383709  69.2003845  17.5630176  57.9178909  70.1272636  17.4707222
  58.1518272  69.0503674  18.5082924   2.3141630  73.7541756  62.4900800
   1.5572174  73.2054744  62.6955026   3.0666740  73.1709370  62.5890201
  21.4248474  43.9356891  59.5617589  22.2749622  44.3525634  59.7022959
  21.5795906  43.3082101  58.8556740   5.8297308  26.6196332  57.3958066
   6.6883905  26.5275082  57.8086552   5.2646740  26.9568262  58.0909648
   7.4996714  48.0469655   3.3130383   7.9784707  48.6037849   3.9269891
   7.7092222  48.4058117   2.4507451  72.6479769   3.9414555  28.4501576
  71.9056797   3.3378950  28.4194469  73.3754778   3.4101155  28.7736583
  18.4313339  10.3816307  35.9597278  18.2046265  11.2231338  36.3555932
  17.5876946   9.9747753  35.7623172  66.2148094  17.0306313  13.1656468
  65.3550816  17.4393368  13.0653429  66.7854452  17.7416301  13.4573400
  71.5504742  27.5720930  13.2429373  71.8998098  27.4224591  14.1214633
  70.6780291  27.1787596  13.2618988  49.1680149  61.6923820  11.3747597
  48.4114794  62.2787951  11.3719714  49.6955828  61.9855820  12.1176839
  37.5355867  52.2711514  13.5195673  38.2523636  51.9386052  14.0598202
  36.7471794  52.0957731  14.0332711  14.4912056  73.2125667  26.5875149
  13.5440019  73.1424402  26.7063665  14.8524622  73.0902467  27.4654460
  50.2757645  10.9257543   8.4303504  50.5006266  10.7961702   9.3516946
  51.0901976  10.7521772   7.9583329  24.8522810  67.2750907  12.2559023
  25.7102541  67.0394634  11.9029224  24.3156628  66.4937328  12.1226585
  55.6635332  22.2465658  38.2191157  55.1936579  21.8136573  38.9318800
  56.2943220  22.8162694  38.6593175  61.8568039   3.0734313  30.5764079
  61.8250608   3.2069504  29.6290970  61.1102724   2.5041923  30.7632017
  69.4511080  25.6781435   4.7816062  69.0957785  25.4591298   3.9202094
  68.6952734  25.9874058   5.2809107  51.5713596  46.6737413  11.5509284
  50.6438065  46.8400764  11.7188692  51.9157505  47.5159454  11.2537420
   9.8804434  50.6881997  62.5416118  10.4052932  50.8841488  63.3177352
  10.5079277  50.3346274  61.9111517  47.2957901  64.3619024  19.9884522
  47.9373173  63.6546706  20.0554919  47.7997021  65.1588129  20.1534891
  52.9705858  53.0070829  25.6617808  53.2488871  52.7105904  26.5283084
  53.3323908  53.8897657  25.5830288   0.8743614  26.9237661  47.3437023
   0.7522816  26.3841271  48.1247997  -0.0076586  27.0342278  46.9886446
  74.9598411   0.6024752  60.5720311  74.9160293   0.2324568  61.4537334
  75.0688270  -0.1564230  59.9989447  19.4189743  18.4842144  63.5532898
  18.7128214  18.1532989  62.9982428  19.3611530  17.9602752  64.3522721
  23.7422088  19.7639881  54.6281895  24.5093397  19.2111431  54.4794985
  23.1222919  19.1955696  55.0851795  66.8510914  44.8443413  45.5210304
  66.2480593  44.1644192  45.8215189  67.0976067  45.3148222  46.3173437
  17.0400566  24.6013951  19.3330956  16.2610954  24.0452409  19.3213630
  17.6620239  24.1307807  19.8880005  53.8103390  49.6738529  32.7878666
  54.4253016  50.3240681  32.4483490  54.2043400  49.3769407  33.6081362
   2.0659870   6.7957425  27.0954132   2.2149986   5.9300011  27.4755692
   1.2765068   6.6914552  26.5643001  75.7968283  37.7630901  36.8853927
  75.1513577  37.1252322  37.1899199  75.5062008  37.9955816  36.0035133
  72.7928209  45.7398272   5.0163281  72.7390862  46.5292358   4.4776487
  72.8626776  46.0663128   5.9134108  64.4888214   3.7395225  33.5084292
  65.3455356   3.9851366  33.8576433  64.0675167   4.5731579  33.2991740
  58.6720661  72.2360631  53.4857130  58.5600284  73.1688263  53.3023167
  59.4090179  71.9706248  52.9355526  40.5795295  59.7017345  51.9064793
  39.7310360  60.0782761  51.6730210  41.1191375  60.4559073  52.1437105
  50.7841114  69.8572593   7.6539588  50.3330473  70.6473293   7.9515588
  51.4333300  69.6812146   8.3349532  30.0003250  46.2953970  64.2638346
  30.6752498  46.0254112  64.8865911  30.3810413  47.0465103  63.8087296
   0.5781406  19.7666538  -0.1464769   0.3731102  20.6652665   0.1117683
   1.4111084  19.5774400   0.2854865  30.4065842  15.8787155   6.0325575
  29.8177475  15.1267135   5.9693497  29.8970646  16.6116071   5.6868857
  56.6921043  18.6948085   1.3874511  56.4581442  17.9657161   0.8130661
  57.2964430  19.2247832   0.8677100  34.4140190  57.4456549  11.1769390
  33.8229412  57.8843689  10.5650687  33.8686317  56.7860556  11.6055536
  15.7805103   4.9388188  32.7551770  15.4241413   5.3943580  31.9924736
  16.4679855   4.3762869  32.3985624  72.4837017  30.2317858  12.7286172
  71.9349337  29.4475198  12.7246714  73.2236147  30.0092220  12.1636164
  48.2684330  72.1614199  32.7672863  47.4969820  72.1137335  32.2026420
  47.9142288  72.3017179  33.6454010  13.3080429  22.7209496   6.0071069
  12.5856442  22.3631644   5.4909968  13.9937729  22.0553207   5.9529376
  41.7943430  27.8323960  39.9602699  41.6884518  27.6925611  39.0192795
  42.5153065  27.2538567  40.2087450  72.8862489  58.4311280  52.7112397
  73.6122144  59.0442142  52.8266892  72.1024431  58.9528427  52.8835699
  75.0843729  63.4459934  50.6897899  75.3853334  63.9606914  49.9409613
  75.8579363  62.9573688  50.9709975  70.5998278  33.2465768  36.9917965
  70.8013439  33.0141926  37.8982282  71.0918093  34.0527844  36.8361831
  39.8644546  10.9322344  61.6722280  39.7909979  11.3130079  62.5473556
  40.4672006  10.1966272  61.7809143  24.3426092  49.0726778  62.6062524
  23.5810096  49.1927836  62.0390025  24.0085943  48.5770437  63.3539246
  77.6531172  28.5511661  15.1909852  76.9658947  27.8878641  15.2541625
  78.4320736  28.0641484  14.9221468  70.1041698  45.8699465   2.7835277
  70.0738716  44.9162245   2.7078590  70.0466108  46.0375309   3.7241843
  24.1824825  44.7836265  65.2540002  24.7974594  45.5169711  65.2384585
  24.6177299  44.0953485  64.7509427  77.5293684  44.8063374   9.4988370
  76.8627357  44.5772648  10.1464152  77.3313332  44.2512465   8.7445897
  61.3906670   1.8965153  20.7341146  62.3122454   1.6704270  20.6083608
  61.0512924   2.0202219  19.8476887  29.9865007  35.2331138   7.7662671
  30.2494764  34.9141860   8.6296093  29.7633600  34.4416642   7.2763181
  59.9403715   6.2825894  15.7306731  60.1139021   5.7616764  16.5147436
  59.6841049   5.6406450  15.0685036  66.9902897  47.2248030  26.4052391
  67.0038843  46.2974358  26.6419697  67.8361940  47.5602198  26.7021680
  43.3991861  25.4576421  35.6908536  44.2544079  25.6448698  36.0778594
  43.2153368  24.5526171  35.9425664  51.4527130  29.9133492  23.9951515
  51.7061043  30.6355906  23.4203529  50.7812119  30.2861476  24.5664120
   7.3989529  27.3713899  45.3851557   7.9092068  27.2503018  44.5843983
   6.5361160  27.6510954  45.0793552  62.6277817  40.9639499  62.4396860
  62.5536169  40.7905659  63.3781260  62.4920000  41.9080356  62.3590827
  49.2098478  16.9014059  46.0598013  50.0597004  16.5049492  46.2516543
  48.7107376  16.2040220  45.6346223   0.5058248  72.5504169  51.3209972
   0.8086879  71.8654475  51.9170865   1.1524112  73.2503114  51.4121184
  65.8838718  65.1432499  40.6761214  65.0192754  65.0458559  41.0751435
  65.9167926  64.4603380  40.0062105  59.4210005  70.8966351  30.8542800
  60.1136827  71.4780760  31.1678910  58.6105537  71.3778639  31.0210824
  58.8785791  45.5194473  39.5189166  58.3961153  45.9505224  38.8134861
  58.2248688  45.3757620  40.2032042  14.2318481  43.3774662  32.5246263
  14.0107197  42.8562784  31.7528129  13.5286755  43.1933832  33.1474376
  67.1745729  23.0322003  25.6500983  67.6208305  23.1402230  26.4899898
  67.7015114  23.5386944  25.0320125   0.2475399  47.9194069  42.4482632
   0.0285429  46.9971848  42.3149395   0.6356949  48.1958437  41.6181135
   0.3913345  37.7025758  16.1176470   0.4492321  37.9484616  15.1943758
  -0.3615246  38.1920339  16.4491061  66.0647154  42.9259968  24.7504973
  66.6892433  42.9059410  24.0253782  66.1036444  43.8255596  25.0753164
  74.8499155  25.1252389   9.4478142  74.0159988  25.3931952   9.8338455
  74.6253204  24.3873978   8.8809127  77.3905706  35.5043340   4.5700991
  76.9185638  34.7852993   4.1500625  77.7519178  35.1195264   5.3685880
  12.0562691  38.8285828  17.1002185  12.5150913  39.3494129  17.7593446
  12.3567528  37.9324222  17.2513580   6.7585606  32.9360414  21.5838766
   6.2457413  32.1296740  21.5289569   7.5665802  32.6763320  22.0264602
  45.3795576   4.1599324  32.9110527  45.3812790   5.1123595  32.8155994
  44.7358418   3.8562399  32.2710276  69.8351336  25.9407234  10.1775241
  69.1558504  25.5180788  10.7030475  69.5674181  26.8586659  10.1334679
  12.2366184  28.8420463   1.0666497  12.3503250  28.0718470   1.6235125
  12.5741238  29.5684505   1.5907298  41.2965155  10.6275988  22.0439577
  41.5393114   9.7043532  22.1139574  41.2287331  10.9268379  22.9506516
  41.4174656  67.9160469  36.7099738  40.8980326  68.7066828  36.5639758
  42.0915989  68.1842654  37.3343444  53.3879379  24.1250025  60.9908348
  52.6382259  23.7395798  60.5373949  54.1286091  23.9681564  60.4051369
  50.3845886  73.0527781  31.2442422  50.2857212  72.5217088  30.4540372
  49.7401241  72.6954459  31.8551540  17.7446373  71.7275557  29.7453829
  18.3488853  70.9868107  29.6962496  16.8796642  71.3259969  29.8278925
  13.9962391  18.0629192  21.1438438  13.2798795  17.8602920  21.7455122
  14.0553621  17.2955356  20.5747625  46.9892883  14.5455933  24.4180298
  46.2978983  13.8944006  24.5370412  47.7898169  14.0299261  24.3207049
  57.5653934  42.6389456  25.1331663  57.6117706  41.7345953  24.8229551
  56.9806242  42.6028156  25.8901167  50.4018736  12.8854299  60.1685047
  50.3752613  13.7323821  59.7233105  50.1459551  12.2535276  59.4966125
  46.1178116   0.0929867  56.6624340  45.3516964   0.5371700  56.2991080
  45.7569317  -0.5280675  57.2951183  76.7047548  55.1717186   9.4341892
  76.9522190  55.3964710  10.3311169  76.8577814  55.9741592   8.9352870
  30.4312271  10.8297467  40.7108307  29.8555225  11.1956346  41.3823366
  31.1392540  10.4140890  41.2029266  77.8391695  19.1746879  25.2949977
  78.5072374  19.2398810  24.6125984  78.2728815  19.4944775  26.0861111
   9.9513859  22.8687000  51.6877651  10.3233189  23.0077028  52.5587225
  10.2471298  21.9932795  51.4379549   1.0317524  64.5729313  62.9255201
   1.5590055  65.3212175  63.2053548   1.5766103  64.1244945  62.2787860
  73.0337477   7.0173609  55.9613180  73.7626648   6.4044899  56.0577345
  73.2777500   7.7670449  56.5041494  30.7886131  69.5327053  45.5249235
  31.4125355  70.2509627  45.4197487  30.7134826  69.4174847  46.4721891
  69.6313334  35.9882498  22.9380989  69.6897030  35.1537466  23.4033179
  70.0693274  36.6147685  23.5141802  68.9292049  26.7119861  14.0086758
  68.9154053  27.5944090  14.3793166  68.0561733  26.5960288  13.6337006
   1.6149467  12.5944197  28.9756608   1.3061756  13.2221448  29.6289992
   1.9344563  13.1368411  28.2546043   9.4475884  45.7198143   2.8865528
   8.9495892  46.2155819   2.2365978  10.3630108  45.9174490   2.6886305
  19.9097351   0.9861456  62.8613289  19.1075758   0.9940635  63.3835470
  20.2145485   1.8933855  62.8767672  44.5610905  26.8272114  16.3606238
  43.7973547  26.2750530  16.5281427  45.0532579  26.3574004  15.6873620
  35.8178949  24.1501474  29.3831897  35.4179835  23.6064053  30.0619006
  35.4772234  23.7966561  28.5614729  61.1139011  13.3993423  52.5116968
  61.6521835  14.0836394  52.9094648  60.5026627  13.1435776  53.2024956
  58.3885193  12.4871480  14.5167875  58.8840389  11.8146706  14.0493858
  59.0075541  12.8399420  15.1559794  58.2849407  49.9225044  20.3860402
  57.4548531  50.1198483  20.8199072  58.7710953  49.4011879  21.0248780
  72.5298929  27.5424528  29.3270230  71.7733622  27.9762101  28.9323759
  73.2632923  27.7749205  28.7575364  60.9492779  61.8054819  11.0028207
  60.1770353  61.6099358  10.4721224  61.5253067  62.2955084  10.4160559
  79.3738026  14.4299829  19.9755263  79.2864079  13.9889419  19.1304958
  78.5415405  14.2654181  20.4187965  41.2394670  18.4850298  60.7579481
  41.3267855  19.4367681  60.7050592  41.7077497  18.2456241  61.5577170
  66.8973637  53.0808353   1.0005062  67.7244616  52.5990391   0.9965369
  66.7662334  53.3240223   1.9169652  42.9598379  12.7483940  37.4655795
  43.0496311  11.9858825  36.8939638  42.4526501  13.3756411  36.9502616
  47.4164776  13.0957590  54.7730133  48.2630304  12.7519642  55.0582954
  47.4760155  14.0383468  54.9286327  79.1896534  50.5190706  25.8745909
  78.6066866  50.9878540  26.4717722  78.7965727  49.6505356  25.7887626
  18.8311523  64.7520161   6.4501584  18.6613888  65.6934166   6.4157742
  19.7815174  64.6831894   6.5412623  13.5218758  44.9116135  43.2521248
  14.2206997  44.6378231  43.8461924  13.7000889  45.8367348  43.0829382
  13.1597847  42.0601273  30.2634263  13.8384575  42.0552206  29.5884347
  12.3381180  41.9901323  29.7774363   0.7214596  64.3003068  54.0919480
   0.1173355  63.8736949  53.4842762   0.2604152  64.2957387  54.9307868
  18.7362522  39.8802686   1.9631921  17.9890484  40.2969837   2.3924479
  19.0362400  40.5264950   1.3239470  31.5413959  52.8028068  62.0707455
  31.7767818  52.3550329  61.2581435  31.8057831  52.1971450  62.7632066
  30.8332382  31.0965481  19.7828081  31.6254126  30.5705395  19.6732119
  30.5772053  31.3325825  18.8911990  53.5125160  19.9461913  21.4655519
  53.6275196  20.1421356  20.5357075  53.0091143  19.1321552  21.4783096
  35.6472626   4.0615917   2.8134152  34.9391594   3.5169912   3.1572804
  35.3199234   4.3760611   1.9706869  75.6562090  60.2134895  48.0734444
  74.7177458  60.0801277  48.2066011  76.0340071  60.1498270  48.9506292
  46.0797453   9.4560611   4.2133313  45.3954363   9.2931515   3.5641664
  46.3723135  10.3496051   4.0338475   4.5004410  21.2254071  15.5169022
   4.0453190  21.6688347  14.8010361   5.2287430  21.8071818  15.7344937
  55.6375030  30.2573047  64.3100978  54.8662952  30.0666796  63.7761266
  56.1554722  30.8597790  63.7762707  58.5888676  27.3238359  57.8396198
  58.9941028  26.7652975  58.5029843  59.0897373  28.1387935  57.8742185
   4.9175799  31.6781402  13.6534643   5.0738269  31.1627173  12.8621626
   5.7024473  32.2181129  13.7464511  55.2051656  29.4278755  16.7235831
  55.4258375  29.6426335  17.6299074  55.0936554  30.2772322  16.2965182
  11.2744689  64.3884993  51.9706583  11.5605235  64.6184492  52.8547001
  11.3780916  65.1962805  51.4676809  28.1505259  57.4169435  15.0939825
  28.9770161  57.0126070  15.3579119  27.5348654  57.1777143  15.7867792
  63.9073726  57.0015563  23.9601115  63.9976164  56.8226756  24.8961047
  63.1454703  56.4886178  23.6906031  79.2683565  15.2558136  44.1914463
  79.8044454  16.0008097  44.4631433  79.6228427  14.5141447  44.6818495
  11.8615686   5.0170412   5.4229096  11.4092504   4.4571486   4.7919110
  11.8675290   4.5080891   6.2335661  19.7524049  74.3465628  15.1121596
  19.9032500  73.6348142  15.7341650  18.9950993  74.8150100  15.4632738
  50.2245756  63.4897699  13.7562874  51.1325713  63.2324399  13.5964230
  50.2832743  64.3912520  14.0726927  34.1263294  24.7585702  39.1612840
  33.7742090  24.7411251  38.2713747  33.3527207  24.7794271  39.7246003
  10.8087417  70.2820410  16.3921431  10.7409998  70.5069055  15.4641989
  10.1748975  69.5752348  16.5142039  54.5449552   2.9968109  13.2976845
  54.9128509   2.2440806  12.8347758  54.8002136   3.7519970  12.7678088
   0.9903752  17.5605669   8.5413578   0.7115947  17.4940815   9.4546440
   0.2046882  17.3533240   8.0354145  18.0957349  16.7793823  47.6372862
  18.6815395  17.2012115  48.2658720  18.0112698  17.4138046  46.9255257
  40.0137977  49.7471848   5.6242016  40.2963691  50.6540814   5.5061653
  39.0804975  49.8115578   5.8267811   3.3533727  42.1153918  15.4098585
   3.4203397  41.2509384  15.8153990   2.5569474  42.4937000  15.7824400
   1.5740152  70.9201779   9.2261771   1.9508501  71.4540233   8.5267237
   0.6283804  70.9809102   9.0908411  55.7561116   9.9557104  26.7914942
  56.6799380   9.7615519  26.9498614  55.5818045  10.7361880  27.3175219
  27.5771086  55.2599564   5.1822928  27.7498762  54.5282402   4.5898560
  27.1233289  54.8638191   5.9261969  14.1778290  52.8220415  65.1019764
  14.7849095  52.7131414  64.3699741  13.4094334  52.3077297  64.8544216
  33.0761759   6.0443154   6.7600611  33.6510281   6.2384358   6.0197285
  33.0290310   6.8660965   7.2486094  10.9966397  57.2119808  30.9608078
  11.2837267  56.3075686  30.8348966  10.0640321  57.1993971  30.7455993
   7.0353067  53.6461306  57.1282578   6.2224889  53.2689190  56.7917013
   7.4183816  52.9510307  57.6633501  18.2354000  26.4895130  23.9972425
  18.0687263  26.6875435  23.0757022  17.3751815  26.2683083  24.3540716
  75.4154667  36.1420250  57.2771406  75.7247948  35.6204629  58.0177593
  75.7000905  35.6535602  56.5047264  71.5649795  69.1968012  61.0023928
  70.8445853  69.6830940  60.6014156  72.1574050  69.8733616  61.3303137
  78.2244377  53.0310917  39.8411751  78.8986671  53.7031078  39.7409606
  77.8990966  53.1494284  40.7335758  51.3094741  57.3727751  23.7252760
  52.2450071  57.4646997  23.9057159  51.1899811  56.4394283  23.5497308
  21.4945602  53.0089140  62.8546762  22.0652032  53.3321238  63.5519075
  20.6687737  53.4748936  62.9857111  73.8823383   4.1809979  19.2492178
  74.7396319   4.2724505  18.8333777  74.0491526   3.6493626  20.0275305
  76.7190736  59.3258429  31.7825174  76.9466042  59.1041517  32.6854658
  77.3926359  58.8980007  31.2538433  36.4146154  26.8986550  32.9310206
  35.9220140  26.7796126  32.1189860  36.0602145  27.7028122  33.3104494
  14.4636437   4.9087978  42.4390268  15.0953432   5.3444839  43.0111837
  15.0015815   4.4086100  41.8252945  15.7326293  31.1262059  59.9074841
  15.9303463  32.0603085  59.9752426  14.7828197  31.0740757  60.0141382
   0.9438153   4.6214081  62.3962116   1.0318609   5.5643059  62.5356054
   0.2621552   4.5405365  61.7291069  67.0157915  68.0576420  57.0442629
  67.3845082  68.7587786  56.5069628  67.3725170  68.2132292  57.9187775
  77.3366362  67.5468063  26.4979529  77.2143933  68.3789253  26.0409260
  78.2375170  67.2932816  26.2970281  54.0133911  42.9421186  51.1629295
  54.0828305  42.4891758  50.3225374  53.0976945  43.2165432  51.2121630
  10.8336245  13.2987728   9.6210221  10.4000007  13.8449755   8.9653805
  11.4025365  13.9030781  10.0978735   8.5623115  64.8327971  33.1192875
   8.4651130  65.5321169  32.4729609   8.2075524  64.0560102  32.6868749
  38.4923681  75.1181282   3.6736706  39.3922528  74.7918762   3.6731985
  38.3968040  75.5560245   4.5194510  24.9156103   9.4392086  31.4840078
  25.3296029   8.8354374  30.8673263  25.5650246   9.5559383  32.1774530
  22.4876501   0.7345844  45.6133127  23.0134698   1.5064980  45.8228254
  23.0641972  -0.0060915  45.8009863  12.9158700  60.7007647  39.3549681
  13.4085584  61.4969969  39.5537257  12.0350051  61.0104799  39.1442871
   2.3442413  36.8854380  36.7195225   2.5485891  37.5475764  37.3798585
   2.4261235  37.3464894  35.8846831  -0.1340569  31.2825146  -0.1062938
   0.4798876  31.9092694   0.2764395   0.2992259  30.4342976  -0.0113222
  47.2861241  18.6230078  27.5894335  46.3730876  18.3494272  27.5014094
  47.7770941  17.9916945  27.0634821  36.8647166  71.2350263  11.1236599
  37.7170011  70.8699931  11.3615540  36.4679476  70.5700173  10.5610112
  71.3316512  32.1479726  24.8732257  70.6578338  32.7586126  25.1720929
  71.7501223  32.5945234  24.1372180  16.5199219  21.3335219   3.7486962
  17.3450171  21.8144694   3.6843518  16.5076720  20.9977665   4.6449927
  58.3144026  29.5717468  22.7726343  58.6594336  28.6791315  22.7931670
  58.6526685  29.9777022  23.5707644  60.8513878  16.7839470  28.0409888
  61.7364995  16.7767372  27.6766280  60.4022978  16.0668316  27.5934389
  19.8999691  38.6657119  55.3190613  19.1079724  38.8072133  55.8376646
  20.1249886  37.7478385  55.4710674  77.1735875  28.5544863   0.4511002
  77.5059001  29.0230026   1.2168005  77.2265498  29.1917076  -0.2611992
  58.0887004  13.3341099  45.8120632  57.9719158  13.3252312  46.7620707
  57.8871699  14.2336727  45.5543709  11.3097334  61.7987394  33.9602780
  12.1531987  61.9199562  33.5242701  11.5010953  61.2143230  34.6938109
  17.7172959  57.7016306  50.7434988  16.8572664  57.3813200  50.4715061
  17.5258386  58.3978081  51.3719225  73.1400018  11.5994826   9.6152380
  72.8254895  11.2016812  10.4270676  72.6081126  11.1962023   8.9291647
   2.5087571  46.1995983  39.4240713   1.7029810  45.6877995  39.4948936
   3.2094112  45.5655861  39.5768595  58.8220316  61.2525702  41.9102097
  58.7809711  61.1998129  42.8650713  59.6745687  61.6480970  41.7286253
  60.3554302  25.9070897  43.6982012  60.8696431  26.7021012  43.8388109
  60.9508162  25.1932311  43.9265680  74.4461900  23.5617757  58.5253048
  74.1754782  24.4354153  58.2429934  75.1150119  23.7217569  59.1911221
  60.2455383  48.7207174  46.0051394  60.7074219  47.8837872  45.9556770
  59.3665009  48.4916878  46.3069248   6.3504082  55.9506941  34.0347242
   7.2344643  56.2937355  34.1651106   5.8152437  56.7259932  33.8651943
  73.6186735  46.1232891   7.8281954  73.6902706  46.8519345   8.4447840
  74.4711225  46.0923901   7.3939064   1.8726217  21.6419640  25.9488943
   1.6477643  21.9031134  26.8419054   1.8487774  22.4571600  25.4477766
  65.4805403   0.5813685   6.4659479  66.0116641  -0.0495586   6.9518212
  64.6759157   0.6618252   6.9781378  78.7142079  52.1708050  44.0577105
  77.7969854  51.9037571  44.1179064  79.0157931  52.1981373  44.9657420
  76.6198628  26.7273226  31.3320044  76.6451733  26.8950405  32.2740534
  77.5391834  26.7183008  31.0655478  59.0656351  11.8690815  18.3795431
  58.9947574  10.9164515  18.4404448  58.3243059  12.1974220  18.8883189
  42.5661119   8.5493732  31.8866444  41.6667625   8.8677479  31.8089151
  42.9789337   8.7931515  31.0581636  72.6067750   1.8077460  14.3683699
  72.4600749   2.2259870  15.2167776  73.0756275   0.9998598  14.5774868
   7.0010465  41.1639261  51.9586039   7.6645076  41.2653685  51.2761402
   7.3542190  40.4883242  52.5374508  15.5670153  27.4201956  19.6883658
  14.9584948  26.7529574  20.0057391  15.9342324  27.0476046  18.8867644
   1.1812501  60.5606937  40.5672884   0.7133509  60.8824635  41.3378477
   0.6392240  60.8331299  39.8268700  16.8654108  18.3429933  36.6924977
  16.1254525  17.8349817  36.3599038  17.0639694  18.9639342  35.9916139
  56.9472652  59.1619110  50.5882406  56.7671758  59.2179155  51.5266752
  57.8892332  59.0006018  50.5343342  27.0029081  53.3989062   7.3604372
  26.2886474  52.7725400   7.4776057  27.0468791  53.8703920   8.1922987
  43.4867748  74.1185464   5.5641535  43.2348164  73.3874239   5.0000504
  44.1511830  73.7526550   6.1480311  58.4576605  36.3395634  17.6349715
  58.1953268  35.9115544  16.8199709  58.7702625  37.2023001  17.3625735
  12.8812306   6.1990013  15.6953791  12.5526707   6.7147150  16.4317969
  12.1205609   6.0827627  15.1260737   8.7545844  72.6961126   9.5676878
   8.9678677  72.3990120   8.6831120   9.5447644  72.5172700  10.0774554
  67.5627427  38.7594881  18.2217673  68.2215945  38.8003960  18.9149264
  66.8065374  39.2223873  18.5824755   0.3903250  69.7066975  56.7799282
  -0.2889916  69.2512131  56.2826395   1.1823670  69.1898489  56.6323853
  63.2443138  12.1827484  56.1858177  62.9928251  11.3810993  56.6444540
  63.0836578  11.9905830  55.2619696  39.5688109   7.2780075   0.5849198
  38.9628236   7.1506634   1.3148478  39.1257684   6.8828097  -0.1659271
  64.9636321  56.0160198   3.5973862  65.8126561  55.6110039   3.4203127
  64.5723860  55.4653874   4.2755965   4.8333561  29.8380208  27.8549814
   5.4299825  29.9000907  28.6009145   5.4003733  29.9153042  27.0876813
  35.7857840  21.6916313   7.7691058  35.4122929  22.1921530   8.4945134
  35.0776748  21.6350117   7.1275404   8.8109714  54.6382332  63.7744093
   8.5697103  53.7411451  64.0051937   7.9919785  55.0391674  63.4833193
  51.2540633  11.6410580  25.8390406  50.4854752  11.6889944  26.4075545
  51.2958205  12.5005331  25.4197577  35.0778582  63.2072748  11.0615710
  34.1252848  63.1830038  11.1523798  35.3901383  63.5420527  11.9021872
  70.6066700  12.0694805  54.4476509  70.7995363  11.3400913  55.0367355
  71.3747688  12.6372505  54.5099974  64.5105891  37.3057499  23.5262659
  65.1520340  36.9059744  22.9389361  64.4726376  38.2219019  23.2515601
  66.1608975  33.3572474   5.0472668  66.3849561  33.6801520   5.9200552
  66.9914441  33.0476465   4.6859196  25.6515169  38.4304333  44.5595694
  25.1216602  38.1116199  43.8289261  26.3481593  38.9400458  44.1457844
  46.2307619  25.6870880  23.5021380  45.7289533  26.2023535  22.8705386
  46.4543997  26.3088503  24.1946867  14.3730640  55.1118660  32.2780800
  14.0594578  54.8348284  33.1389713  13.7169874  54.7790623  31.6656780
  78.4577696  22.9330197  16.3693598  79.2033546  23.0025759  15.7731226
  77.6902501  23.0248490  15.8048132  10.1998234  37.8939223  52.1113873
   9.8910749  36.9892335  52.0619440  10.9584916  37.9202867  51.5283251
  12.3844683  67.0135307  53.0286360  12.6853704  66.2788296  53.5633278
  12.8534925  67.7715349  53.3774614  12.3106277  33.1279755  50.6087875
  11.7437673  33.8799953  50.7801628  13.1326532  33.5121989  50.3040266
  57.0988719  19.8734465  14.7213438  56.6677557  19.0322867  14.8724345
  57.7786143  19.6815720  14.0753058  20.8456694   7.1614351   3.6783531
  20.5252730   7.7100268   4.3943289  21.1715065   7.7831688   3.0275753
  61.5562724   8.7840357  10.9645346  61.4422165   9.6554985  10.5853632
  61.9043110   8.2543936  10.2471903   1.5985461  75.0313343   0.1424530
   0.8364149  75.4950442  -0.2044794   1.2338253  74.2540135   0.5655173
  72.3328416  26.8826189  10.7107476  71.4579849  26.6553297  10.3957918
  72.1980886  27.1502533  11.6198376  25.6080396  72.6239313   8.2123879
  26.1895657  71.9002904   8.4456328  25.4115099  72.4842347   7.2860554
  51.8807978  46.0355511   7.8341416  52.6481631  46.6014900   7.7499035
  51.2126972  46.5952435   8.2298878  21.6198238  11.9498993  39.1537356
  21.8026956  12.7244164  39.6856260  22.3823016  11.3856579  39.2821765
  65.4359311  40.0254393  49.7570372  65.2498799  39.6355295  48.9028788
  65.7580870  39.2969346  50.2878189  53.0281005  20.7871237  37.7916029
  52.8896800  19.8789206  37.5228289  53.7193618  20.7387772  38.4519461
  46.3034459   3.8778759  54.5597935  46.3175770   4.1767288  55.4690361
  46.9913217   3.2137466  54.5152473  37.3461636   3.7399508  54.7052717
  38.0863091   4.0764261  54.2001009  36.7834982   3.3197475  54.0548372
  55.7216978  53.0638695  47.9921150  55.6693172  52.1159506  47.8698778
  55.8510065  53.1771517  48.9337540  25.7759333  67.8265142  60.1828003
  26.6440606  68.1098604  60.4696798  25.9489369  67.1461105  59.5321465
  64.1796928  71.7586327  46.2880802  64.6010893  71.4616871  47.0946026
  63.9219242  72.6621151  46.4711475  76.0442107  36.2218609  47.2506789
  75.2817933  35.7224598  47.5431708  76.6314738  36.2270727  48.0065420
  11.9194317  40.7790899  60.0464821  11.8031383  41.6596127  59.6895599
  11.9067061  40.2062368  59.2797327  49.8726770  14.6819855  51.8030214
  49.9768706  14.0590836  51.0837412  49.9599358  14.1507412  52.5944710
  56.9466932  56.6262856  14.2612055  57.5540446  56.7798558  13.5374859
  56.7189391  57.5022450  14.5727328  33.6723574   5.0660683  48.1065750
  33.1661966   5.4220844  48.8368416  33.3672812   4.1627813  48.0215502
   1.2477099  29.1367188   0.5828074   2.1217476  29.0755501   0.9682253
   0.7012044  28.5817995   1.1392525  79.3591251  39.7664714  45.3521824
  79.1615897  39.4083118  44.4867754  80.1190535  40.3308678  45.2100611
   3.8882576  61.3933029  34.8195437   3.2841288  61.6962757  35.4973868
   3.4045969  60.7097759  34.3557719  13.7564957  68.8952160  22.9460907
  12.9836178  69.2219448  23.4066772  14.4200647  69.5715475  23.0820465
  58.0181476  73.7968458  20.3963068  57.5082275  73.6352600  19.6025160
  58.4675952  74.6249999  20.2278307   9.4823965   1.7140747  32.3415279
  10.3216537   2.0440699  32.6624322   8.8382753   2.0528770  32.9632616
  76.9728892  20.7234326  33.9109495  76.6919558  21.6226044  33.7412527
  76.5316145  20.4844179  34.7260454  11.1893855  21.4571896  18.5936240
  10.5082880  20.9044829  18.9768389  11.3004791  22.1707192  19.2219332
  22.1630025  19.8661554  63.1591654  22.0588303  19.7796893  62.2115898
  21.3659883  19.4814312  63.5238409  56.8784548  22.2733631  12.6422528
  56.7130311  22.2512617  13.5847882  57.2271751  23.1500330  12.4807719
  74.1221397  62.0567456  17.8979376  73.5534231  61.9257775  17.1392229
  73.5799949  61.8137303  18.6484412  15.1211058  15.2781334   6.1852387
  15.4510580  14.4884243   5.7566050  14.2489325  15.0353470   6.4960316
   8.7320888  51.9436598  58.5812664   9.6665150  52.1203423  58.6901903
   8.3815110  51.9511127  59.4719267  51.2847090  65.2828217  39.9934077
  51.0295248  66.1056089  40.4106998  50.9120035  65.3349543  39.1132927
  51.8820354  22.0524002  44.6600103  52.6493665  21.5136028  44.8527145
  51.2054082  21.7265392  45.2534962  17.5962102  72.7415276  51.6983318
  17.7700055  72.2236729  50.9122944  16.6939020  73.0428028  51.5920067
  32.1416035  12.0727230  46.4817715  31.8158283  11.2697674  46.8884277
  32.0725747  11.9098354  45.5410624  68.3282749  25.6483021  27.3984602
  68.2602494  25.8522597  28.3312014  67.4861245  25.9182635  27.0322111
  66.1763090  60.1392126  47.1624613  66.6066032  60.3315830  46.3293505
  65.5453294  60.8500099  47.2758818  15.0885582  21.2046504  41.6803265
  14.1748083  21.3365698  41.9330883  15.3360033  22.0191979  41.2427044
  18.1783819  46.8532658  54.6697807  18.0095530  46.4481306  53.8191366
  17.6360142  47.6419783  54.6713018  64.6611242  38.6977473  15.6764582
  65.1024441  39.2262163  15.0114802  63.8540058  38.4052363  15.2531031
   4.9953848  44.1431952  63.1437159   5.1794559  43.2880592  63.5324287
   5.2566183  44.0510321  62.2274733  17.4875593  66.0602283  52.5354481
  18.0178702  65.9673834  53.3268929  18.0228770  66.5957737  51.9499063
  16.9425311  27.9642273  57.6403475  16.9206371  28.8594032  57.3021173
  16.9071849  28.0665947  58.5913992  69.0773909  14.8626843   3.8811854
  69.4598381  14.2325249   3.2705525  69.8245661  15.2033892   4.3729952
  63.3734509  11.4696861  53.5689926  63.6928435  12.1118809  52.9351044
  62.7095123  10.9719349  53.0918550  26.5322995  54.4471455  62.5155258
  27.3678446  54.2848969  62.9534435  26.0659695  53.6131811  62.5727749
  65.4463439  36.1789980   5.2346686  65.2049689  36.8607798   5.8616808
  64.8579042  35.4508867   5.4342202  11.6735542  71.5480042  47.0068502
  11.1929965  70.8197260  46.6132736  11.1300790  71.8222094  47.7455521
  57.5523325  68.1464853  12.0788172  57.7817055  67.2406639  12.2864464
  58.0640145  68.3496680  11.2957886  49.8319949  15.8367958   1.7108324
  49.4480927  14.9640789   1.7957714  50.3595178  15.7898417   0.9134940
  63.4959596  43.3717823  64.6810246  63.3858496  44.0884447  64.0561199
  62.6863306  43.3727312  65.1916409  47.7244186  67.2340345  55.1892281
  48.3495617  66.5906429  55.5231094  47.0488119  66.7103720  54.7584581
   0.6943994  55.4559135  49.4694853   1.1274792  55.5184984  48.6181593
   0.6705903  54.5177031  49.6576977  10.3031123  74.1154814  20.6964970
  10.3076231  74.7063208  21.4495707  10.1649177  73.2469320  21.0743308
  35.7446480  68.6801243  61.1258030  36.2286425  68.0772400  61.6901731
  34.8372936  68.6096191  61.4224005   4.3572167  69.4139528  56.5338850
   4.2288589  70.0923967  57.1968079   5.0693381  69.7453308  55.9868002
  19.4158276  66.9762005   0.1744965  19.9401476  66.9824042   0.9752968
  18.5887244  67.3868002   0.4265669  52.9216643  13.4870506  57.4731255
  52.8715202  14.3233944  57.9359961  52.9252812  13.7261082  56.5462637
  45.0793819  59.2977371   9.2007950  44.2441921  59.0593853   9.6031359
  44.8958348  59.3173161   8.2615641  12.7794277  36.3133612   1.5451268
  13.5544668  36.1802235   0.9994009  12.2653066  36.9697418   1.0749367
  70.3827044  57.7319326  28.6877421  71.0262104  57.2054948  29.1620806
  70.5430647  58.6285605  28.9819697   2.9223143  19.9551811   3.8632134
   2.5191032  20.3251925   3.0778864   3.1734883  19.0674963   3.6079481
  77.4376878  52.0320415  63.8624382  77.5908389  51.3034582  63.2608271
  78.3029923  52.4192810  63.9948273  12.8709579  42.6518106  56.3600540
  11.9779766  42.7739191  56.6823959  13.4116256  43.1815529  56.9459581
  75.3466170  19.8796692   5.6922272  75.2692740  20.7850590   5.3913668
  74.8245137  19.3746891   5.0688198  20.5056797  19.9657240  18.8103751
  20.0548493  20.0794497  19.6470621  21.2996756  19.4784966  19.0304163
  16.1206043  70.2198648  50.6872320  16.6699541  70.7011127  50.0684881
  16.7389250  69.8408270  51.3119268  73.1921463   8.0197802  34.9223021
  73.6630933   8.8218870  34.6963194  72.2719519   8.2819357  34.9496344
   4.8166524  53.3685627  40.1222018   4.2615448  53.1820240  40.8793619
   4.3889462  52.9170265  39.3945959   7.8202187  54.2514935  17.5005129
   7.8852283  55.1662388  17.7748469   7.7176582  53.7631836  18.3173827
  10.1929151  35.7336083  15.0873068   9.3806587  35.4566756  15.5113104
   9.9666010  36.5537777  14.6487358  45.9052467  54.7446823  54.9243879
  46.4326477  55.4819393  55.2318382  45.0119162  54.9615097  55.1911879
  28.4585381  70.7416201  57.1803522  28.3872771  69.9001360  56.7297268
  29.3369961  70.7361031  57.5604963  67.1501013   9.9068905  46.7215109
  68.0706783   9.6854759  46.8620300  66.7975374   9.1647793  46.2303877
  73.2432430  55.9935799   0.3948382  73.1883197  56.0185375  -0.5604574
  73.5684626  56.8601551   0.6387738  55.0140520  14.9770523  60.5090666
  55.9370776  15.0144459  60.2583599  54.8807260  14.0743042  60.7980347
  34.1323090  61.7733049  60.9764671  33.6515379  62.5971985  61.0558081
  33.8836622  61.2749767  61.7549753  67.2338037  13.4986868  14.7224930
  67.2622113  12.5816431  14.9953726  68.1283383  13.6931792  14.4428328
  72.1502023   9.8467579  14.5161465  73.0662577   9.7523442  14.7772244
  71.8596356  10.6500521  14.9480322  23.6405369  26.9736458  54.3192625
  24.5432147  27.2637058  54.4506788  23.4713789  26.3787056  55.0497818
  74.2241525  72.0820665  48.2693338  74.7683567  72.8689814  48.2982302
  74.0617829  71.9372368  47.3371887  68.4710865  34.5911637   6.9357899
  69.3912809  34.5992747   7.1992472  68.4621327  35.0266733   6.0834530
   2.4953048  57.8829145  55.4565525   3.1141502  58.2324791  54.8154068
   1.9762228  57.2458124  54.9657488  58.5576867  10.7732239  27.0482710
  59.2190300  10.8820715  27.7316454  58.4091304  11.6583672  26.7155722
  67.3359581  45.7148881  13.9529589  68.0654284  45.9977897  14.5043829
  66.5536519  45.9910245  14.4304255   4.0622174  43.4975662   9.0187243
   4.1768824  44.3554821   8.6099795   4.9453007  43.1301537   9.0561846
  62.4458285  51.4778187  35.9598711  62.8011271  51.4046230  36.8456724
  63.0524918  50.9752239  35.4161909  39.7713002  15.3840519  38.7670636
  39.9447092  14.9642540  39.6096373  39.2095824  16.1288143  38.9816356
  46.3405089  16.5637436  12.7003220  47.1042804  16.0119620  12.5317410
  46.6014259  17.4331799  12.3966196  75.3654879  64.6419954  36.0608888
  75.8894309  64.5744228  36.8591046  75.8723858  65.2191925  35.4898119
  36.0925891   5.2213932  31.1306405  36.9496938   5.4940010  30.8030868
  35.5823716   6.0303856  31.1687398  54.2338463  70.8362211   9.1941193
  54.8101135  70.9527816   9.9494723  54.7796913  71.0584940   8.4398773
  65.8280462  59.0356493  64.5141268  65.7207936  59.6070719  63.7537289
  66.5977400  58.5051107  64.3083763  66.5109901  44.1976109  11.8698433
  65.5672102  44.1682663  11.7128447  66.5963499  44.5706310  12.7472332
  36.5290022  51.4047194  23.6410069  36.7155242  52.0643330  22.9729128
  35.6309390  51.5895224  23.9158940  54.6207589   3.7157240  16.4835242
  54.7339831   3.9408961  15.5601004  53.7664276   3.2857790  16.5222052
  10.6682073   9.7940388  13.6000470  10.3374897   8.9867583  13.9939526
  11.4155184   9.5139923  13.0715302  56.2565325  36.1781302   1.5437058
  55.6869204  36.8668261   1.8864516  55.7372032  35.3776970   1.6200856
  64.6974377  38.5537710   3.6085823  65.2675180  37.8377285   3.8887957
  65.2988879  39.2572489   3.3644322  73.3368866  27.3772373  25.5913523
  72.6399629  26.7473879  25.7752589  72.8760187  28.1845942  25.3632906
  15.1467406  68.6206665  39.7532061  15.0578200  68.2208576  38.8880614
  14.7781788  69.4980946  39.6506003   2.4130332  58.6058331  51.3207006
   3.0817088  57.9461575  51.5049124   1.5851346  58.1715441  51.5261507
  15.1309382   2.7912512   4.8456505  15.1772534   2.9280319   5.7918909
  15.4198920   1.8874183   4.7198704  47.9376650  66.8970203  64.9113512
  48.6827803  66.6406631  64.3679237  48.1070900  67.8125000  65.1336622
  58.3956449  52.7601471  23.2264689  57.9876287  52.8380051  24.0888480
  58.0489473  53.5012474  22.7296809  29.1751423  73.9718045  23.7761668
  28.9101938  73.1579103  24.2046622  28.7109388  73.9639034  22.9390982
  68.6955671  37.4348536  14.0351275  68.8647823  38.1706991  14.6234587
  67.8803270  37.6664963  13.5902050  49.6610495  22.5562550  47.6043749
  49.5109435  22.8318764  48.5086584  49.6481677  21.5998150  47.6402378
  32.9001021  73.5779572  57.9511595  33.0808711  74.3562794  57.4241209
  33.2072115  72.8479958  57.4135065  64.7987513  36.1649504  18.7817171
  64.2431180  35.5873575  19.3050650  64.2407696  36.9161644  18.5803202
   3.3150541  35.5268755   6.2871912   4.2278873  35.6061449   6.5641096
   3.3532201  35.5362168   5.3307989  54.6569102  54.1555252   9.2386177
  54.5136200  54.5536080  10.0972393  53.9795905  54.5384064   8.6810568
  73.9514677  18.0490389  16.8424681  74.8712032  17.9142037  17.0708063
  73.9756624  18.4223070  15.9613779  35.8801829  17.7561989   4.4833258
  35.0715338  18.2655754   4.4298724  36.3750397  18.1661644   5.1927450
  57.2903156  65.4044008  60.2731943  56.3900709  65.5799389  59.9993706
  57.3990822  65.9113264  61.0778236  69.4427248  30.7143284  48.1895065
  68.8254210  31.0246635  48.8519716  69.1273018  29.8405243  47.9588604
  28.2746254  50.2531090  31.9470576  28.8128029  50.1997509  32.7368334
  27.7588640  51.0512200  32.0621565  55.0196525  10.8092190  46.8810034
  54.8652383  10.8364464  45.9367323  55.3095027   9.9128605  47.0505476
  48.5959026  14.1534401  47.8329468  48.9966985  13.8785625  48.6575890
  49.3133327  14.1335083  47.1995974  17.6033773   2.2431017  35.6450009
  18.1835391   2.8697659  35.2126384  17.4418636   2.6227165  36.5087366
  78.5974668  21.0473132  55.2816439  77.8010267  21.5709734  55.3693724
  79.0348036  21.1327314  56.1287975  50.8186071   1.3141241   7.2253493
  50.2889057   1.6995635   6.5274313  51.4476831   1.9983044   7.4542406
  68.6381811   0.7910556  63.6806774  68.1997055   1.3200632  63.0142498
  69.0079576   1.4307517  64.2891884  33.1225612  71.9769873   1.4504078
  33.7572523  71.3166441   1.1722973  32.9055163  71.7362417   2.3510531
  71.8327445  46.7112780  18.5511565  72.0926344  46.6225529  17.6341951
  72.5638324  46.3391733  19.0443921  68.1649714  29.9622464  17.9639506
  67.8546840  29.0746665  17.7846289  67.5804227  30.2864742  18.6490858
  52.4894019  60.2082695  12.2791889  51.9673439  59.5944299  11.7625740
  52.5237747  59.8176398  13.1523779  58.5632287  18.4457197   3.5257223
  58.0436213  18.4486666   2.7218369  58.5831390  17.5272980   3.7946776
  12.2223656   1.8868890   5.0430611  13.0177109   2.2852054   4.6894959
  12.4784748   1.5681734   5.9085444  69.0257010  66.0124724  20.7835293
  69.7810600  65.6390881  20.3293848  68.9876411  66.9192999  20.4794788
  15.9657705  12.5431585  34.6797180  15.2584922  11.9312680  34.4758081
  15.6788719  12.9827118  35.4801655  28.6666911  59.5451106   2.8261307
  28.1952024  58.9428009   3.4015921  29.5850783  59.2895807   2.9127434
  40.6302831  65.8708881  46.2996244  41.4965603  66.0179715  46.6793108
  40.2789817  66.7497717  46.1568546  23.4606528  20.3405833  58.9019156
  23.6975741  19.4234943  59.0399313  23.7620759  20.7874775  59.6929073
  66.1438458   3.4681216  28.7521723  65.5713944   3.5426893  27.9886511
  66.8559508   4.0837803  28.5786703   6.0937512  16.9046390  60.6847668
   6.0052723  16.4715004  61.5337658   6.8220425  17.5146532  60.8018446
  40.0675210  57.0764817   6.5716341  40.2073237  56.4497842   5.8617476
  40.5109402  56.6873695   7.3254278  74.8724839  41.9118309  34.2699337
  74.8493170  42.8547525  34.4330168  75.8047348  41.6991520  34.2262554
  25.1336826  56.0233630  20.9674052  25.1113186  56.9789256  21.0186938
  24.7498374  55.7300951  21.7937735  39.7459890  52.0586345  60.7829705
  40.6091453  51.7972014  60.4622719  39.1819752  52.0209846  60.0105056
   6.7959102  60.8679570  19.3801764   7.5498625  61.3953222  19.1162184
   6.3653299  60.6368579  18.5571173  71.8158358  29.5034456  60.2683258
  71.7921686  29.0194869  61.0938311  72.6114624  29.1965985  59.8335218
  20.4438519  22.1196556  22.7709603  21.2153149  21.5698838  22.6337504
  20.7695293  23.0154896  22.6835251  22.1097851  33.7323666  64.0781641
  22.5023675  32.9139161  64.3818855  21.2575436  33.7649632  64.5127344
  27.3717093  22.1173358  51.4200258  27.1259475  23.0322075  51.5572882
  26.9942904  21.6532397  52.1672869  15.9800112  64.9735641  58.6490726
  15.3965485  64.9045992  59.4047499  16.2427640  65.8938456  58.6325407
  14.0200090  31.5894127  44.0710258  14.8611140  31.7303014  43.6363697
  14.0635800  30.6882191  44.3906832  23.8599782  54.0894975  12.6226500
  23.9205953  53.8922800  13.5573462  24.6092338  53.6384000  12.2335985
  78.5766938  31.1124539  59.6468210  77.8683367  31.6407514  60.0147390
  79.3697970  31.4546824  60.0592518  69.8854594  13.4703579   6.8438891
  70.7807307  13.7980452   6.9295863  69.8558860  13.0799523   5.9704235
   6.4766127  40.6195164  37.0244455   6.3078856  40.0524282  37.7768898
   7.2273672  41.1512136  37.2888279   0.4399049  21.3107920  50.8845377
  -0.4828063  21.5410066  50.9933376   0.5032206  20.4137397  51.2124443
  73.7551164  16.3603556  37.6397681  73.7620514  15.8792484  36.8122911
  74.6455973  16.7005849  37.7264786  12.1602440  22.4329066  38.1579804
  11.4202499  22.2886372  37.5682116  12.1502233  23.3746696  38.3289099
  71.3818910  62.0955219  26.5824679  70.5895545  62.3922075  26.1347941
  71.6021587  61.2674083  26.1559180  17.5831234  49.7412109  37.5053883
  17.8489971  48.8723421  37.2043824  16.6639471  49.6384001  37.7519155
  26.9891688  60.0814022   0.7150820  27.5979644  60.0362148   1.4523438
  27.5489834  60.0439562  -0.0604459  58.8177830  20.4543829  30.7519484
  59.1105014  20.9296393  31.5295601  59.1194635  19.5568442  30.8921146
  33.5804486  12.2529650  23.7579823  34.0042162  11.4815295  24.1342020
  32.7244234  12.2880960  24.1848493  31.2623122  54.3528988   0.6159237
  30.9959128  55.0219287   1.2465266  30.4838126  53.8077833   0.5018214
  14.3102729  52.4367619   9.4134241  13.4390473  52.7331781   9.6767396
  14.8763037  52.6746655  10.1477540   9.6136177  25.1005483  26.2170386
   9.2676699  24.5244670  25.5353618   9.7230607  25.9465623  25.7828569
  69.4350058  63.5056496  40.9567356  70.0653869  64.1450548  41.2884092
  69.6862393  63.3736038  40.0425816  58.0912467  65.7159938  17.3697832
  58.6267158  66.1451043  16.7024306  57.2338363  66.1348523  17.2946909
  14.4348407  26.2723327  44.4167900  13.9121377  25.4704642  44.4121504
  14.4117725  26.5785193  43.5101748  79.5416912  59.9948883  59.0899515
  79.6281115  59.0851784  59.3748999  80.0228168  60.0336981  58.2633638
  44.5777035  24.7448850  56.6737127  45.1519728  24.2153597  57.2269297
  45.1744080  25.2967191  56.1680841  62.6061767   5.5103540  49.5987177
  62.5113612   5.0174332  48.7836933  63.3676415   6.0715044  49.4520473
  49.5244914  52.6295662  63.7373447  49.1978889  53.3531475  63.2025623
  49.7206217  53.0279636  64.5853090  66.8123942  36.1657763  61.7175722
  67.2824520  36.1508679  60.8838749  66.0782999  35.5650163  61.5894079
  15.9266174   9.7848219  53.3880043  16.2880158   9.3367052  52.6232767
  16.6940737  10.0939393  53.8693476  10.7719481  25.9759712  43.6521578
  11.0708272  25.2229714  43.1423616   9.9653667  26.2540817  43.2182074
   6.3423550  70.0694466  47.8316879   6.1350566  70.5513239  48.6323452
   6.4604688  70.7483530  47.1673298  59.7362309  26.9166827  62.4780893
  60.5027669  27.4538374  62.6783848  59.6223908  26.3640213  63.2512856
  70.1521382  72.2811221  46.0274792  70.0477884  71.3350256  46.1286926
  69.2932234  72.6417296  46.2476158  76.2893358  22.4009466  55.2947903
  75.8766025  23.1535292  54.8711157  76.1219498  22.5300789  56.2283564
  26.8902822  39.3720238  17.7695349  26.6236276  40.0917940  17.1976450
  26.1162852  38.8117016  17.8260973  75.1144266  18.0208921  34.9602723
  75.5657288  18.0941045  35.8012223  75.8068228  17.8078818  34.3346167
  33.2397040  68.2555498  16.8753889  33.2872715  68.7722983  17.6797179
  33.5910001  67.3993100  17.1196822  78.8942285  27.5592661  51.5028763
  79.3927335  28.2572031  51.0778952  79.4576184  27.2639036  52.2181273
  34.8312187  32.1291780  30.6106257  35.0456047  32.7491450  29.9135494
  34.7206354  32.6738620  31.3899350  69.3018621  29.3088388  15.3771198
  69.2814380  30.0494552  14.7710657  68.9767247  29.6664286  16.2033451
  69.7880763  49.6517420  20.8565569  69.4663292  49.8824406  21.7280436
  68.9973670  49.5688248  20.3235149  16.0832798  44.3341303  64.9039364
  16.3048267  45.0330448  65.5192947  15.1279163  44.2828274  64.9335957
  72.5940809  73.2256006  37.1030951  73.1568513  73.2854735  37.8750658
  71.8556223  73.8020012  37.2997499  42.5864717   1.9600082  40.7835102
  43.3347913   1.3649488  40.8299255  42.8572031   2.7253033  41.2907219
  31.1590212  28.6966892   0.0921086  31.5046050  29.4061233   0.6338719
  30.4585605  28.3122493   0.6191662  13.3852029  45.7023287  63.8545513
  12.5762641  45.7145882  63.3429861  14.0583587  46.0059309  63.2455254
  23.5566282  35.9680557  45.6384468  24.0094352  35.7747746  46.4593220
  24.0308285  35.4622602  44.9784899  21.2971139  26.2242889  37.0187092
  22.2276092  26.4350748  37.0960283  20.9075117  27.0026159  36.6203976
  76.7831552  30.0623727  48.9991808  76.3883996  30.5007339  48.2453680
  77.2400319  30.7596803  49.4695616  21.2404084  39.0137959  60.1612854
  20.8710480  39.6037006  59.5041561  21.0778975  39.4532228  60.9959841
  68.2549220  35.0040627  33.0667996  68.3073276  34.8615766  34.0118837
  68.8455802  35.7391047  32.9022837   8.1733292  36.7471313  46.5220642
   8.2801044  36.0732031  47.1933699   9.0219039  37.1887851  46.4889574
  18.6052978  22.9679036  34.0303826  18.8199031  23.3370996  34.8870468
  18.2557094  22.0983577  34.2250872   5.8831728  30.3499746  50.2201033
   6.6348040  30.3484058  49.6274137   5.1363558  30.5596447  49.6592712
   9.8747927  47.6014996  42.5706387  10.2511859  46.7221117  42.5353956
   9.9080998  47.8393269  43.4972239  20.1583457  34.4839787  52.1873713
  19.6805656  33.7190270  51.8667364  20.5493736  34.1939998  53.0115318
  20.9301343  62.7315368  41.3601569  20.7238837  62.1257271  40.6483439
  21.6858741  62.3390807  41.7972735  47.1203920  69.7042407  30.1678255
  47.3154160  70.6324066  30.2970675  46.5564963  69.6833910  29.3946341
  18.0332580  64.0892305  23.2174376  17.5341889  63.7029781  22.4977282
  18.0990198  65.0172581  22.9923228  36.5098544  63.7140645  13.5288027
  37.0495375  64.1457738  14.1910723  36.9162925  62.8554692  13.4111098
  45.7967089   6.6856566   1.2934712  44.9554990   6.5385285   1.7258528
  45.9147780   7.6352778   1.3160780   8.2761145  36.0763741  50.7910681
   7.5645447  35.7267261  51.3273954   8.1333536  37.0228672  50.7912445
  18.5632205  21.9279766  17.4753129  18.1072259  21.2818313  16.9360578
  18.9052749  21.4247298  18.2142127  18.2007706  19.0819192  60.6671524
  18.1223774  18.1931150  61.0137272  17.5096345  19.1437161  60.0078011
  19.1333640  32.5973153  42.5403929  19.8822045  32.3706913  41.9889307
  19.3901324  33.4135890  42.9693460   5.2379876  38.5828614  53.7131262
   4.6238708  39.0528154  53.1489992   4.7002009  37.9297972  54.1609240
  13.4545089  63.1002745  64.5892971  12.7280821  62.8204546  64.0323095
  14.1403617  62.4512396  64.4324747   1.5657139  29.4689727  38.1626511
   1.8029824  29.0443206  38.9870334   1.1253089  30.2765775  38.4273171
  31.8704534  14.8749340  47.0297527  32.2345281  14.0069008  47.2035313
  31.0884476  14.9211740  47.5798082  23.2742643  40.6083441  63.3206701
  22.5704885  41.2569571  63.3053732  22.8366494  39.7851682  63.5377121
  14.8157811  32.4076462  62.6430273  15.7311368  32.6242113  62.4656677
  14.8083818  31.4548087  62.7340031   4.8073387  29.9706221  55.1682806
   3.9675260  29.5119405  55.1446867   5.2639419  29.6749544  54.3806744
  16.3375461  43.9517164  59.8967314  16.0565555  44.3441725  60.7233286
  17.2382545  44.2545986  59.7817612  72.4454933  45.1431894  51.9304800
  72.0082974  44.4359112  51.4562941  71.7927116  45.4484558  52.5604916
  13.6092210  41.0140419  43.1990099  14.3779123  40.4440641  43.1773043
  13.1188023  40.7849360  42.4095583   5.4537912  41.8738134   4.7068098
   5.2151223  41.6007526   5.5926493   5.6759854  42.8008117   4.7936180
  74.8238122   3.7300271  62.4727058  74.7355103   4.0904802  61.5903759
  74.4773990   4.4134682  63.0464125  43.5696014  67.5438418   0.5417231
  43.3915182  66.6078104   0.6331948  44.5120367  67.5938477   0.3818920
   2.4201357  64.7962189  39.7874570   2.4199414  65.5353022  40.3957272
   2.9797566  64.1419268  40.2057362  16.9735742  29.5540667  46.6121435
  17.3412299  30.2399516  47.1694803  16.0371053  29.5608807  46.8101692
  66.7961293  34.2038202  44.3837452  66.1505741  34.2790914  45.0864744
  66.5564400  34.8924041  43.7635565  67.9439312  31.6534591  57.3368025
  68.6582011  31.3325405  57.8873110  67.2792536  31.9527054  57.9571915
  54.0824538  36.6155791  57.4962234  54.9218923  37.0366406  57.6813793
  54.2555409  36.0603261  56.7359829  11.9351876  26.8797135  63.1980896
  11.4794815  27.1403217  63.9984941  12.6991785  26.3918066  63.5054970
  67.2888177  14.0750682  40.9021568  66.7956406  14.5204794  40.2132320
  67.5388247  14.7732484  41.5073586  68.6751789  58.4594011  63.7659597
  68.9229077  59.3823528  63.8209200  69.0267509  58.0689907  64.5660877
   3.9724490   4.1722211  63.2602596   3.0821133   4.0064558  62.9503298
   4.5049807   4.1820204  62.4649334  15.7723992  30.7259407   6.7111710
  15.3381507  29.9444094   7.0530394  16.0653226  31.1976042   7.4908903
   1.9044353  35.8345509  57.3409748   1.4410883  36.5895200  56.9782591
   2.0067227  36.0401082  58.2702303   2.4252392  45.0684643  54.7924852
   2.0186073  44.2054081  54.8700428   1.8253618  45.5668640  54.2375278
  54.3188331  13.2875242   3.7469891  53.5958909  12.6718130   3.8673380
  53.8930080  14.1193047   3.5395172   0.3730382  55.5373478  37.6563478
   0.1985161  56.2569666  37.0497799   0.0699814  55.8604765  38.5048604
  60.8728569   9.5209771  44.0485620  61.0863656   9.3415093  43.1328964
  60.0484067  10.0059009  44.0116549   4.1830355   4.6395150  53.4865141
   4.1152334   4.2607599  52.6100588   3.4193867   5.2119696  53.5597849
  30.9379268  38.7804937  50.4062843  30.9361291  39.3768024  49.6575212
  30.1213408  38.2881784  50.3223562  72.7988577  57.4078274  41.2727308
  72.7427959  58.3090639  41.5903091  72.2233987  57.3870850  40.5081081
   6.4476025  53.0464554  53.7581444   7.1286702  52.3818493  53.8614988
   5.9912699  53.0546188  54.5995283  42.8269919  66.5319933  47.4991110
  42.4497863  67.0811857  48.1863764  43.5726079  66.1022462  47.9181650
  22.8318262  10.1739824  46.8797874  23.2555556  11.0082030  46.6778994
  23.1808805   9.5644820  46.2294769   4.2814108  68.1939019  16.4730910
   4.4745322  67.2620691  16.3700178   5.0192090  68.5370793  16.9771937
  10.8142241   0.8008362  27.2773957  10.5102619   1.3384939  28.0086708
  10.1668271   0.0989271  27.2108579   6.5995049  20.1956463  47.9970360
   6.0189551  20.9501028  47.8970909   7.4808514  20.5690241  47.9899597
  20.2760532  74.1616930  21.4108637  20.0334790  75.0837316  21.3258150
  20.5624964  73.9074887  20.5336169  70.1714229  28.8706660  56.5863609
  70.3109050  29.5626259  57.2328663  70.6041807  29.1913915  55.7951021
  46.3524696  71.5578927   5.4032448  46.7592236  71.6310872   6.2666252
  47.0176097  71.8834485   4.7967461  12.0962977   5.2259749  46.7888498
  12.6559913   5.8638418  46.3460159  12.6033926   4.4142032  46.7781830
  60.9041616  74.1336908  24.7540930  61.0262390  74.8099770  24.0877798
  61.3818999  74.4598450  25.5167273   7.2168881  31.1459017  60.0037575
   6.7374045  30.4706526  60.4837275   6.9757736  31.0057735  59.0880871
  77.6936847  65.0428915  24.9047732  77.1930209  64.3106556  25.2644920
  77.6043276  65.7375908  25.5571818  60.1595050  57.2690201  42.9178286
  60.4724377  57.5325155  43.7832069  60.4791623  57.9527426  42.3291254
  51.3187938  60.2550625  33.8428068  51.8422609  60.2337860  33.0417061
  51.0080697  61.1584913  33.9019561  43.4490666  74.0891692  60.1431942
  44.1140357  73.5142033  59.7644329  42.7451608  74.1010472  59.4946527
  58.0524188  48.5153341  49.1379786  58.5370713  47.7642012  48.7957191
  57.1338826  48.3038616  48.9712524  67.4658590  49.8521852  58.9447260
  66.8255537  50.4290295  58.5282040  68.0887502  50.4473639  59.3618584
  11.6062307  31.1790729  41.9724751  10.9541094  30.4996562  42.1438313
  11.2619150  31.9574523  42.4104309  17.5960267   8.2551765  64.5640469
  16.9936264   8.9782667  64.3894434  18.1266987   8.5581249  65.3008270
  78.6388065  60.1555957   8.8111189  77.7761891  60.1047982   9.2228678
  78.9625408  61.0268177   9.0400246  35.9158397  18.0019236  25.3861737
  35.4720545  18.7801671  25.7232547  36.0979342  18.2082605  24.4693875
  19.3191372  18.1299772   2.5594166  18.6296068  18.1071320   3.2229355
  18.8733660  17.9045716   1.7428902  59.8833560   2.3889055   6.7853573
  58.9830105   2.3714152   6.4608553  59.8224931   2.8207436   7.6374415
  45.2506208   7.2740835  41.5457439  45.2779865   8.0278474  40.9564018
  44.4896078   7.4339533  42.1038914   4.8463842  21.9590330  61.3229275
   5.2362698  22.2636819  62.1423244   5.0298965  21.0197592  61.3050365
  67.7995294  60.0776958   1.4119846  66.9778460  59.6012592   1.5306251
  68.4045630  59.4268417   1.0562389  52.2736465  12.6087271  40.8314177
  51.6282011  13.0341612  40.2669379  51.7943433  11.8902813  41.2441394
   4.3757594  47.4031115  30.8926749   4.9231786  48.1690407  31.0656524
   4.8507419  46.6741800  31.2917733   0.3565379  16.5010011  54.0047169
  -0.1797131  16.5587699  53.2139397   0.0203424  17.1938181  54.5732355
  51.0573503  48.7860038   6.1079863  51.0796806  49.7320379   6.2520436
  50.7133313  48.4272219   6.9260100  27.4577533  66.5934695  11.0873869
  28.3839942  66.6633333  10.8562401  26.9950165  66.9697084  10.3386858
   7.8585935  13.5120618  55.1156235   7.0251387  13.1060934  54.8773527
   8.1411535  13.0377507  55.8975601  78.1873671  32.9815412  53.0649614
  78.9325714  33.3212495  53.5604429  78.0719006  32.0880985  53.3884716
  49.3642541  73.8765754   8.5082987  49.6323987  73.3223261   7.7754000
  48.5529967  74.2893495   8.2121399   0.3803924  31.8888640  44.9979401
  -0.0024883  32.5746441  45.5450583   0.9874897  32.3532224  44.4217157
  31.1879661  67.1949448   3.4085730  30.9591203  67.6731672   4.2055443
  31.2993779  67.8753676   2.7446106  74.2195838  49.9541569  65.2022219
  73.2802099  49.8664045  65.3637981  74.2998528  50.7558346  64.6854019
  24.8369936  51.5516736   7.6716116  24.0523811  51.0219194   7.5302771
  24.9540284  51.5576531   8.6216095  18.2497072  51.1434841  61.5754604
  17.7426922  51.7096567  60.9935522  18.9401972  50.7842636  61.0183096
  72.8348503  22.0259128  61.5497312  72.4808273  22.8879152  61.3309908
  72.1983812  21.4075123  61.1909541  33.1108086   1.2061587  31.0482481
  33.7706916   1.5459147  30.4438093  33.5760669   0.5493417  31.5662840
  64.8184963  22.4949719  20.9618643  64.8562499  22.5591983  21.9161585
  65.6107184  22.9396154  20.6603602  60.5282992  14.5076156   7.9872495
  61.0029965  13.7519097   8.3333755  59.6215468  14.2091644   7.9168421
   2.7293986  50.8882761  32.7467394   3.5011405  50.5890417  33.2274723
   1.9948642  50.6968784  33.3298826   8.8050529  42.1428399   4.5576886
   8.2206770  42.8168185   4.2105702   8.2793518  41.3429569   4.5500925
  68.0009858   7.1938696   5.8881453  67.5883631   7.9499998   5.4707268
  67.2909550   6.5603199   5.9916142  23.8088226  63.7899971  26.9007015
  23.8018036  62.9462194  27.3526049  24.6940422  63.8632965  26.5439844
  56.7244798  49.3607950  54.1963053  57.2200042  49.9656296  54.7484493
  57.3169523  49.1569471  53.4726667  74.7562140  29.5254850  42.7346706
  73.8000953  29.5580459  42.7664280  75.0299677  30.4386163  42.8211546
  33.7271810  15.0602150  41.6995478  32.9832911  15.0612152  41.0971689
  33.5066152  15.7233644  42.3536205   4.1421369  19.2782927  51.2508106
   4.0882871  18.5098660  51.8190098   3.8668957  20.0071383  51.8069172
  53.4217688  63.4256496   1.9714859  53.2453009  63.8654508   1.1398199
  53.9777633  64.0381564   2.4530819  62.3331343   0.4714313   2.2223929
  63.2426421   0.2341953   2.4033478  61.9045119   0.4471507   3.0779198
   9.7235322  39.1523957  31.4997005  10.5913448  39.5342684  31.3681483
   9.3697286  39.0516376  30.6160140  16.2026525  50.4303217  19.1887295
  16.1830831  49.4852257  19.3392122  16.2292778  50.5206776  18.2361758
  60.4668519  72.5991081  18.0966043  59.5516006  72.6091962  17.8165245
  60.8627686  71.8859704  17.5956893   1.1616675  42.1496391  34.4613981
   0.8556072  42.3532677  35.3451943   1.1924385  41.1933565  34.4329810
  69.3557328  31.9131660  63.9365721  68.8056522  32.3293924  63.2729483
  70.2304882  32.2688890  63.7800646  52.6257688  52.2992134  34.4518089
  53.5392338  52.3867416  34.7241187  52.6514131  52.3788595  33.4982729
  16.3902736  30.5158496  57.1220398  16.7440689  31.3015962  56.7053127
  16.4620686  30.6895280  58.0606079  76.3831365  30.0528026  19.9138975
  75.9962845  30.8712578  19.6029174  77.1343830  29.9091029  19.3383884
  39.0867333  18.8580408  12.9546336  38.1952266  19.1257897  12.7315691
  39.5955543  19.6681109  12.9211787  15.5653735  72.4790348   0.8130959
  15.9454986  71.7204370   1.2561110  15.7638785  72.3399390  -0.1129076
   7.3622166  10.7158699   6.0483197   7.9834949  10.7856837   5.3234938
   6.5038334  10.6849375   5.6258753  21.9371533  18.2790446  55.9852409
  21.2742019  17.8512681  55.4432678  21.4397454  18.8712060  56.5493011
  20.8811831  15.9533644  14.8774064  20.9270430  16.2004685  13.9537895
  21.6966271  16.2836659  15.2544832  52.2866460  56.4585878   9.8124865
  52.0186969  55.6883611   9.3113020  51.8600436  57.1924724   9.3701628
   7.0989877  25.5328965  53.6870623   7.2071397  25.3759193  52.7490377
   7.5365818  26.3700271  53.8418341  29.0021447  41.6343106  32.2432497
  28.0592646  41.5741970  32.3968581  29.1477131  42.5491806  32.0023039
  14.5753228  14.5834055  24.0236929  15.4054486  14.2925730  24.4012430
  14.5183979  15.5103293  24.2556551  11.9496226  21.0577488  57.1577311
  12.0216870  22.0090508  57.2356129  11.9963443  20.7394099  58.0592346
  19.4412971  68.8256216  32.4725318  19.9401236  69.2347527  33.1796503
  19.8600364  69.1397667  31.6711569  24.8959851  58.5339975  32.3231506
  24.0992856  58.9036608  31.9425559  25.1505494  57.8383255  31.7169571
   8.7238222  67.5964212  60.5780220   9.4810462  68.1701851  60.4612350
   8.8845068  67.1544886  61.4117527  76.9148543  64.5496368  16.3921702
  76.8346014  63.6694241  16.0247195  77.2610303  65.0785828  15.6734145
  59.6327954  43.8204670  53.4487629  60.0773829  43.7024117  52.6093388
  59.6519094  42.9534578  53.8539362  63.7160271  51.6650915  53.0889606
  64.0889150  50.8307171  53.3735800  63.9598745  51.7339659  52.1659040
  11.1723220  25.1664710  38.0263114  11.0113621  25.9234214  38.5896492
  10.3258562  24.7226524  37.9738379  27.6861596   3.5185173  12.2565234
  27.0186949   3.5050505  11.5705657  28.3867836   2.9598612  11.9199765
  11.8338764  30.7208443  47.9715681  11.7397177  29.7821236  47.8097963
  11.2019765  30.9088635  48.6655283  58.7260490   2.2605823  33.9120412
  59.4756657   2.8207812  34.1132498  58.3946925   2.5941926  33.0782914
  62.3389129  38.9237252  10.6217030  63.1064485  39.3941441  10.9470108
  61.9256429  39.5334091  10.0103739  42.6716332  40.8327809   7.0721367
  42.1008866  41.1095085   6.3552693  43.2261877  40.1535740   6.6882399
  79.0794532  15.1736012  14.9529627  78.9202921  16.1070719  15.0927332
  78.5864060  14.9626484  14.1601017  79.6021778  24.7853971  43.9274025
  79.1708757  24.8417759  44.7800636  80.3657596  25.3570986  44.0069628
   5.8023763  67.5189924  62.4245167   6.3017637  66.8276310  62.8591061
   6.3673872  67.8083849  61.7081070  78.8318587  54.5690346  28.3338070
  79.1702417  53.8583279  28.8784409  78.5226267  55.2239704  28.9596343
  21.7673230  20.6601715  35.3212190  22.1930075  19.9496138  35.8009386
  21.3117909  21.1648369  35.9950399  45.9104689  61.9693150   1.0362032
  45.6623634  61.5877523   1.8782738  45.2751621  61.6128911   0.4152516
  72.8057116  24.6111202  27.7787852  72.3460912  25.1269698  27.1163058
  72.5046754  24.9703240  28.6134005   2.3105018  20.1015520  43.4424686
   2.6521331  20.0730729  42.5487614   1.6368696  20.7812142  43.4198332
  30.9336495  28.3039284  52.9894733  30.7994509  28.9400005  52.2868824
  31.7978907  28.5155988  53.3423376  22.5040746  29.2426610  54.0948343
  22.9632974  28.4264302  54.2926025  22.1722436  29.1212988  53.2052326
  57.7166563  20.6548905  46.1580992  57.6622706  21.4296556  46.7175770
  57.9901153  20.9937358  45.3056717  74.7315776  52.1377039  51.3784981
  75.2749189  52.9251337  51.3474560  74.1912544  52.2502136  52.1605587
  71.8587959  22.0533371  47.7639771  72.0119017  22.4681783  48.6129141
  71.2101865  22.6132321  47.3372984  52.5606724  60.8386935   4.8984459
  52.4604055  60.7433619   5.8455923  51.6741940  61.0082020   4.5796088
  29.9015855  57.6867046  12.1843556  29.3916186  57.8881277  11.3997534
  30.2754434  58.5270991  12.4493054  62.9729706  43.6800480  61.4904881
  63.5729712  43.8144827  60.7568932  63.2945901  44.2681313  62.1738243
  59.8833126   1.8826447  61.3584566  59.5238048   2.3221035  62.1290827
  60.2528745   1.0676172  61.6981411  48.8833075  24.3827200  52.8206825
  48.4334236  24.8003626  53.5551262  49.6958118  24.8793912  52.7237940
   4.4804060  46.1068106  58.0167437   3.9633021  46.2393188  58.8112736
   4.3718877  45.1779795  57.8124714  13.8781595  30.9647822  50.1958752
  13.2129347  31.5273023  50.5924559  13.4350169  30.5581689  49.4512129
  78.9780239  21.2899685  40.7524633  78.6994289  20.6878805  40.0624561
  78.7737573  20.8313131  41.5674114  25.1804399  19.3787837  63.7302971
  24.4134760  19.8609579  63.4212589  25.9020662  19.7075641  63.1942129
  15.0318336  62.7359581  36.7315149  14.6048355  62.1804523  37.3836803
  15.6223249  63.2917881  37.2400451   3.2839629  66.5230894  61.0957623
   3.9928484  66.7228842  61.7071486   3.4459704  67.0954943  60.3458738
   2.7360016  61.0431671  45.6636000   3.2687268  61.5310335  45.0355721
   2.1851286  60.4778051  45.1221800  59.6723573  56.3226357  28.5361842
  59.2936312  56.9169655  29.1839293  60.5822985  56.6077175  28.4527090
  63.9957945   7.6309195   4.2891148  64.3226235   7.5221958   3.3960322
  64.0272228   6.7509403   4.6644524  23.0602217  50.5721998  64.8396730
  22.8093147  49.6614361  64.9939013  22.6533914  50.7941723  64.0021467
  14.2893004  59.1880178  51.1816406  15.1935029  58.9002228  51.3074398
  14.3670142  60.0727987  50.8247805  16.0063314  63.1882763  62.0283222
  16.4350522  62.4091196  62.3823547  16.6670883  63.5896444  61.4639282
  15.4497671  23.0219579  39.6191525  14.9424398  23.6339402  39.0859270
  15.4187274  22.1980000  39.1329813  15.6380129  63.7498760  42.8827763
  15.9272516  63.6823845  41.9728231  15.4083729  64.6725273  42.9932976
  37.5351684   3.8834086  10.0127962  37.1534555   3.5132399  10.8087281
  37.5546198   4.8269215  10.1728895  24.6967690  30.1069060   6.3615254
  24.4309203  30.1235333   7.2809151  25.0996558  29.2465821   6.2442234
  29.8220944  32.9767013  57.7226305  29.1890407  33.4815025  58.2331657
  30.6755519  33.2908034  58.0212641  52.7565333  50.0111069  17.9797438
  53.0858489  49.7786571  18.8479307  52.3607656  49.2044200  17.6498106
  51.7803866  11.2465992   3.0427340  51.3083364  10.6986132   3.6697176
  51.4469655  10.9740820   2.1878699  76.4726826  46.6947545  11.7925099
  77.1415421  46.2793864  12.3368719  75.6883045  46.1635973  11.9298294
  73.3096915  49.2023802  31.6584873  72.5887429  48.6199427  31.8977261
  73.6973417  49.4597578  32.4949765   1.3928615  48.7464237  59.5384216
   1.7434482  48.3835936  60.3518581   1.5128802  48.0490732  58.8938046
  24.9875784   7.5682855  64.9508095  24.2031431   7.4241799  64.4215345
  25.6615615   7.8156149  64.3177176  37.3790209   4.6646633  13.1173542
  37.3894195   5.4897871  12.6322773  38.1270926   4.7265663  13.7113121
  18.5191846  16.1144376  29.8171854  18.6878467  15.3675210  30.3915548
  17.8238344  16.6030478  30.2576160  64.8370378  16.1389103  33.5742644
  65.3970282  16.4691534  34.2768172  65.2069692  15.2837267  33.3550623
   9.0360773  18.2837486  58.4592867   8.5462046  17.4672771  58.3611536
   9.4977945  18.1874084  59.2922163  12.8606832  33.6818051  56.4682007
  12.4610257  33.2268810  57.2095156  13.0597723  32.9874301  55.8401537
  73.3322561  60.5923939  33.3448482  73.9901376  60.8834219  32.7134013
  73.0743956  61.3900471  33.8068986  18.4075034  48.0661201  64.7791052
  19.0674186  47.7569103  64.1585159  17.6587939  48.3057404  64.2329836
   8.2396113  31.3102904   3.6732033   7.5350748  31.8855372   3.3749607
   8.3958589  30.7206621   2.9355315   8.2106286  29.6742296  57.3340225
   7.3863828  29.9294066  56.9196129   7.9714644  28.9573836  57.9215336
  25.1565099   1.8473192  37.2864389  24.8183799   2.7328861  37.1535063
  25.3418851   1.8000017  38.2243228   8.7206578  37.5148559  60.9880304
   8.8077271  38.4175420  61.2943125   7.7994829  37.4335766  60.7409239
  12.9423440  31.9772696  32.9490352  13.8918126  32.0667434  33.0311084
  12.5874245  32.6685691  33.5079336  50.7416173  65.7957401   2.6891592
  50.9507128  65.9589662   3.6088684  51.5930864  65.7522167   2.2540263
   6.6161233   9.3088847  35.1513720   7.3591787   9.5891470  34.6169996
   7.0114040   8.9894283  35.9625030  65.3513688  32.7427340  63.1750965
  65.9380012  32.6521516  62.4241734  65.1740616  33.6818457  63.2286024
  30.0114250  31.1319685  30.4271936  29.9653602  30.1775551  30.4838061
  30.9337401  31.3171768  30.2503681  24.1744876  26.3811898  51.6049385
  24.0076399  26.6619349  52.5047016  24.2959166  27.1964502  51.1182737
  67.7479428  52.2598982  64.0817261  66.8465382  52.4944544  63.8610792
  67.8840607  52.6271725  64.9551153  77.3030019  69.5880747  59.0244675
  76.6912788  69.5106936  58.2923174  77.7006113  68.7203979  59.0970898
  23.0185294  20.2605629  27.9713726  23.1657481  19.8501933  27.1192265
  23.0368447  21.2004304  27.7909613   7.7386415  32.0663428  42.9411983
   6.8149316  31.9759226  43.1753254   8.1210279  32.5650406  43.6632156
  44.4632433  29.2149916   2.7796677  43.9416032  28.5602179   2.3155573
  44.7350828  29.8308792   2.0992115  67.8877514  55.3287268  41.5572739
  67.0473450  54.9511862  41.8169117  67.6654535  56.1933756  41.2120152
  77.9647629  29.8214617  17.6068190  78.0459039  30.7483998  17.3822287
  77.5717203  29.4206848  16.8315008  70.5381113  41.5995693  61.8941545
  70.2080810  42.4980116  61.9047642  71.3436734  41.6463852  61.3792706
   1.4986922  47.3754978  32.7415490   1.5388145  48.3223200  32.8762412
   2.2874379  47.0393896  33.1671596  62.2557025   7.1764794  20.3495768
  63.0321716   6.8254128  19.9135950  62.0289795   6.5155688  21.0038164
   8.5128890  26.4544287   8.9568928   8.4029161  25.5151215   9.1046837
   9.1859351  26.7184105   9.5842293  14.4181931  34.5093012  49.6674252
  14.7676849  34.1709661  48.8430357  14.1413784  35.4022121  49.4617128
  11.4607286  51.7356730  64.8473740  11.3303053  51.9927406  65.7601357
  11.7103314  50.8126593  64.8918152  71.1953064  70.1997747  18.2174280
  71.4491459  71.0897841  18.4617213  71.6932102  70.0190152  17.4201468
  14.2201042  47.2387218  57.5425243  14.4730282  46.3698864  57.2304535
  15.0502539  47.6955748  57.6780558  47.1539974   9.5917028  50.9498787
  46.8943977  10.4888034  51.1597586  46.6235209   9.3610620  50.1872349
  26.3204336  64.8279095  25.0949454  26.9983077  64.8802662  25.7687235
  26.7495918  65.1407909  24.2986059   9.0226281  32.8717256  61.7239618
   9.0051663  32.3617935  62.5338364   8.4221697  32.4110746  61.1378860
  28.0991268  29.3291068  35.2582502  28.3591795  28.5023427  34.8519659
  27.8838730  29.9008274  34.5213437  55.9619161  30.6345882   8.6154583
  56.4342877  31.3613977   9.0214709  55.3672501  31.0532881   7.9931286
  57.4216761  14.5676794  12.7093581  57.8158306  14.0211668  13.3892086
  57.1135329  13.9453831  12.0505455  33.4479356  53.9640284  59.2211342
  32.6427627  53.4503412  59.1574717  34.1270399  53.3207273  59.4241428
  11.1302161  17.7445054  60.6357384  11.2931705  17.5914800  61.5664721
  11.4515257  16.9534218  60.2030945  16.8207240  41.6716528  53.9185429
  16.3775277  42.2026491  53.2568359  17.0669508  42.2959566  54.6010733
  29.3595266  34.5721602  48.6248589  29.7906089  34.2271018  49.4067383
  29.8753929  34.2283964  47.8955126  13.1924474  30.4435277  59.5895910
  12.8135264  29.7819591  59.0108204  12.4582458  31.0159707  59.8120499
  10.9692907  59.8150015  54.0165186  10.0702775  59.6158504  53.7550879
  11.2426043  60.5133200  53.4216356  29.1664075  69.3833055  12.4592522
  28.3890276  69.3566598  13.0171088  29.3836968  68.4635867  12.3071459
   2.1246393  57.9053745  42.3075887   2.2281082  56.9685528  42.4745986
   1.4066942  57.9583368  41.6767284  77.5466665  41.3544607  36.6106439
  77.9749053  42.1851635  36.4038277  77.2234216  41.0353470  35.7680821
   4.0002027   3.6070633  50.9007931   4.0247047   4.0949804  50.0776482
   4.3807322   2.7554595  50.6858540  74.5696785  13.5094238  40.4629707
  74.0433623  14.2877842  40.6456852  73.9642837  12.7775932  40.5819273
  28.7044973  71.4875139  10.5407122  28.0521005  71.3284935   9.8585680
  28.4601990  70.8920922  11.2492493  71.3921706  14.5261708  23.3379534
  71.3569491  14.9979725  24.1700533  70.5432062  14.6964827  22.9299239
  30.9197021  74.1447020  47.2754669  30.4290986  73.9721823  46.4718676
  30.2553082  74.4194555  47.9073858  71.4747016  27.6117411  19.6261767
  70.6459074  27.9183045  19.2582777  71.5239017  26.6905298  19.3708685
  12.6930285  65.2085543  38.5625386  12.9915202  65.4779196  39.4312024
  12.9482007  65.9298038  37.9872799  33.5067447  29.0037895  23.7154675
  33.5350581  28.4099747  22.9652548  33.7795522  29.8502136  23.3613920
  40.8063182  39.1244005   4.5606831  41.7188986  38.9169563   4.7616652
  40.8385953  39.5339015   3.6961010   0.6885706   8.9101258  14.8599890
   0.7966243   9.6135941  14.2199162  -0.1548661   8.5142174  14.6406582
  62.8722666  26.3386145  20.6416586  62.6010625  26.5998068  21.5216902
  62.2435074  25.6629648  20.3879050  79.4571249  49.3038788   6.3359145
  79.2142360  48.5381451   5.8154562  79.5336621  50.0129452   5.6974724
  13.3611667  59.3504667  60.4358053  13.9692438  58.7897968  60.9175968
  13.3683884  59.0013552  59.5445681  68.1341535  25.1270318  58.6653519
  67.3847967  25.1513243  59.2604208  67.8594154  24.5436835  57.9579258
  49.3470492   7.0843497  24.4878176  49.9142023   7.2690621  23.7391928
  49.9514507   6.9294014  25.2137163  55.5274602   1.3243223  55.7953787
  54.8774167   0.8107162  56.2748432  56.2247964   1.4822222  56.4317942
  77.9324037  33.4238195  31.9473195  77.1077114  33.8114786  32.2402978
  77.6896882  32.5522161  31.6348648  47.3547050  11.6555382  21.8717146
  47.3059507  11.4223362  22.7987909  47.1123692  10.8529545  21.4097929
   7.8514277  38.7744942  33.4818343   8.6353647  38.8076725  32.9335860
   7.3924528  39.5930376  33.2932547  33.8810908  26.6724673   7.5105551
  33.6021601  27.3336497   6.8770960  33.0727087  26.2260714   7.7625016
  49.5298852  20.7098809  34.8607233  49.5471771  19.9759855  34.2464522
  49.0136524  20.3906098  35.6008604  29.2026784   1.0504128  27.6140022
  28.8195468   0.4735209  26.9532156  29.2851504   1.8966509  27.1743369
  50.7369100  23.0206671  22.6354769  51.5902840  23.3122578  22.3146036
  50.2940230  23.8257399  22.9036978  73.2962221  65.2429390  46.0014963
  73.5807699  64.5876360  45.3644371  72.6412183  65.7620239  45.5348539
  77.3435166  59.3907356  44.4620562  77.3138159  58.9133453  45.2911806
  76.9444549  58.7948132  43.8281345  13.4440160  66.8688345  57.5216103
  14.2282486  66.9478655  58.0647182  12.7992892  66.4495230  58.0914688
   3.0689703   0.3733435   6.9510487   3.3528124   1.2815109   6.8466643
   3.0579029   0.2331820   7.8978661  55.5586883  16.4102341  39.5049047
  56.2560865  15.7872940  39.3004131  56.0101243  17.1506001  39.9102545
  26.6589189  69.2371368  46.7093086  26.8320775  70.1078176  46.3513041
  26.5289330  69.3848515  47.6460648  61.6894742  71.6233029  32.2342184
  62.1441313  72.4566139  32.3571375  62.3877116  70.9686245  32.2247198
  67.3151391  35.5703163  59.0281963  66.5285545  35.3317094  58.5377026
  68.0075460  35.6052780  58.3682060  14.6552801  55.3827429  47.5701666
  14.6709573  54.4256783  47.5662327  13.8572073  55.6111765  47.0935822
  40.6738218  71.4522351   5.2069786  40.4533704  71.0790242   4.3535450
  41.6276094  71.5319981   5.1943568   0.6581362  60.4951382  31.7860937
  -0.0289245  60.9779024  32.2455692   1.0308696  59.9171114  32.4518156
   5.0506371  68.9542961  34.4922900   5.2378893  68.3728313  33.7553573
   5.7424921  68.7672377  35.1267815  27.8293014  74.8433399  38.1185794
  28.5753441  74.3902206  37.7257204  27.7745438  75.6719303  37.6424766
  34.8080023  12.9017807  49.7033310  34.9760779  13.8439346  49.7212410
  35.1301011  12.5849415  50.5471897  22.1543094  14.4099117  28.5047174
  21.7490419  13.6485554  28.9198351  22.7005266  14.0416504  27.8102684
  25.4198748  13.8436199  57.7257252  26.0299404  14.3070007  57.1518517
  25.9572503  13.5548950  58.4633541  20.2634703  40.3050747  15.1065615
  21.2060438  40.4097452  14.9768523  20.1831709  39.9183979  15.9784964
  39.8494792  72.9855442  33.4730577  39.3154693  73.6084890  33.9660144
  40.3634787  73.5300159  32.8767467  34.5386748  36.0396471   1.2782410
  34.1094248  35.1848355   1.2426165  33.8448124  36.6649904   1.0691193
  14.5311867  12.5413552  10.0120190  15.3866707  12.6884785   9.6086195
  14.0108906  12.1247521   9.3250254  44.0951153  47.9438485   5.8964709
  43.8809606  48.5312821   5.1717022  43.3733483  48.0541255   6.5154436
  79.9743860  51.0480633   4.0972212  79.3201606  51.6671601   4.4211653
  80.1261680  51.3128605   3.1899861  46.2730714  22.2804810  48.9485884
  45.9490689  22.5701214  48.0957317  46.6252967  23.0734039  49.3528700
   3.2491337  19.8007956  10.8392504   4.0668665  19.9823895  10.3760317
   2.5628148  20.0488510  10.2198437  46.5059148  22.3880425  17.0720652
  46.5613155  22.4742403  16.1203650  46.9736581  23.1520167  17.4093893
  48.3652769  46.2370339  -0.3137085  47.4755226  46.4193573  -0.0115034
  48.9112662  46.3558808   0.4634693  58.1341107  38.2199755   1.6284302
  57.4610375  38.9005223   1.6358832  57.6724161  37.4295416   1.3486365
  67.7472799  19.2661562  13.1016949  68.6593525  18.9853802  13.1759957
  67.6895158  19.6653357  12.2336224  74.1407805  73.8343716  39.0596986
  74.0028167  74.7367430  39.3476605  74.6581477  73.4360504  39.7596288
  38.6855685   1.9182101   2.5502423  39.2296015   2.3591891   3.2027796
  38.3082806   1.1727061   3.0172661  64.0783974  16.1384941  59.5249796
  63.5959264  16.5537334  58.8101196  63.4386321  15.5617405  59.9424553
  58.7409972  42.4683418  20.4984167  58.6579584  43.2497730  21.0449484
  58.9646803  41.7691269  21.1126593   2.5140166  66.5306425  34.6822906
   1.9355687  67.0869160  35.2040100   3.2783425  66.3893604  35.2409315
   3.5349238  51.4761591  19.8520374   3.9397445  52.0916796  19.2409027
   3.2787865  52.0151949  20.6004143   6.0494291  15.5424824  12.6846054
   5.4185807  16.2622729  12.6721075   6.7025219  15.8076086  13.3322266
  68.2882786  55.0001574  44.3804646  68.1674337  55.3498363  43.4976578
  69.2312241  55.0587034  44.5342731  45.6036802   7.3404671  58.8716078
  45.7344421   7.7117611  57.9991007  46.4198609   7.5264240  59.3358231
  64.2609006  65.2436399  43.3215809  64.5335465  66.1024046  42.9984379
  63.3446187  65.1674223  43.0554008  79.0801399  48.3389797   2.6822975
  79.1113322  49.1300907   3.2202509  79.9509947  48.2822361   2.2890738
  22.5449324  73.1986713  29.5911264  21.9610262  72.5839520  29.1468167
  22.0517969  74.0185261  29.6208930  25.4584257   5.9845902  53.6183596
  24.6394584   5.6398083  53.2624817  25.8516850   5.2420975  54.0769243
   1.4181958  53.1201306   9.5174912   2.2705375  53.4203377   9.2018584
   1.0636889  53.8682118   9.9980477  33.6325850   9.6530987  52.6013184
  34.3698259  10.1176525  52.2052145  33.2546546  10.2828098  53.2152176
  79.0941899  10.9765854  30.5342844  78.3955972  11.5536585  30.2257517
  79.6184604  10.7967415  29.7538737  14.9379095   9.0154625  62.2736645
  15.4597553   9.8101593  62.3848724  14.1434666   9.3108917  61.8288994
  22.8597617  53.9474487  26.1398625  22.0807981  53.5245180  25.7785106
  22.5270414  54.7357845  26.5688825  17.3039281  58.9321756  31.9214368
  17.9338717  58.3497047  31.4970183  17.6814747  59.8061895  31.8224907
  11.7174113  70.6362104  23.7936115  11.1132443  70.4509687  23.0746555
  11.9950807  71.5403128  23.6462092  71.1192827  34.5157137   6.9415835
  71.3023739  34.5289889   7.8810147  71.2096183  33.5957995   6.6929320
  65.7501173  67.1712494  47.0649052  65.5310440  67.4965620  46.1917448
  66.4102793  66.4956284  46.9101238  48.8805072  13.5149327  14.3983105
  49.3226652  12.6774922  14.2589358  49.2871420  13.8719931  15.1878622
  69.8870497  49.4074478  28.5413912  69.8200397  50.1237431  29.1727999
  70.2312164  49.8185578  27.7484396  49.1088365  40.2190771   1.8615082
  49.2512058  40.3363934   2.8007630  49.7152291  40.8339873   1.4487007
  69.9088122  18.9674927  19.1989172  70.0315811  19.2156769  20.1151967
  70.7648065  18.6400581  18.9227057  51.1762744  28.1573811  20.2477721
  50.7632329  27.9928723  19.4000891  50.9146051  29.0502873  20.4724482
  65.6406109  41.4221421   6.8364504  64.7602110  41.0510102   6.7782334
  66.2143903  40.7304421   6.5069607  59.4334364  46.6333103  63.5385609
  59.4672441  46.3218784  64.4430542  58.5232306  46.5009499  63.2735395
  16.5694891  14.8869791   3.1088999  17.5260721  14.8547783   3.0968932
  16.3546597  15.7534638   2.7635172  61.4431807   5.7107807  55.2698469
  61.7930766   6.5626598  55.0088882  60.6474444   5.6085564  54.7477484
  30.7685423  64.8410463  61.7508554  30.0171161  64.3518543  61.4157629
  30.5179667  65.7599306  61.6554880  58.4820577   7.5826431  39.8631501
  57.6194235   7.1753288  39.9418259  58.4929629   7.9518391  38.9800835
  34.6191859  66.9885349  41.6113615  34.5628333  67.8144407  42.0919228
  33.7259102  66.6447258  41.6204262  10.5524098  26.6814223  11.1346081
  11.1173450  26.2159434  10.5178335  10.6802355  26.2262573  11.9669035
  70.4442787  60.1233292  58.6720324  71.0877818  60.2454567  57.9740191
  70.6252205  60.8306599  59.2910433  69.9719965  23.0908322  37.9743934
  70.0449162  23.7620592  37.2958899  69.0958816  23.2138300  38.3398056
   9.6101767  54.5751143  48.0303288  10.3622019  54.8042011  48.5764122
   9.0886390  55.3768587  47.9923820  40.1943016  73.1983137  27.7653146
  40.5970097  74.0571404  27.8936911  40.8421898  72.7023888  27.2647858
  50.7707882  58.5694838  60.1577950  51.0934830  59.0800571  59.4152212
  50.8852816  59.1464043  60.9129667  12.3591125  71.2165260  58.2808828
  12.5059497  71.7183876  57.4791288  11.7554748  71.7545843  58.7930775
  27.5194955  53.4818935  34.1042185  26.7359090  53.5766363  34.6457434
  27.2108507  53.0443287  33.3108044  42.8320058  14.2802502  34.3833327
  43.4450694  14.0552116  33.6835146  42.1948691  13.5659004  34.3824911
  50.2426692   5.6512333  49.3112087  50.6722637   6.5020824  49.2231750
  50.2730890   5.4634930  50.2493238  46.1669596  18.7813164  62.9582930
  45.3678163  19.2646576  62.7485704  46.1706170  18.0467487  62.3445892
  37.0433068  63.4121513  40.0313520  37.2238612  63.4525776  40.9705019
  36.7396235  64.2919302  39.8077536  51.1780258  22.0546700  55.1674557
  50.3660651  22.4538685  55.4798555  51.5571781  22.7099396  54.5817089
  46.8306808  51.5524330   8.2677344  45.9352879  51.4799919   7.9371956
  46.7290168  51.8526306   9.1709355  34.6226200   1.8602205  39.2655206
  33.8435342   1.4357210  38.9062738  35.2663096   1.1557222  39.3402004
  68.8672869  54.9248352   7.4295977  68.4568755  55.2216091   6.6173628
  69.7710399  54.7279206   7.1832541  40.0401803  59.6068920   2.6107004
  40.0851782  60.4192509   2.1064404  40.8953401  59.5411052   3.0356768
  71.0542437   0.3268314  62.2249794  70.2872702   0.2182032  62.7872849
  70.8648106  -0.2096771  61.4552355  70.0017361  24.5447149  20.8888987
  70.5341928  24.2588892  21.6312102  69.4842808  25.2733507  21.2317828
  44.3516132  19.2614819  52.5113487  43.6536308  19.6297050  53.0530643
  44.9250945  20.0041557  52.3222113  62.7855301  50.3414631  57.5382423
  63.0997038  51.2035513  57.2656059  62.5755501  49.8929882  56.7190933
  64.9918290  13.3604980  48.2811880  64.7573444  14.2878033  48.3178568
  64.6385261  12.9919125  49.0908480  19.7319210  69.9409294  49.4368935
  18.9556932  70.4744959  49.2665672  20.1145983  69.7919607  48.5722542
   4.4861375  32.3203650   4.0312842   4.3349658  33.2609072   3.9377240
   5.0641643  32.0969429   3.3017615  76.6064974  10.4362465  45.7212400
  76.8087288  11.2396885  45.2418661  77.3565432  10.3086735  46.3020945
  61.0393950   8.2036568  29.0698791  61.6243621   7.5181080  29.3924689
  60.4987618   7.7670265  28.4116268  62.0348140  23.6421085  24.1159105
  62.9853197  23.6351276  24.0031290  61.7470475  22.7948643  23.7758994
  28.2171383  21.7176701  26.3648534  27.4172249  21.4921165  26.8397164
  28.1712094  21.2019897  25.5597448  70.3730484  48.2991577  45.3626585
  70.8122917  49.0600849  45.7425117  69.7398802  48.6701561  44.7480869
  31.3065850  20.0053921   5.5533627  31.5485321  20.9052792   5.7722214
  31.7440211  19.4716826   6.2167147  58.7969538   7.9513241  34.5750499
  59.6773788   8.2938648  34.4209242  58.5010644   8.3991600  35.3675938
  63.7881633   4.8706127  45.6675720  64.5568200   5.1386715  46.1711025
  63.3595797   5.6925655  45.4289436  42.3284777  24.3696476  16.9336319
  41.4459165  24.6490646  17.1770310  42.2039338  23.5146881  16.5216017
  59.8814150   2.9821421  56.7935038  60.2412172   3.0433060  57.6783943
  60.3023144   3.6956669  56.3139629  30.0199628  68.5951328  17.9502010
  30.6655407  68.1549025  18.5030663  29.3864799  68.9616823  18.5671067
  25.5874491  53.3852530  25.7591414  25.7436204  54.3291998  25.7307434
  24.6348023  53.2989264  25.7238507  22.8920971  55.5919972   7.5038269
  22.0544659  55.9736576   7.2412613  23.4917246  56.3368645   7.5468043
  15.0301968  61.8247357   2.7468470  15.2265011  62.7539959   2.8659371
  14.7993313  61.5145817   3.6224774  75.1695963  23.5025860  27.1362042
  74.3143889  23.7577606  27.4822378  75.6489512  24.3266750  27.0506549
  76.6369765  32.1491614  16.1326006  77.2314207  32.8761759  15.9473494
  76.4736740  31.7496338  15.2782420  34.6919394  66.4048195  31.0549974
  34.6603012  65.8085108  30.3069019  35.4661608  66.1311531  31.5468526
  72.1439930   6.5712620  22.9836416  72.3467442   6.7289043  22.0615387
  71.1901661   6.6343380  23.0333233  20.0572815  28.5162807  33.5223150
  20.6579437  27.7739025  33.5879397  19.1929903  28.1406189  33.6899877
  21.1536455  68.4200668  51.4782667  20.6639624  68.2800388  52.2887182
  20.6161261  69.0328693  50.9764910   3.1440630  11.5858818  59.2398357
   2.4768343  11.9666554  58.6688280   3.4654989  12.3238350  59.7578478
  59.0406915   6.6315151  31.6280699  58.8675638   5.9972168  30.9324217
  58.2166072   6.6873623  32.1118021   3.2440888  41.3881054  30.5884627
   3.2324849  40.4381790  30.7056597   2.3349248  41.6166964  30.3950671
  66.7556477  74.1556311  62.4128914  67.4387598  74.7223139  62.0544815
  66.0247612  74.7466135  62.5939369  52.3505422   3.1666304  57.1856213
  51.4240595   3.2474066  57.4122000  52.6526447   2.4050642  57.6805782
   1.5660726   7.6411000  16.9934824   0.7589303   7.8542891  17.4617747
   1.4662682   8.0627289  16.1399535   9.0080057  38.5956803  16.0700873
   9.8926197  38.4983864  16.4225367   8.9420997  39.5227089  15.8409384
  40.3871059  56.3055468  39.2679644  40.9153318  57.0991421  39.1818643
  40.2322006  56.2218428  40.2088308  64.2053529  25.3325344  48.3109713
  64.9179169  25.9623505  48.4196520  64.2624065  25.0621105  47.3945379
  61.9910006  17.2056189   4.6287087  61.1971627  17.3428478   5.1456431
  62.2671394  16.3151636   4.8456553   4.8277651  12.0588246   4.9970606
   4.5461880  12.9468289   5.2170494   4.2552768  11.7978277   4.2756918
   8.1185188   8.4833885  48.4653759   8.7530365   7.7759911  48.3504486
   7.4559441   8.3223034  47.7936029  23.5120702  59.1804981  64.2210197
  23.4207892  59.9052382  63.6024284  24.1069865  58.5688353  63.7872219
   6.6897951  42.0878496   1.2455157   6.9228231  42.8030052   1.8375328
   5.8869182  42.3839417   0.8166149   2.3258840  62.2776737  20.3211573
   2.2360550  62.0332089  19.4000700   3.2709180  62.3299637  20.4640177
  32.5472437  41.0691729  18.5956744  31.6617619  40.9122410  18.2677725
  32.5158011  40.7933750  19.5117453  35.5200293  12.0757843  47.1454906
  35.2241024  12.5549866  47.9194593  34.7601887  11.5580917  46.8792772
  71.6097002  30.6191054   3.4196642  72.4914150  30.2643767   3.3057383
  71.2054639  30.0502291   4.0748003   7.7445736  15.6960560  15.0311232
   8.0206671  16.3920761  15.6274140   8.5542669  15.4045273  14.6120286
  74.0139787  55.6889382  33.0104616  74.6083562  55.2231159  33.5986498
  74.0158169  56.5902748  33.3326510  58.5605093   3.0713297  26.8774986
  59.1120335   2.3224331  27.1037984  57.7675220   2.6820732  26.5088749
  66.0648962   9.0704514  62.7365160  65.6748124   9.8019577  63.2150221
  66.9652840   9.0266300  63.0584049  34.2320037  69.7072411  28.3323503
  34.5125484  68.9492273  27.8195763  35.0309443  70.0166321  28.7592030
  27.4182749  51.9169760  63.9586020  28.1974101  52.3854160  63.6590242
  26.9575071  52.5477457  64.5118284  29.5959735  73.1149721  45.0801897
  29.8857260  73.8285255  44.5117569  29.0458393  72.5693417  44.5181656
  27.0628392  44.3716755   9.0488175  26.3173472  44.2818680   8.4551743
  26.9214331  43.6984768   9.7144249  67.3255157  71.4492226  61.4956856
  66.5481949  70.9186459  61.6703176  67.1392870  72.2910213  61.9115305
   7.5741386  68.9233828  30.4793024   7.3895931  67.9852533  30.5250764
   6.9786894  69.3160439  31.1176515  29.4898367  72.9079199  36.3123012
  28.8734984  73.1821299  35.6332064  30.2275538  72.5349045  35.8297372
  52.4257370  14.4317032  33.4473872  53.2774802  14.0678955  33.2057166
  52.1806928  14.9822117  32.7036619  34.8111864   5.1108242  60.3003025
  34.5766731   5.7854534  60.9375811  34.0334835   5.0209118  59.7495556
  39.1279531  54.2339230  35.1944137  39.5174289  53.8118458  34.4286513
  39.0253639  53.5268211  35.8313704  57.5655910  17.6578308  48.5636377
  58.0583163  18.3866669  48.9407969  57.6520797  16.9527889  49.2052412
  58.0325937  61.6314363   9.8160940  57.7099562  61.2771988  10.6447411
  58.3457851  60.8660078   9.3341571  44.1924381  63.5862303  37.3990679
  44.3868923  63.2352924  38.2681274  44.4379759  62.8839779  36.7967486
  50.5465361   8.3174397  51.6103411  51.0317536   8.3630062  50.7864952
  49.8925277   7.6336552  51.4656115  68.5726623  53.3313313  19.9253348
  69.2230384  53.3525505  19.2233446  68.4360866  54.2509308  20.1531771
  66.5250369  23.5742546  44.3886089  67.0792910  22.8385807  44.1281986
  67.1409508  24.2792965  44.5881033  74.0874767  74.8055744  33.1737852
  73.1347084  74.8147202  33.2652926  74.3570280  75.6992722  33.3856273
  72.9065701  20.4137207  50.4367447  73.6182495  20.4370190  51.0764313
  72.9347273  21.2729050  50.0157356   4.9541461  65.8049917  26.9202638
   4.8404408  65.6490326  25.9827256   5.1540178  64.9424696  27.2840405
  26.9204603  40.6130924   5.6157044  26.3778626  40.7004013   4.8319987
  26.4232527  41.0580101   6.3020447  51.0702273   8.0408360  22.5624537
  51.0003325   7.9476143  21.6123724  51.1547323   8.9835812  22.7050400
   0.2198254  43.5636749   5.9955958   0.4969465  43.2939091   6.8711880
  -0.6676878  43.2161179   5.9075716  10.0710975  38.0208054  12.0902756
   9.1506182  38.0427113  11.8286112  10.3698551  37.1459093  11.8422249
  54.4605514  10.3200508  52.2636843  53.5943409  10.2555538  52.6658726
  54.3752166  11.0261608  51.6230869  32.2014366  37.4147644   0.9834221
  32.4568449  38.3364239   1.0227516  31.3278614  37.4247923   0.5922726
  16.2907587  34.2598191  14.9586562  16.2338244  35.1335612  15.3453997
  17.0809828  33.8792458  15.3419855  33.5163008  49.0085259   4.6815422
  34.1820608  48.5407295   5.1856879  32.7104079  48.8946095   5.1853159
  64.2680566  24.3035593  32.9880694  64.6079378  25.1478138  32.6915053
  64.1830556  24.3994322  33.9366511  70.2988239  16.1415554  50.5250502
  70.5281349  15.4521347  49.9018669  70.6852528  15.8547092  51.3524675
  46.8091746  35.7032467  49.2292500  46.1330398  35.7438255  48.5529137
  47.3423835  34.9452663  48.9896917  66.4038210  35.1074496  30.7719878
  66.6954355  35.1507941  31.6826514  66.8796305  35.8133164  30.3342799
  47.7638340  62.7584839  47.1724224  47.1701002  63.1066799  47.8376102
  47.7754307  61.8147707  47.3321104  31.6927268  13.3063484  59.1562891
  32.6472958  13.3771015  59.1611910  31.4810633  12.8647114  59.9787140
  65.1053673  56.7125702  34.7186112  65.5889398  56.5593481  35.5303454
  64.2236167  56.3872623  34.9000573  54.2945480  59.1493654  50.0541687
  53.9828587  58.4539461  49.4749689  55.2252913  58.9613056  50.1749277
   7.2357808  52.9991856  31.0442141   8.0620991  53.2954445  31.4258650
   6.6281306  53.7227192  31.1974791  49.1838380  23.9477039  38.0320621
  49.7648092  23.3643318  38.5203052  48.7513515  23.3777882  37.3961568
  53.5833107  26.4318600  14.4548920  53.5090958  27.3766413  14.3203190
  52.9719292  26.2425556  15.1666621   4.8878800  23.9091292   9.3769577
   4.8209058  24.8596659   9.4676665   4.0392696  23.5798826   9.6730784
  72.6657753  40.7339516   5.1180342  72.1727090  41.0092201   5.8909157
  72.4559741  39.8053732   5.0182751  61.3646936  49.5079136  55.2038479
  61.2024021  48.5820293  55.3844786  61.6502810  49.5272732  54.2904520
  20.3396606  72.0129251  52.4989700  19.7439647  72.3271322  53.1791592
  19.9081743  72.2452116  51.6767216  50.9792491   2.3436523  19.9059844
  51.7753192   1.9790674  19.5192242  51.0709115   2.1773840  20.8441663
  50.4321905  13.0609871  49.7155142  50.7604357  12.1621967  49.6897650
  51.1893388  13.5991932  49.4846725   3.2936754  72.6566924  47.3051050
   3.3535900  73.0371465  46.4288023   3.6590614  73.3268656  47.8826788
  72.4238555  27.4945202  15.9925345  73.2006078  27.0053950  16.2639120
  72.7558379  28.3618918  15.7608298  48.0477162   4.9414516   1.1669014
  48.4198209   4.7730804   0.3012111  47.2039434   5.3566338   0.9882950
  53.2453128  17.4406315  43.8599682  52.5429221  16.7903496  43.8565445
  53.7123915  17.2843624  44.6807289   3.3723387  67.5786543  38.0811739
   4.2049468  68.0479479  38.1337047   3.6029151  66.7210197  37.7240562
  40.5567265  55.9821653  42.0245028  41.3825607  55.5555725  42.2530890
  40.0227165  55.9097147  42.8155899  42.4571248  23.3925797  39.5612621
  42.9799183  22.7084232  39.9794245  41.6730484  23.4614635  40.1059723
  22.8871083  73.0697203  48.5384226  22.5351405  73.6153173  47.8350925
  23.0127120  73.6738586  49.2701817  56.1819696  71.1914778  41.7370176
  55.8237505  70.3950596  41.3450623  56.1049223  71.0496616  42.6805115
   5.4774033  42.7590218  30.2533511   5.6110607  43.1061402  31.1353281
   4.6681486  42.2516289  30.3157500  47.8357267  72.5498343  29.6696186
  48.0813837  72.2797298  28.7847853  48.1086731  73.4656239  29.7249413
  63.3760309  64.3091011  39.2040491  63.4139061  65.1031685  38.6708999
  63.1842661  63.6099148  38.5790730   9.5751133  20.6936050  42.3917818
  10.2320137  20.1074863  42.0160484   9.6020594  20.5126549  43.3313370
  29.9386978  59.7861242  27.7384329  30.1103759  59.2736244  26.9484329
  30.4392600  59.3440676  28.4241891  34.0367876  46.5114823  11.5138272
  33.2572542  46.7719879  11.0232189  34.4994437  45.9124222  10.9279135
  70.6808424  59.8871613  32.3444724  71.6098213  60.0888109  32.4565864
  70.3092337  59.9741459  33.2222962  56.6457435  21.4451576  41.7856979
  56.6508504  22.4022938  41.7949963  57.3653313  21.1961533  42.3657179
  49.3871804  12.5705887  62.6147652  48.7050148  11.8991352  62.6207447
  49.5338198  12.7547909  61.6869688  36.7563598  42.3384228   0.6240538
  37.1958129  42.2414580   1.4688710  36.9187991  41.5098849   0.1730898
  79.5113846   7.1593834  20.4840183  78.8076063   7.1191860  21.1315608
  79.7865196   6.2493874  20.3725076  25.5315100  44.4079342  14.9379423
  24.6254622  44.6255532  14.7189596  25.7178580  44.9213066  15.7240465
  47.0602083  68.3989763  42.0901680  47.5745296  67.7133512  42.5163412
  47.5329399  69.2084265  42.2839403  77.9699612  40.9278822  47.6157093
  77.2179651  41.3837385  47.2376490  78.3667517  40.4666662  46.8767452
  32.2715831  72.4190283  24.1623378  32.8904891  71.6889238  24.1503811
  32.4186063  72.8438282  25.0074196  17.5306307  41.7687264  17.1964529
  17.3804652  42.4013939  16.4940241  16.6548573  41.5580216  17.5202730
   9.3505162  72.0492268  42.9759312   9.4339305  72.5335503  43.7973309
   9.6891737  72.6473522  42.3097563  49.6513816  15.6840206  37.2405052
  49.9412008  15.0520588  37.8984261  50.3446194  15.6776024  36.5804982
  64.9775811  22.8324677  51.2881279  64.1601177  22.9658962  50.8083534
  65.2519342  23.7132431  51.5434647  42.6031383   1.9919086  32.4233007
  42.5260552   2.7903248  31.9009805  42.7984007   1.3059641  31.7848754
  67.6211064  49.9988976  14.4079521  67.1577804  49.7450295  13.6097601
  67.0669918  50.6722489  14.8026636  66.1177588  48.8850689  41.3573503
  66.9180489  48.9949274  40.8438301  66.3589716  48.2672644  42.0475435
  20.7235312  65.0468111  63.0079794  21.0426569  65.3619862  62.1623707
  20.5084133  65.8425760  63.4945107  46.5262365  57.6188898  40.9329700
  47.3614597  57.2263718  41.1870432  46.3061333  58.2038832  41.6579294
  67.5695896  74.6359682  24.5871806  67.4865961  74.1922426  23.7431121
  68.4844446  74.5062065  24.8370576  67.8496699  75.2599278   4.5312193
  67.9580860  75.3592243   3.5853747  67.9530744  74.3211498   4.6869114
  56.7628241  55.8716440  44.5656919  56.7997980  54.9295521  44.4003820
  57.1350336  56.2678480  43.7778378  73.7417790   7.9297615  42.5959539
  73.4983202   7.0341755  42.3616743  73.1377121   8.1657959  43.2999611
  15.4262912  71.8907738  44.8323965  15.4046166  71.0517931  45.2926970
  16.3581264  72.0757246  44.7153139   3.0068265  13.4098711  20.6728056
   3.9072858  13.1883040  20.4355028   3.0441152  14.3346634  20.9169272
  20.2488470  61.4299440  60.0545073  21.0058665  62.0142221  60.0966167
  19.9833357  61.3158083  60.9670401  14.4245708  62.8643179  39.4460297
  13.9023876  63.6662197  39.4235730  15.0044298  62.9771042  40.1992083
  22.5875950  66.4614677  31.1581254  22.8733277  66.6609907  30.2666211
  21.6922998  66.7970657  31.2034464  45.9016132  65.9554052  46.5619612
  45.7320404  65.5274010  47.4011803  45.0750303  65.8828640  46.0847569
  78.9951321  24.7518135  64.4609547  79.2348190  24.7445847  65.3876305
  79.6881243  25.2590824  64.0382624  73.6909386  19.2039944  58.6679173
  74.2481705  19.0069939  57.9149771  73.2494827  20.0199486  58.4322071
  76.2746283  16.9596745  54.8236322  76.3731524  17.4675156  54.0182590
  75.7506701  16.2011982  54.5659256   8.2076162  52.5689125  25.7512569
   8.9018941  52.3155880  26.3595629   7.6460665  51.7959023  25.6933713
  47.6600762   4.4977880  41.2991333  48.0192729   4.5064903  42.1863413
  46.7122718   4.4522072  41.4249039  26.5592723  16.8826176  20.3975797
  27.4491201  16.5933968  20.1957035  26.0019974  16.3686157  19.8132217
  29.9747396  47.3817301  61.2725067  29.3012691  47.5535488  61.9306469
  30.6866908  47.9811621  61.4962053  14.0348997   6.4377857  45.2573013
  14.5667257   7.2323681  45.3024435  14.6723499   5.7252193  45.2111673
  58.1613927  25.5859556   4.0380266  58.8069742  26.2525168   4.2728833
  58.4981369  24.7787991   4.4270399  79.4437595  35.8346630  49.3511677
  79.5175358  36.2427021  48.4884405  79.2656799  36.5630127  49.9461651
  69.9701639  11.2924934  30.9671402  70.5012461  11.7064262  30.2868128
  69.2546459  10.8723331  30.4899311  65.2415900  32.8339663  20.7471350
  65.4655068  33.3103504  21.5466002  64.9287371  31.9832936  21.0548857
  34.6574627  49.2910805  12.9067734  33.7975584  49.4234696  12.5076845
  34.5995032  48.4298077  13.3203963  66.7317148  21.1389328  29.5885849
  66.2921997  21.1524654  28.7383652  66.2380787  21.7607189  30.1233125
  56.2416683  34.7028914   8.1137064  55.4409062  35.0946417   7.7650860
  56.9154488  35.3675499   7.9705695  57.9222775  65.6096840  30.1308131
  57.9614258  65.3010845  31.0360551  57.6739073  66.5313148  30.2024817
   2.2299757  26.3804127  44.5441914   2.4160423  27.0187927  45.2327251
   3.0898562  26.0468651  44.2881012  11.0797178  24.3147364   4.0847424
  11.4752160  23.4577456   4.2440537  10.1992260  24.2444744   4.4535664
  28.7385345  63.0934143  37.7729893  28.0409169  62.4508667  37.6437664
  28.6609173  63.6850119  37.0245147  20.0106406  62.0327663  20.4265642
  20.1076937  61.8010235  19.5029247  19.9267733  62.9862833  20.4267263
  65.7131910  59.6177578  38.0024791  64.9715614  59.3552256  37.4572325
  66.4762688  59.5172882  37.4334002  56.2954270  17.0026627  13.6047009
  56.8815552  16.9483175  14.3595055  56.4396511  16.1840525  13.1300333
  17.8348337  42.5985089   3.2750634  17.6931177  43.0715790   2.4550989
  17.0459162  42.0676460   3.3847359  75.2215763  36.4274574  53.4596443
  75.9916206  36.8627811  53.0939245  75.5738493  35.8375526  54.1260862
   1.5001812   4.9205853  52.4946356   0.5582228   4.8773933  52.6591921
   1.7468252   4.0216089  52.2772789  70.9447333  12.6483418  25.3128886
  71.2624355  13.1473900  24.5603943  70.9269186  11.7410637  25.0083351
  30.5595623  63.3449688  30.4539183  31.4619385  63.6526432  30.3685644
  30.1999317  63.4091416  29.5691660   3.3565890  37.0027247   1.5533570
   2.7457510  36.8748703   0.8275727   2.8776490  37.5497189   2.1759680
  55.6769663  21.6616797  27.6052332  55.1924878  22.4574113  27.8250599
  55.1724320  20.9550619  28.0081820  53.2081250  66.3759541  19.0766454
  52.5095106  66.5153598  19.7159708  52.7541447  66.0874628  18.2848716
  69.0625009  67.4549692  50.7406902  69.8421464  67.4106949  51.2942457
  68.3420215  67.2110652  51.3217688   0.5228932  27.5260735  33.7285471
   1.1054885  26.8244338  34.0192652   0.7011130  28.2496977  34.3292451
  56.9581637  73.8513144  25.9553623  56.7884532  73.6057364  25.0459003
  57.5785828  74.5777647  25.8955121  72.0633542  73.3317709  44.1027308
  72.8370362  72.8543234  44.4022179  71.3431352  72.9678011  44.6175528
  33.5873843  20.3536258  63.5764961  32.9716201  21.0395298  63.3184220
  34.3262340  20.8267030  63.9592892   0.5676238  10.8240080  12.8651512
   0.2747613  11.2657976  12.0681024   1.1852574  11.4361775  13.2651627
  26.7322183   0.1172170  12.2571015  26.3653350  -0.0632428  13.1225848
  27.1069169   0.9946672  12.3339999  30.8614175  21.9708386  12.9969672
  30.9157269  22.9261627  12.9717902  29.9843328  21.7896214  13.3347777
  29.9433585  71.7271795   1.7299107  29.4880631  71.4458312   0.9363201
  30.8724829  71.6502060   1.5130356  50.3015274  64.1501831   9.4196737
  50.7461811  64.3294119  10.2481616  50.9826632  64.2532217   8.7550914
  62.7289420  23.5115480  49.8393917  61.8048340  23.7600470  49.8618603
  63.1766945  24.2850351  49.4966602  63.7353310  69.8367356  34.9749517
  63.0984995  69.1268014  34.8932767  63.2146302  70.6359385  34.8950911
  34.1718695  70.0417768  52.7439785  34.7305200  70.8188703  52.7603626
  34.7768674  69.3149441  52.5959158  12.1695364  42.5621653  47.0318222
  11.6505730  43.0864239  47.6417923  12.7065301  42.0030975  47.5933456
  35.0927832  44.2215331  16.2752894  35.2007195  43.4333207  15.7430247
  35.2633037  43.9307739  17.1711806  28.3854160  74.2627943  34.1884518
  28.7708435  73.8920442  33.3945870  27.4407015  74.2044072  34.0458441
  18.8611531   5.8095819  59.4280338  18.3827126   5.8985567  60.2522993
  18.1782901   5.7521230  58.7597322  19.9611938   2.7357763  31.9531870
  19.8854256   2.2030282  31.1615634  20.8956003   2.9319146  32.0213652
  42.0319311  14.4779482  22.5506953  42.0224635  13.7031689  21.9886759
  42.9555778  14.7232428  22.6049021  44.1815600  72.4080594  50.2585554
  44.9393085  71.8233093  50.2693081  43.4318707  71.8263303  50.1328993
   7.6377833   9.8648185  38.0311966   7.3618603   9.0182984  38.3826256
   8.5893291   9.8685879  38.1350112  72.2554741  53.7509393  22.8070974
  71.3888428  53.5575913  23.1645870  72.5940857  52.9006480  22.5267768
   7.6591980   8.5082936  61.0165358   7.2829926   7.6738858  61.2966537
   6.9837701   8.9022267  60.4644060  58.3111306  45.3694566   7.1113184
  58.7526175  45.2573086   6.2694481  58.2255121  44.4810094   7.4570969
  46.8232208  24.6691203  32.8614831  46.4082628  23.8291097  32.6654649
  46.2869483  25.3144526  32.4008417  73.7574086  61.1616456  36.5190721
  74.1144833  61.7994009  35.9010124  73.9995560  61.5014540  37.3805404
  27.8718901  17.7173507  41.2118196  28.0595660  18.6220515  40.9617662
  26.9871759  17.5567532  40.8836079  52.4577014  59.4808220  30.8701038
  52.8500487  60.0427901  30.2019072  52.7225314  58.5946762  30.6234384
  65.5725378  23.2238531  30.9026480  65.4583925  23.8473868  30.1854253
  65.3933900  23.7328100  31.6932821  74.3689143  28.6864829  38.7954688
  74.9847877  28.4754539  38.0937576  74.6783042  28.1795764  39.5461726
   0.5243624  43.2666874  11.0419834   1.1052862  43.3636618  11.7965400
   0.3975919  44.1595125  10.7210052  60.7666168  73.3425564  56.0159254
  60.5150179  72.4387585  56.2058735  61.2819228  73.2836927  55.2114248
  73.2606993  56.9923614  36.8177891  72.5682077  57.0552956  37.4756098
  73.5370741  56.0764228  36.8478441  76.3675492  12.3832073  14.8057345
  76.1044042  12.8005686  15.6259707  76.7813627  13.0842772  14.3022564
  13.5487866  26.6791344  59.2280960  12.6846564  26.5290689  59.6114874
  13.4221983  27.4193239  58.6345243  57.9945074   2.6240339  10.8566788
  57.5582634   1.9405165  11.3653305  57.2811960   3.1754151  10.5351189
  11.3257742  38.6699104  34.5070982  11.2525547  38.8634396  33.5725307
  10.4279208  38.7253547  34.8342347   3.8711593  20.2468157  41.0300541
   4.0155929  21.1479759  40.7414722   3.1989369  19.9103844  40.4374599
  19.6655085  46.6725589   6.8366984  18.8427880  46.9490035   6.4330366
  19.4406530  46.5123345   7.7532128  12.2217357  20.9272623  33.9566994
  12.1166074  21.6197443  33.3042836  12.1846259  20.1148891  33.4518194
  48.7311727  15.4849160  12.2760141  49.5194584  15.4431534  11.7346346
  48.9333397  14.9391687  13.0359602  13.8810194  36.1050844  57.3571205
  13.3639383  35.4241347  56.9268131  14.4922948  36.4032269  56.6835594
  65.4568118   2.7813384  39.5738816  64.5890170   2.3863101  39.4895196
  65.9286064   2.1982646  40.1685810  32.1914506  19.7850728  37.1091127
  33.0907583  19.4601452  37.1527386  32.1662855  20.5055428  37.7388096
  67.4100536  16.2735307  52.8332424  67.8887731  15.5951190  53.3094978
  67.7900237  17.0961475  53.1417179  64.2052287  12.9462206  23.6540747
  63.2537430  13.0487216  23.6340714  64.5118433  13.6639023  24.2082882
  68.7463277   7.6937497  41.3835955  67.7893001   7.7081144  41.3725042
  68.9915985   7.3977518  40.5069780  47.0967384  59.6161689   5.0864056
  46.6954490  60.3795494   5.5016735  46.3830157  59.2066921   4.5973662
  15.2599096  16.6405559  60.5956697  14.8951304  17.2278726  59.9336815
  15.7148695  15.9653914  60.0922871  35.0990033   7.0226729  12.3867214
  34.8484182   7.7496243  12.9567921  34.2941284   6.5165174  12.2762108
  34.8634537  63.1665863  17.6417330  35.6522622  63.1342162  17.1004656
  35.1567628  62.8884234  18.5093859  21.0127783  19.2950487  60.6876659
  20.2010751  19.3956268  60.1904202  21.6119075  18.8581765  60.0823402
   5.7205546  13.3614123  19.4127035   6.5061575  13.5924804  19.9083531
   5.7706010  13.8971710  18.6210668  66.9098816  13.9303671  63.4032930
  67.0948980  13.9826046  64.3409882  67.5512144  14.5151935  62.9996808
  23.2686949  38.3422589  57.9513454  23.9628530  37.9021144  58.4419107
  22.5563502  38.4433365  58.5826778  64.9244652  45.3513097  52.8240585
  65.5098877  45.5782937  53.5465479  64.6050582  44.4753765  53.0407381
  33.3221629  35.8038744   5.8898285  33.3275064  36.6537288   5.4494313
  33.0906960  35.1793237   5.2023772  75.1596161  20.6635785  52.2227955
  75.8376544  20.2435350  52.7520037  75.6416866  21.1128950  51.5285683
  20.7487631  30.4516912  57.5398636  20.5236387  31.2622929  57.9964542
  21.6980815  30.4967380  57.4258423  79.1782398  21.1151099  19.3800819
  78.2533535  20.8729029  19.3336880  79.1785075  22.0708299  19.3268394
  75.1052657  29.5140934  35.6390238  74.2580718  29.9151087  35.4449034
  75.7445746  30.2002192  35.4473281  35.0481820  14.5040226  52.5064325
  35.8775783  14.0841222  52.7345085  34.4799447  14.3359208  53.2581520
   9.2424309  16.6259050  47.2920895   9.3847597  15.6794071  47.3028231
   9.7959131  16.9593620  47.9982758  71.7425761  67.0048826  34.8414397
  72.5873551  66.8853783  34.4075060  71.9668040  67.2276234  35.7449532
   9.9432510  14.9179459  26.2006426   9.5349032  14.6020103  27.0066643
  10.8535016  14.6286976  26.2639832  15.1442909  63.1770992  27.4444723
  14.8567808  62.3863316  27.9008245  15.6316268  63.6705589  28.1041932
  19.9385806  49.6501757   7.3916558  19.5614304  49.8811533   8.2405594
  19.4991829  50.2291848   6.7688301  14.7772872   6.0403830  30.2942371
  14.0745795   5.4050893  30.1569939  14.6493053   6.6917902  29.6046567
   5.5567366   6.5187359  28.7416768   4.9435630   7.2292471  28.9298892
   6.3421983   6.9596934  28.4178877  79.5094377   5.6829029  32.4892640
  79.5057311   5.4399151  31.5634274  79.9215744   6.5466177  32.5085545
  74.2378938   6.4471769   5.9895277  73.3477753   6.0961562   5.9629798
  74.7631722   5.8043414   5.5130017  61.1350385  68.9844011   5.7376415
  61.0889760  68.0589675   5.9778124  60.7903251  69.0177058   4.8452875
  29.3491507  22.1510363   0.6959666  28.9548063  21.5156722   0.0984412
  30.2052760  22.3412180   0.3124154  69.4520241   2.3412406  29.6618247
  70.1212722   2.0364469  29.0490937  69.4579941   1.6922119  30.3653574
  54.1943557  65.6518584  13.1968534  54.3782104  66.4282154  12.6679885
  54.9585049  65.0894402  13.0703866  17.8787903  62.7232157  52.3274708
  17.4859909  63.4102022  51.7889643  17.8837065  63.0864834  53.2130480
  21.2272692  23.0649424  14.7684455  22.0724010  22.8076172  15.1369154
  20.8083010  23.5737729  15.4625535  10.2434504  14.6199477   6.4666176
  10.0826800  15.4408276   6.9319588   9.4960034  14.0662658   6.6924274
  40.1895332  10.0332022  38.3228159  39.3585014   9.5655811  38.2394648
  39.9622345  10.8473659  38.7719321  44.0514753  67.9617559  53.9966393
  43.4451285  68.0108195  53.2576084  44.1919718  68.8734715  54.2521143
  70.5876503  75.4979015  45.7123375  71.4906034  75.3771343  46.0061455
  70.1400719  74.6943338  45.9772587  13.9345324  23.4319067  44.3745947
  14.8161268  23.2502222  44.7001934  13.6473453  22.6052475  43.9867878
  15.8408093  39.6487665  30.0441384  15.4408991  39.3334246  29.2336702
  15.5280149  39.0437937  30.7167435  17.6907384   4.1853514  29.0520144
  18.1468618   3.4022874  28.7438035  16.8030632   3.8845572  29.2464018
  38.8584542   3.4235215  59.5729065  38.5275555   3.9719182  58.8615704
  38.6450934   2.5296012  59.3052959   4.2703137  11.6963732  30.2013040
   3.6476830  11.0687995  30.5683398   3.8680869  12.5511086  30.3558111
  78.5307774  18.1023347  12.1710920  79.3002487  17.5575066  12.0058393
  77.7873401  17.5168931  12.0268989  64.2217824  64.3897151  57.5473213
  63.4965668  64.6295499  56.9704533  64.6269080  63.6342906  57.1213627
  23.0125957  39.2298201   5.1750687  22.2156318  39.4821116   4.7087744
  23.0394053  38.2755925   5.1046208  29.2347809  75.0638332  16.8759135
  29.4990876  74.1997065  17.1915987  29.4470661  75.0531162  15.9426192
  26.0543084   7.4267960  38.1266189  25.8596921   8.1295341  37.5065255
  26.7777991   7.7659678  38.6536455  15.8613896  37.4472308  55.8040810
  16.4518178  37.3591781  56.5523291  15.7422197  38.3915710  55.7028437
  15.0048637  43.3332634  46.8078089  14.1420269  42.9672289  46.6134834
  15.1227868  44.0264368  46.1583185  19.1639423   5.4342103   9.8545033
  19.9514771   5.4808670  10.3965759  19.3736362   4.7853369   9.1827714
  10.8224571   8.1889957  57.9002571  11.3035476   8.9790678  57.6541471
  11.3705289   7.4683273  57.5896358  77.9413321  35.7352042  14.9657476
  77.4906869  35.9755063  15.7753193  78.3786007  36.5398169  14.6871328
  76.7026940   3.7149861  30.8967233  76.7682972   2.8487545  31.2986827
  75.7618403   3.8807297  30.8371019   5.5464476  50.5703354  41.9476318
   5.8803982  50.2677011  41.1031675   5.9159577  49.9586535  42.5844526
  12.1878350  57.2707272  17.1449661  11.8594682  56.6397524  16.5044355
  13.0673337  56.9592905  17.3588014   2.0542455  28.5974669  27.9682970
   2.1305449  27.7107692  27.6159072   2.9009348  29.0030622  27.7816367
  13.6971211  13.3357751  48.8594580  13.5352457  13.6247122  49.7575378
  14.6363151  13.1530035  48.8322687  23.3709836   5.1841033  52.1482468
  23.4204602   4.3846881  51.6241121  23.7626290   5.8587897  51.5935898
   6.5332943  12.4858773  61.1208153   6.7352444  12.3005641  60.2036953
   5.7531852  11.9625902  61.3047504  11.4858353  34.1175675  22.3740911
  12.3564041  33.7201500  22.3540926  11.6463125  35.0524402  22.2456741
  78.9490667  33.0374002  27.5627112  78.3124411  32.9785490  26.8503380
  79.4824330  32.2476363  27.4731302  76.7789012   4.6266037  18.3247209
  76.4042356   5.5055070  18.3829153  77.6152223   4.7519594  17.8762960
  50.7910502  72.6892718  20.6031752  49.8945544  72.3586180  20.5466485
  50.7545738  73.5521006  20.1903462  68.9593550  71.1307182  29.9141768
  69.1914555  71.2007131  30.8401659  68.4952303  70.2963509  29.8459891
  78.0632338  25.5509520  54.8086405  78.0267763  25.1867628  53.9241791
  78.7379596  25.0365996  55.2518272  79.2709718  67.1866422  46.8439198
  79.8335538  67.9106568  47.1187592  79.6475825  66.4160429  47.2688580
  64.0733641  52.7224541   0.3354894  63.7487846  53.6185312   0.2464708
  64.7009974  52.7656174   1.0569083  32.4000635  51.5238132  30.2817419
  31.5768778  51.8688800  29.9360255  32.4193969  51.8179573  31.1924246
  72.0427346  38.4537268  31.0458684  72.8447318  37.9312801  31.0549307
  72.1997666  39.1447639  31.6893268  10.0964105  38.7466931  22.1469593
  10.1385093  39.6947169  22.0216322   9.6929455  38.6366034  23.0079627
  51.0115629  26.4933705  27.2459865  51.8333012  26.3370967  26.7806268
  51.1271196  26.0560226  28.0895519  55.8846521  29.6022344  24.0929389
  56.6019773  29.5924020  23.4592390  55.3060293  30.3015089  23.7888885
  24.8398304  38.2209039  53.5759974  24.6576810  39.1339159  53.7984037
  24.0590215  37.9285693  53.1057739  20.5390739  12.2890127  21.9364262
  19.7514772  11.8682063  21.5916848  20.9519243  11.6168869  22.4786758
   9.1145018  72.6262551  57.2459364   9.8456076  72.7878105  57.8422689
   9.2616419  73.2296892  56.5176153  14.4589925  36.4497209  43.0392265
  14.1081989  35.8813834  43.7249136  13.9358354  36.2419653  42.2650337
  56.4667368  17.2074938  54.0296030  56.1647797  16.4785504  53.4876680
  56.0636187  17.0537472  54.8840570  33.0439036   0.2717533  24.3148115
  33.4146147  -0.5978474  24.4651488  33.0646436   0.6927982  25.1741865
  29.3886256  22.6751065  34.2886400  30.2610159  22.9548693  34.0113306
  29.5514441  22.0303893  34.9771595  43.1701565  13.7117243  41.7837763
  42.8402424  13.3796906  42.6187277  43.1673145  12.9493940  41.2049198
  73.8595140  11.9324946  46.6496706  74.3540376  11.7224669  45.8574772
  73.7387305  12.8813004  46.6121244   9.8708156  66.0632752  47.3959684
   9.9252299  66.1537152  48.3473349   9.5318822  65.1787149  47.2584629
  79.7025092  19.3247628  21.6008258  79.4923068  19.9714220  20.9271193
  78.8885104  19.2185140  22.0931149  33.6790204  30.4658031   9.9435842
  34.1654229  29.6669888   9.7397691  33.9974475  30.7261682  10.8079016
   0.5604771  68.6215114  30.5617213   0.0406102  68.5408216  31.3613844
   1.4523772  68.7801801  30.8708644  39.3156363  74.1262111  56.7428675
  39.0894223  73.6538253  57.5440606  38.7087883  73.7865815  56.0851297
  11.6227162  19.3195665  48.6644936  12.3029959  19.6208858  49.2667055
  11.4060080  18.4385014  48.9694405  69.7143942   9.4876218  37.5372815
  69.1384226  10.1285779  37.1205521  70.5920118   9.7227103  37.2360301
   9.1098257  10.9157349  41.1889124   9.8252758  10.3486801  40.9011412
   8.5703143  10.3559567  41.7473125  12.7189314  50.6201696  14.3362236
  12.0436287  51.1608744  14.7459030  13.3921850  51.2435770  14.0635967
   1.5904789  29.5133519  45.7692575   1.1292191  28.9441562  46.3852835
   1.0144026  30.2707243  45.6655455  61.5808362  19.3270791   8.2207817
  62.4668985  19.0554047   7.9813677  61.5250724  19.1599619   9.1616291
  18.1754410  16.6506696  61.8144131  17.6213324  16.0372627  62.2970390
  18.6900020  16.0973024  61.2268400   5.0316405  40.1866007  40.4975176
   4.1245055  39.8822880  40.5245543   5.4774147  39.5604706  39.9270105
  72.9508096  45.2203798  21.9244480  73.5340380  45.2822638  21.1679769
  73.0663275  44.3252897  22.2433543  27.7721357  43.2435560  41.7932463
  27.3065948  42.4139547  41.6871357  27.7356815  43.4201288  42.7333164
  33.2526517  37.5917888  51.7734528  32.9963803  36.7003655  51.5369701
  32.6287293  38.1510997  51.3107204   3.9367127  34.1029310  45.9533739
   3.4860885  33.6545968  45.2377176   4.8663044  33.9491272  45.7847452
  12.1069928  74.8184599   3.7495449  12.3956653  73.9629688   3.4316805
  12.9167517  75.2745594   3.9786604  14.6988535  41.5478802  17.9110360
  14.7495317  42.4607372  18.1945026  13.9829147  41.1764193  18.4264791
  25.4238510   2.2256055  60.8195019  26.0226655   2.1802482  61.5648842
  25.8157730   1.6507636  60.1620913  43.2149935  33.7871838  44.0457249
  44.1534996  33.7884688  44.2339945  42.8292322  34.3116307  44.7474194
   0.4305561  31.8401718  15.7547033  -0.1546035  32.2550893  15.1209354
   0.5048410  32.4774337  16.4650631  39.1484165  36.2343764  40.2611065
  38.7104106  37.0825458  40.1904535  39.6782470  36.3038421  41.0552645
  57.0983325   6.4887467   1.3797692  57.5455181   6.0469237   2.1016053
  57.3931198   6.0252753   0.5958536  11.7816281  27.6376820  19.8460734
  11.7794776  28.4426785  19.3281841  10.8748078  27.3325086  19.8181665
  33.5386624  63.2397594   1.2397030  32.6489320  63.1106700   1.5682534
  33.7648758  62.4062432   0.8270148  21.8652582  22.7345037  11.6989684
  21.8651915  21.7777848  11.7293262  21.8087125  23.0032372  12.6159286
   9.3912971  34.9752259  59.0215635   9.7088599  34.1763377  58.6006546
   9.1872728  35.5639458  58.2949162  36.2811756  21.3661027   2.9156810
  36.3761497  21.3403583   1.9635522  37.0802808  21.7929673   3.2246351
  18.6387646  33.4032416  16.0875463  18.3614063  32.8391218  16.8093991
  19.5583844  33.1778216  15.9471285  26.0121489   1.4112055  39.9368382
  25.7458925   0.5422806  40.2373505  26.3850570   1.8292175  40.7130051
  14.1578209  43.1152630   2.9522702  14.3865383  42.4072838   3.5545024
  13.2007873  43.1328058   2.9556724  74.1725403  49.5828295  34.2293906
  73.9091032  50.4670048  34.4844651  73.9568150  49.0404129  34.9879932
  51.5505806  59.0571975  36.2092257  52.2579713  59.6215724  36.5211749
  51.3553237  59.3816291  35.3301072  74.8260660  59.1589031  65.3052558
  73.9066715  59.1687546  65.0390833  75.1928420  59.9591360  64.9293105
  63.5989655  56.1866591  62.3973292  64.2926086  56.7453668  62.7479563
  62.8228487  56.4203272  62.9065169   2.2702302  26.8858743   7.0947367
   1.3232836  27.0122242   7.0350724   2.6422811  27.6618457   6.6755950
  19.7689748  53.7078524  28.9427567  19.3080449  53.0219984  29.4258451
  20.6023860  53.3075190  28.6949968  10.4306281   5.0571710  30.8237791
  10.3826070   4.1733274  30.4594350   9.5944643   5.4591113  30.5881834
  50.2854940  71.8587460   2.1915987  50.4603358  70.9339012   2.3657254
  50.7521316  72.0413031   1.3760308  34.0804148   6.3685983  21.3780499
  34.0310645   7.3049003  21.5707541  33.8143635   5.9420687  22.1926188
  28.5922647  48.3602215  17.1948794  28.2344090  47.7062787  17.7953223
  28.6476605  49.1602875  17.7174261  31.2287831  22.7191401  65.0098515
  30.9853983  21.8941164  64.5899343  30.6336856  22.7928352  65.7559490
   1.0759751  55.8556795  21.5386271   1.4603780  56.3843632  22.2378850
   0.2124210  56.2421751  21.3932705  70.0954292  72.7941268  34.7301221
  70.8151648  73.4054594  34.5736432  69.9104807  72.8763219  35.6656814
   7.4524850  12.5116527  32.5903392   7.0851511  13.3598459  32.3416090
   7.2521591  11.9377673  31.8509102  12.9767764  19.8316360  38.5349536
  13.9006937  19.9541092  38.7531495  12.6317871  20.7200980  38.4463573
  28.7170219  14.1664636  12.3591387  28.1824422  14.9547005  12.4547350
  28.3038378  13.6820745  11.6443813   4.0345865  39.1258216  15.6609058
   4.8677960  38.8127947  16.0130548   4.1572753  39.1168904  14.7116435
  22.3012447  28.5569572  43.9037704  22.2629595  28.7859941  42.9751635
  21.3911128  28.5955667  44.1977024  66.4712939  75.0031795  44.5721483
  66.9628558  74.7195420  45.3429604  65.7353566  75.5015734  44.9274397
  29.6772432   7.3871666  47.8227043  30.2198935   6.7598534  47.3449564
  30.2728510   8.1055355  48.0358410   1.9677916  10.4863274  31.3697410
   1.8773764   9.7102040  31.9226336   1.3126966  10.3680515  30.6819248
   8.8579595  46.6592741  30.0482798   8.8406879  46.1579704  29.2330289
   9.3161577  47.4686718  29.8220873   5.0338352  21.6995192   2.3431246
   5.1068574  22.4085641   2.9819936   4.2594686  21.9217038   1.8261892
  12.8611338  18.6933506  43.4319115  13.0004919  18.4918582  44.3572283
  12.0231068  18.2818282  43.2207441  61.5441304  36.2366533  45.2692556
  60.7375794  36.6176915  44.9220991  61.6714710  35.4380107  44.7572136
  57.0327662  23.4460821  18.7332228  56.6019313  24.1767493  18.2896593
  56.9588240  22.7157727  18.1188753  19.4160903  24.9743247  27.6229835
  19.2495716  25.8201742  27.2070003  18.6598361  24.8346877  28.1929064
  69.9592278  74.3840967  16.3540363  70.6923721  74.9928913  16.2640345
  69.8909471  73.9630607  15.4971242  30.8249712  16.6584909  14.3002832
  31.3376164  17.2115970  14.8897755  31.4390349  16.4120352  13.6086047
  71.0946953  19.2469144  32.5272036  71.8312138  19.1298521  31.9271445
  71.0911691  20.1840520  32.7221179  75.8694086  70.6876345  49.9400377
  75.4291353  71.4517518  49.5678568  75.2984748  69.9515050  49.7200823
  17.2951988  69.4306140  23.2168913  18.1792024  69.7977149  23.2168794
  16.9239572  69.7001015  24.0570045  54.7592874  57.8429162   9.4096088
  55.1094427  57.7058779  10.2898610  53.9977472  57.2649609   9.3621159
  15.7071388  64.0294027  48.7843084  16.6510487  63.9026308  48.8802052
  15.4477227  64.5038128  49.5741606   0.3449450  13.5268927  22.6899743
   0.6084128  13.2118440  21.8253589   0.4390733  14.4779932  22.6372552
  61.4833671  51.1462498  45.5663300  61.3735777  50.2425671  45.8621931
  60.6233579  51.5464401  45.6946468  23.1526538  46.0412856   1.3913801
  22.4071475  46.2259723   0.8201149  22.7876409  45.5060192   2.0959977
  26.4736986  26.5394473  64.7495890  25.8655667  25.8450055  64.4962883
  26.5530014  27.0854473  63.9673948  20.7052302  18.4355366  26.1918664
  20.8796549  17.5628424  26.5443039  21.5377140  18.8998556  26.2790918
  68.7171679  34.7173595  62.8521633  68.2336050  35.4984212  62.5831985
  68.2215816  33.9884686  62.4788761  69.5095414  27.4667215  49.4074774
  70.2520251  26.9091249  49.1750240  69.7613877  27.8661203  50.2401161
  29.5976067  45.8592367  36.8772554  29.7041321  44.9138212  36.9824791
  28.7444639  45.9585810  36.4547491   0.4643913  23.7277007  21.7997861
   0.9140883  23.2756066  21.0859108  -0.4572596  23.4947419  21.6878819
  16.1633027  15.3150868  40.1092100  15.2545059  15.6155717  40.1038313
  16.6168833  15.9133053  39.5153856  75.8425435  38.7550449  26.1218190
  76.3828936  39.0366697  26.8600202  76.4556020  38.6820960  25.3903341
   9.5232147  19.1131103  35.3119206   9.1673660  19.4312692  36.1416054
   9.0137082  18.3261132  35.1188612  39.3672895  36.8700862  43.0185604
  40.1748276  37.3543024  43.1907368  39.5386529  35.9908605  43.3559465
  17.1706402  18.2577908  19.4182014  17.7892768  18.7351024  18.8653040
  16.6085863  18.9372623  19.7905540  22.0789862  47.2561169   9.1273004
  21.2336063  46.9939661   8.7628299  22.4101162  47.9135275   8.5154217
  17.6281452  66.7465305  22.0523357  17.7429998  67.6885414  21.9271946
  16.6848445  66.6337109  22.1693301  77.4436091  30.3383756  32.5856185
  77.3595786  29.4031954  32.7716541  76.8189859  30.4989457  31.8783021
  55.7222367  75.0373532  40.3519678  55.1785034  75.4142370  41.0437393
  55.1638067  74.3772842  39.9412417  66.9758385  32.1961689  52.8546429
  66.1408061  32.5207305  53.1917095  67.5883835  32.9177761  52.9971313
  24.3399739  43.1518936  37.3374891  24.6670628  43.2183313  36.4403653
  23.5948110  43.7520313  37.3657966  64.8188684  50.5221795  37.7228665
  65.0735161  49.5999192  37.6941776  63.9039848  50.5094098  38.0040383
  12.8473246  23.5956907  25.3985143  12.9492760  24.5100737  25.6626010
  12.9268849  23.6115527  24.4447565  23.0433679  28.3863258  21.2564611
  23.9095306  28.0050254  21.4000010  22.6361704  27.8168559  20.6036782
  30.8363104  67.2572136  43.6218548  31.1483097  67.8148270  44.3345642
  30.6801414  66.4072847  44.0335226   1.8804508  24.4403219  36.0601854
   2.3882173  25.1578164  36.4391398   2.1075436  24.4511724  35.1303768
  32.6163816  25.9216952  49.4539976  33.0769682  25.1047611  49.2623901
  31.6985106  25.7299352  49.2617178  24.1733027  30.3375912  44.3829584
  24.0425134  30.9078646  45.1405287  23.3980322  29.7763491  44.3689728
  62.5248283  56.4069080  35.5923414  62.8255886  57.1245003  36.1498666
  62.3723656  55.6811380  36.1975217  10.6314003  44.2431879  48.4217024
   9.8661244  44.0751410  48.9715624  10.9916151  45.0641918  48.7570095
   1.7263876  13.6321664  42.2536564   1.7591369  13.2247913  43.1192207
   0.9064969  13.3183956  41.8721342   2.7383158  39.6407080  18.1205380
   3.2492024  39.4477820  17.3344040   2.4345383  38.7854481  18.4246445
  46.2687417  46.8169995  14.4254902  46.7916413  46.4715435  13.7019804
  46.7136618  47.6261552  14.6775702   3.6989644   2.4171729  22.5463128
   4.2048913   2.5833592  21.7509198   3.3090228   3.2639509  22.7634406
  34.1978216  52.3915291  12.3524404  34.6752286  51.7008591  11.8927777
  33.8662505  51.9675016  13.1439543   9.4960278  40.3040075  47.1329021
   9.9119073  39.4421124  47.1124887  10.1983881  40.9142303  46.9080687
  27.5463867   3.8199508  38.5176563  28.2309413   4.0588698  37.8927279
  27.9146504   3.0840275  39.0065646  14.7993898   0.7431896  37.3364186
  14.8094118   1.0687994  38.2364798  14.3171179   1.4090194  36.8461990
  13.1514537  30.9893584  37.3226714  12.9321241  31.4306092  36.5020490
  13.1503332  31.6873646  37.9776645  17.6958394   2.1697530  19.9681342
  17.0599043   2.7347243  20.4070258  17.3339474   2.0372747  19.0919399
   4.2202780  56.1952496  29.0087366   4.3240342  55.8939695  29.9113393
   3.7034068  55.5098104  28.5853577  18.2192123  20.9540653  53.5139894
  18.0912459  21.4847326  54.3002796  19.1692638  20.9132242  53.4045982
  27.0021439  30.4954648  32.9635692  26.1565375  30.6714320  33.3761454
  26.7806983  30.0669932  32.1367645  28.2724595   9.4893968  29.2925715
  27.4891853   8.9394379  29.2764688  28.1161022  10.1487494  28.6165237
  78.5952203  24.4867373  46.5579319  78.4628443  25.0167823  47.3439074
  79.3863343  23.9800024  46.7412138  13.7417042   6.2517381  62.9435444
  14.5402861   6.7782009  62.9069948  13.9817786   5.4232830  62.5285053
  15.6185091  35.4345512  38.6269879  15.7207263  35.3933311  39.5778227
  14.6883214  35.2644539  38.4784961  75.5061498  46.4434862  17.0635498
  76.3311046  46.7569399  16.6928375  75.0112909  46.1227608  16.3095713
  20.7136679  56.9532919  21.2548351  21.4523530  57.3001480  20.7545662
  20.2343488  57.7298260  21.5437579  23.7750340  24.6075320  29.6025467
  23.0368638  24.5510507  30.2092981  23.4768128  24.1457939  28.8189030
  26.7070889  37.7172780   3.5275602  25.8836174  38.1822634   3.3795270
  27.1233439  38.1907105   4.2478555  47.0690680  40.6537485   0.1539884
  47.3373318  41.5157938  -0.1640439  47.7846479  40.3761148   0.7259122
  78.8038781  66.7001581  49.9626493  78.7583898  65.9302616  49.3957090
  79.7330589  66.9293022  49.9813032  14.5387483  34.7433949  12.5919533
  13.7980258  34.3947220  13.0879271  15.3053832  34.5275235  13.1228971
  47.2843027  28.5577512  41.5148735  47.5404453  27.6362252  41.4772463
  48.1131077  29.0365362  41.5238667  58.7019106  47.0472838  27.9527453
  59.3957730  46.6017540  28.4388426  58.8830420  46.8429865  27.0353106
   9.0664589  21.1798763  58.9573956   8.8230091  20.3243732  58.6037302
   9.3364090  20.9988475  59.8577213  59.3647796   9.6320099  46.4911175
  58.9625436   9.4537783  47.3412180  59.2620188   8.8158399  46.0016918
   4.3543106  49.9179506  24.9695635   3.7040156  49.8346376  25.6669927
   5.1513016  50.2010345  25.4177833  25.2531409   4.7083896  37.8521395
  26.1132002   4.3098435  37.9851556  25.3952193   5.6421292  38.0076265
  12.4104381  41.2525511   9.3877083  12.5261593  42.1294022   9.7537225
  11.5135109  41.0123920   9.6202564  24.3495083  27.2455955  57.3164797
  23.5635114  27.5505424  57.7697468  24.0961933  26.4037895  56.9377613
   6.8532890  50.5098057  56.8896914   7.3375160  50.8700705  57.6326323
   7.3780543  50.7456827  56.1246967   3.6696842  52.3798037  42.5146532
   3.4853595  52.4925470  43.4471464   4.2704111  51.6355038  42.4775267
  23.6795378  23.7035513  51.7062330  22.8841138  23.8956165  52.2028637
  23.9491343  24.5497417  51.3491440  28.5008531  49.8955442  14.1064480
  28.3270095  50.8333995  14.0262106  29.4076853  49.8450400  14.4086674
  37.4656296  10.5113232  10.9050226  38.2892799  10.9924376  10.8252716
  37.0372748  10.6275523  10.0569463  55.2272030  53.9887084   4.9636153
  55.6585451  54.0034785   4.1092375  55.1188632  53.0584051   5.1611737
  18.2808232  43.4647560  37.5923729  18.5082507  44.3119144  37.9755688
  17.3243594  43.4386969  37.6193643  30.7342792  36.8360305  43.4739017
  31.2020898  37.6415348  43.2535648  30.0377822  37.1181059  44.0668297
  11.7661965  47.1189737  35.4380465  12.4055719  46.5360785  35.0285769
  11.3060379  46.5647459  36.0683799  35.2433278  73.3531131  15.0934485
  34.4073304  73.8104285  15.1840189  35.0572553  72.4564661  15.3720740
  79.0666633  19.0423799  42.5285864  79.7982792  18.8792884  43.1238747
  78.2884758  18.8155949  43.0377293  70.8640438  45.8365011  24.1417980
  71.2471491  45.1577854  24.6975017  71.4590364  45.8983088  23.3945394
  47.0768973  24.9196853  14.9606016  47.8290459  24.5103850  14.5328453
  46.7997833  25.6055047  14.3530777  21.5760732  45.1048088  38.3352399
  22.0743966  45.8108044  38.7469172  20.6644845  45.2937078  38.5578513
  14.0168973  37.5847025  13.8077811  14.0869352  36.7803609  13.2936219
  13.3599754  37.3860101  14.4750193  76.5835700  60.6323122  56.6050911
  77.2156343  59.9640023  56.8698311  76.2898693  60.3539561  55.7376337
  30.8961797  55.8433342  24.4126487  29.9711514  55.5981398  24.4334555
  31.0882497  55.9749508  23.4841990  18.8782930  54.9510384   3.4726694
  18.8957453  53.9950132   3.4285188  18.8933921  55.2333546   2.5581741
  59.6731945  45.2166887   0.5726031  60.5339571  44.8043580   0.6454304
  59.0757605  44.4925310   0.3857830  76.7121875  44.9173498  48.7623501
  76.3095942  45.4331160  49.4610167  77.5451478  45.3563690  48.5900974
  14.4362072  71.5381881  61.9757462  14.8346142  70.6820290  61.8192434
  14.7850231  71.8133025  62.8236055  69.9573767  15.7728016  42.5174427
  69.4287294  16.2984908  43.1177855  70.7481664  15.5640197  43.0147266
  20.2386764  59.7950410  22.1768641  19.6961597  60.0933265  21.4468408
  19.9350981  60.3077411  22.9260039   2.5385344  30.6287527  24.5617485
   3.3057171  31.1996651  24.5202732   2.8264758  29.8108077  24.1564226
  28.2856798   3.3441025  46.9512844  28.7309599   2.9870641  47.7197123
  27.5718331   2.7295503  46.7810440  62.3693057  58.4563698  17.4049357
  61.7375275  58.3033408  16.7023161  62.0012017  58.0000915  18.1616000
  36.6568813  74.7024724  19.0128446  35.7973895  74.7656839  19.4293880
  37.0965764  73.9905973  19.4777465  76.3377779  54.4097948  51.3472843
  76.4807972  55.2717543  50.9563780  77.2141301  54.0319443  51.4212227
  55.1668787   0.8624640  46.2547588  54.8813200   1.7520867  46.4627504
  55.1189423   0.3944722  47.0883751  46.5245470  69.1026200   8.9313820
  46.3176473  69.2645539   9.8518208  45.6869086  68.8601269   8.5366801
  16.4594018   3.1334126  41.5295601  17.2679830   3.0244756  41.0290003
  16.7278504   3.0336675  42.4429131  16.1602724  48.1939363  10.4758561
  17.0277822  47.9063082  10.1913798  15.6643128  48.2982779   9.6638411
  76.5519580  37.7466154  49.7601604  76.6089016  37.3778176  50.6416225
  75.6142997  37.8694463  49.6120358  24.3920851  13.4114313  20.8962846
  23.7040997  13.0476856  20.3389716  25.0946426  13.6434019  20.2889681
  13.9214551  11.0969090  27.2080517  13.6483824  10.7205868  26.3713646
  13.9669359  12.0387769  27.0435882  29.5548177  31.4336252  53.2954454
  29.4716716  32.2570777  52.8145647  29.7198510  30.7768297  52.6189709
   3.4240499  36.7407322  46.8831873   4.0684897  36.7529202  47.5908470
   3.7138584  36.0330534  46.3074875   9.4699243  66.8970238  27.3437738
   8.9806417  66.0898333  27.1847868   9.8545770  67.1150993  26.4948249
  23.2961138  41.9062413  10.4552439  22.5763177  42.3871847  10.0468090
  23.6672201  41.3821556   9.7454241  76.5569433  10.8189321  61.2001801
  76.9256142  11.1159229  60.3682470  77.2892633  10.8606052  61.8151617
  16.6043770  22.3473620  51.2832308  16.6740870  22.1304178  50.3535509
  17.0950496  21.6561818  51.7279148   1.9398698  48.0329990  62.6271200
   1.4564797  47.4051571  63.1641293   1.5818211  48.8855124  62.8746128
  10.8633971  52.2638321  30.3464580  11.5772521  51.8349743  30.8183908
  10.0828171  51.7655182  30.5885553  10.7994902  30.0658441  12.2529018
  10.8014846  30.0360155  13.2096350  11.4697659  29.4341898  11.9921827
   8.4138364  40.3379726  40.9349346   8.0935502  39.4571328  40.7405853
   7.9836202  40.5733013  41.7569876  23.6003709  12.6982951  46.6137123
  22.7640176  13.1388414  46.7642498  24.1536975  13.3665311  46.2093353
  32.8808928  24.2142391  46.0373116  33.0305052  25.1397824  46.2302208
  33.3670259  23.7464261  46.7163229  37.6432141  65.7714166   5.3535775
  38.1232341  65.0158490   5.6925944  38.2756301  66.4893808   5.3820065
   4.3292621  70.8758592  25.2757597   4.7017077  70.8638914  24.3940735
   3.4149412  71.1277442  25.1461339  15.3923464   8.6096907  44.5382309
  15.6024969   8.9785922  45.3961229  16.2403798   8.5123903  44.1050959
  51.4844089  44.9085522  49.4448280  50.7994300  45.5620241  49.5862913
  51.5971189  44.4910097  50.2987528  17.1192002  36.3007832  47.4656582
  16.2618279  36.1549520  47.0658064  17.5888336  35.4774404  47.3323059
   9.1499311  23.8485909  10.0921297   9.8089790  23.4975457  10.6910074
   9.2868882  23.3670187   9.2763096  14.0792966  36.2546277  26.9995475
  13.7510753  35.3993082  27.2769117  13.4045076  36.5902448  26.4094186
   1.4369155  10.0746858  45.6791830   2.2847232   9.9998838  46.1172009
   1.5107812   9.5028275  44.9151468  35.1065969  20.3318787  53.4718227
  35.3603077  20.8536959  54.2331171  35.9285855  20.1665974  53.0100346
  64.8728817  67.6262760  42.1724033  64.2577892  68.2482624  41.7837811
  65.6278151  67.6366186  41.5840149  64.5478579   9.7986008  41.3097906
  65.2002307   9.3005539  41.8023205  64.5276495   9.3809486  40.4487514
  14.4308293  38.9872813  25.5925584  13.9325809  39.1392136  24.7895050
  14.4231665  38.0364966  25.7029176  14.0390527  33.7861323   9.1430956
  13.8230252  33.0340385   9.6943831  13.6220074  33.5949588   8.3030015
  28.2757688  60.0704956  35.0531411  29.0192580  60.3842735  35.5679202
  27.7526069  60.8543682  34.8855805  30.2764535  35.8356833  38.9987779
  31.0624599  35.9791923  39.5258760  30.4026461  36.3859987  38.2258224
  28.5134768  37.4164271  44.9907351  28.8932300  38.2314563  45.3189898
  27.5699806  37.5776482  44.9835396  13.7738216  26.5825343  41.8308067
  13.6806917  25.9808946  41.0921621  13.6490953  27.4514532  41.4491606
  26.7373586   9.4575399  51.2298346  26.5317774  10.1715827  51.8332481
  26.1616373   9.6048397  50.4794455  19.8755503  36.0135102  55.8715820
  19.1313934  35.8502483  55.2920914  20.5920005  35.5061555  55.4901075
  38.3942127  25.0236917  33.3168817  37.6486993  25.6239200  33.3296919
  39.0203452  25.4321837  32.7191138  14.1553557  43.3629942  27.2854996
  13.2400024  43.3564901  27.0056462  14.6329188  43.7153721  26.5345049
  72.8309184  40.2612162  33.0672145  73.4075016  40.7786846  33.6293602
  71.9748133  40.6810999  33.1509590   4.9747154  21.1313844  18.1599963
   4.5605117  21.1860204  17.2987866   4.5766762  20.3628755  18.5688877
  30.6582856  18.8313508  43.9058304  31.2666988  18.9923084  43.1846142
  31.0513496  19.2788255  44.6551657  33.9565492  40.4790545  54.7149134
  34.1926408  41.2112522  54.1453695  34.6145487  39.8091912  54.5290375
  39.9924326  56.0500193  31.7466998  40.8769894  56.4092541  31.8155813
  39.5688248  56.5837908  31.0744810  28.3748293  27.6726246  43.7503052
  29.0853000  27.9255939  43.1608343  27.8444242  28.4643960  43.8397360
  33.0406523   8.6408073  57.3740101  33.6276793   9.3954223  57.3272419
  32.6114225   8.6178941  56.5187502  77.9928060  41.6792107  11.0555708
  77.8432664  41.8662548  11.9823313  78.8453548  42.0712471  10.8666325
  14.4186091  59.0109205  25.2036476  15.0692403  59.5592451  24.7651863
  14.6006382  58.1253624  24.8891854  17.4708831  34.9605751  36.3627601
  17.3461461  35.6449080  35.7052207  17.0434141  35.3022408  37.1481061
  23.4280968  48.1531763  27.8177214  24.3332529  47.8881025  27.6544404
  22.9759669  47.3386669  28.0376911  13.7660146  40.9993219  48.4469032
  14.6292400  40.8584929  48.8358021  13.1834817  41.1250496  49.1959572
  35.8045527  56.6681649  -0.1799747  34.9849650  56.6080107   0.3108290
  36.2445750  57.4373259   0.1819685  33.4840941  33.7390542  39.3556333
  33.5326004  34.0207577  40.2691555  34.3056297  33.2714009  39.2052579
  62.3771278  70.0894695  49.2745304  61.9749466  69.3475442  48.8228369
  63.2796619  70.1031749  48.9559746  73.5684478  50.5022430  37.6697016
  72.8295535  51.0699654  37.8886938  73.1808132  49.6329021  37.5686169
  18.0185902  18.6590683  45.6224537  17.2269225  19.0317714  45.2343988
  18.6775982  18.7241185  44.9312878  32.4539137  15.5666518  44.5002508
  32.1071911  15.3971481  45.3762007  31.7583561  15.2810180  43.9079285
  51.5868908  10.6823957  23.1909442  51.2416798  10.8334970  24.0708470
  51.0760170  11.2657797  22.6297808  27.7509165  51.8352747  25.0120521
  26.9917607  52.4061346  25.1305151  27.8979754  51.8255043  24.0662670
  33.4902716  19.2830253   2.7058491  32.7433705  18.7088680   2.8753021
  33.1321263  20.1681328   2.7733073  15.5252218  18.3263624  42.2149420
  14.6539450  18.3258295  42.6113129  15.7334554  19.2529726  42.0955133
  10.0992167   9.5996547  60.1943827  10.4507911   8.9297074  59.6080399
   9.2589670   9.2457771  60.4859018  36.6101146  66.2696791  17.8854227
  37.1116447  65.4594278  17.9759347  35.7858586  65.9973764  17.4820828
  17.8932643  47.1032906  32.7188897  17.4304950  46.4951372  32.1425009
  18.4638679  46.5452528  33.2473159  75.9462797  72.7555084  21.7123389
  75.1295945  72.7988911  22.2097087  76.2005853  71.8334532  21.7493868
  13.8127673  39.2239213   4.6665183  13.2318783  39.5424104   5.3574342
  13.2705915  39.2264938   3.8776764  31.5964389  13.0173910  52.6279211
  30.9919524  12.2796941  52.5464773  31.2820554  13.5014796  53.3914995
  64.3931335  24.1853571  38.9379191  64.0638250  24.6063209  38.1438303
  64.0530783  23.2916832  38.8938928  21.6855530   4.3869911  47.9783603
  21.9246343   4.4563900  48.9026198  21.8574003   5.2579723  47.6204607
  17.7165377  33.8090277  46.5610218  18.2389426  34.0038896  45.7829809
  18.0649078  32.9769468  46.8811989  21.6545582  46.8480444  34.0083885
  20.7693815  46.9593334  34.3552446  21.5246487  46.6345978  33.0843782
  22.2861362  29.3986893  46.9550323  22.2496843  30.3044510  46.6476202
  21.5426517  28.9713311  46.5297937  76.1563050  63.6615562  26.5507293
  75.9825998  63.4490442  27.4677348  75.3321916  64.0273476  26.2293816
  26.7790604  46.4412689  35.9531736  26.5418959  45.7057047  35.3884411
  25.9638572  46.6749811  36.3970804   5.7182062  22.1881080  39.9051404
   6.1971843  22.6450443  40.5965328   5.0711477  22.8246140  39.6011519
  77.3878798  74.0631932  46.8580675  78.2632718  73.7623841  47.1018648
  76.9096074  74.1046595  47.6861811  37.0601273  15.9767616  43.0605507
  36.4599013  15.4737985  43.6109972  36.4889503  16.5208328  42.5183582
  13.4159279  51.7062664  31.3540387  13.5905492  52.1876764  30.5453467
  14.2331028  51.2431097  31.5382719   8.0989873  53.2178879  20.0207543
   9.0075481  53.1400299  20.3117633   7.6472598  53.6343956  20.7547140
   5.9304857  51.4036751  48.7667084   6.8052506  51.2217379  48.4233189
   5.5435604  50.5394077  48.9065933  71.7372972  10.7309461  36.2135339
  72.1060174  11.5093303  36.6311407  71.5683895  11.0007405  35.3108072
  70.3637308  38.3106995  39.0878868  70.0471884  37.6288366  38.4953523
  71.1693114  38.6277819  38.6795616   2.0916890  22.8238034  49.1518164
   1.6620533  22.1597171  49.6909237   3.0106837  22.7900958  49.4174194
   6.6075397  50.4261398  26.3637996   6.7282587  50.8880043  27.1934605
   6.9527602  49.5482159  26.5259743   2.2044107  28.5384870  40.5011272
   1.5083021  28.6149669  41.1536694   2.4227726  27.6065731  40.4919529
  18.6992586  41.4362764  35.6600785  18.0166924  40.8678198  36.0167146
  18.6597300  42.2257280  36.1999297  60.3389960  34.9976325  22.8232813
  60.8392578  34.6415424  22.0889974  60.9994203  35.3858328  23.3971906
  22.2777609  16.8265091  43.1981870  22.6214508  16.8121944  44.0914437
  21.6189102  16.1322866  43.1839034  30.1723027  40.8055067  28.2719779
  31.0767484  40.6498671  28.5439825  30.1834154  41.6856050  27.8957629
  26.0212350  62.3194155  63.4895804  25.3764960  61.6119275  63.4915454
  25.4997465  63.1184897  63.4136724   5.3620809  64.1571236  30.4524517
   5.6888705  63.3938456  29.9761677   4.4351774  63.9688540  30.5995464
  56.0199849  13.0156222  28.0447844  56.4922364  12.9301491  27.2165945
  56.6108231  13.5169306  28.6067751  66.7784756  51.0172796  27.2958875
  67.1026605  50.5498600  26.5260482  66.8228131  51.9415998  27.0511436
  35.6583595  35.8248043  33.8334489  36.2497735  36.5411901  33.6026859
  35.3811789  36.0218263  34.7282028  29.9188447  26.5986109  50.4161596
  29.2935014  27.3217177  50.4640484  29.7304296  26.0673833  51.1898041
  25.8984709  17.5748658  29.6571732  25.0661564  17.4434137  29.2030740
  25.8303547  18.4526491  30.0327897   6.3288736  29.1612768  16.9582295
   6.9095755  29.5407271  17.6178014   5.9037322  29.9159217  16.5507996
  62.2162920  33.6917996  44.0367031  62.2052258  32.8177309  44.4267225
  62.1677655  33.5339904  43.0938482  30.4265118  17.7994633  30.0024009
  29.6929932  17.3367846  29.5972943  30.3516722  18.6971200  29.6786070
  45.1106792  16.7602050  53.0944395  44.5893699  16.5972531  53.8805151
  44.7881299  17.5980949  52.7625704  33.4632397  39.0207076  38.5017800
  33.9757681  38.3269048  38.0868268  32.6034045  38.6271715  38.6502528
  23.4621906  61.4626646  41.6621161  24.2809343  61.9395399  41.7980528
  23.3951569  61.3678360  40.7119894  70.5460322   9.4862980  40.0874901
  70.1390975   9.4832927  39.2211008  70.0866234   8.7992036  40.5702686
  17.9224348  18.3217537  27.6499486  18.8097167  18.3166969  27.2908711
  18.0446064  18.4661818  28.5882711  30.3363252  49.1236115  33.9126992
  31.1838412  48.7466669  34.1490459  29.9883914  49.4658375  34.7361398
  50.2828444  70.8788833  64.3827925  51.0754121  70.3544101  64.4967894
  50.3916229  71.6120419  64.9884950  29.9132562  50.0478411  29.7635698
  29.2131734  49.8878527  30.3964353  29.7805357  50.9534597  29.4834375
  29.8714042  66.4410686  29.5228338  29.2449474  66.2779284  30.2279353
  30.5059505  67.0491028  29.9021411  18.0681109  62.6350451  11.6018498
  17.5014317  62.1364164  12.1904719  17.9983461  62.1820927  10.7614946
  58.7433836  10.4837738  59.7915402  57.8634459  10.1122032  59.8538241
  59.3278429   9.7455488  59.9637756  26.0827661  33.9098358  39.4449830
  26.8768334  33.9724231  38.9141631  26.2898040  33.2522988  40.1090717
  31.7210627  66.0499716  37.4655628  32.4458456  65.5177736  37.1374011
  32.1031618  66.5612936  38.1788492  23.1596913  36.3532582   5.0048235
  22.4852445  36.0587153   4.3927840  23.8673940  35.7163654   4.9060515
  45.9033645  68.8116703  64.0366651  45.8031119  68.2834563  63.2447240
  46.7958726  68.6325822  64.3326229  30.4495502  25.7442236  36.7054605
  30.0523138  25.8730578  35.8441591  29.7563171  25.3459239  37.2317839
  70.7408303  39.0238571  28.7226629  71.0498208  38.7854862  29.5966983
  71.0098231  38.2931209  28.1659770  17.3241031   6.5415657  34.2545414
  16.7792010   7.1017689  34.8072481  16.7001820   6.0696262  33.7029719
  41.6350937  37.5642204  44.1867447  41.7040443  36.6786361  44.5434141
  42.0281792  38.1235433  44.8567247  36.4258265  45.4222918  32.1057582
  35.5525374  45.4831171  31.7185950  37.0158243  45.7221317  31.4142179
  68.7614554  14.6785188  54.5917130  69.5371192  14.6839881  55.1525593
  68.7023157  13.7776947  54.2735147  27.8581405  53.6909819  40.6722021
  27.9040861  53.8934612  41.6066122  28.2084632  52.8029585  40.6020498
   9.2733133  34.2760468  53.6237383   9.4260412  34.5006728  54.5415878
   8.6451763  33.5544562  53.6550760  47.0485693  38.9483547  56.1239004
  47.9779774  39.0981174  55.9506893  46.9715124  38.9977312  57.0767117
  18.3528185  51.2075901  42.8146267  17.6009953  50.6151819  42.8211260
  18.8485384  50.9740829  43.5994625   1.5774542  50.7203913  63.0905628
   2.3999837  50.6051159  62.6147604   1.8134460  51.2502670  63.8519907
  46.1566687  15.3331435   7.1027297  46.9324541  15.7958376   7.4194258
  45.8388758  15.8682597   6.3754797  35.4715967   5.7786918  27.8411889
  36.3279533   5.4217923  27.6055908  35.4510093   5.7404393  28.7974024
  20.1162004  44.6393013  26.7764878  19.3369043  45.1862240  26.6774583
  19.9342394  43.8645411  26.2446356  15.2113426  26.6996217  31.6592693
  14.7683227  26.1998200  30.9735847  16.1396158  26.4986014  31.5403914
  11.1814642  43.7785625  19.9498129  10.3024697  44.1557550  19.9134135
  11.6483188  44.1884184  19.2215979   9.0743703  39.8872066  36.3519382
   8.2081324  39.8015022  36.7500806   8.9048982  40.2640486  35.4885125
  32.7087188  20.3632069  42.0230579  33.3128405  20.7470798  42.6585960
  33.0010271  19.4562650  41.9322681  19.0087990  57.9130302  63.3912101
  19.2215351  58.6978470  63.8962225  18.7139515  57.2797333  64.0456115
  24.1227365   7.6618981  45.2399254  23.6348414   7.8267270  44.4330645
  25.0097394   7.9675841  45.0501490   5.8484584   4.0474862  33.7710142
   5.1857346   4.2202541  34.4397306   5.3993511   3.5041431  33.1234694
  40.9903383   7.6363105   4.3864831  40.0682402   7.8262347   4.5593843
  41.4129210   8.4950376   4.3709207  24.9575520  41.2737894  25.6272459
  25.1586962  42.2093248  25.6038284  24.0322638  41.2216806  25.3877592
  70.9518597  74.4375488  40.0523949  71.2649212  74.9979203  39.3423176
  70.0269065  74.2926750  39.8531342  38.1058145  40.6342173  36.7894459
  37.2888398  40.1610851  36.9473195  38.7105751  39.9665475  36.4658570
   8.4689999  41.9322395  38.6119199   8.5270214  41.3923311  39.4001865
   9.3764627  42.0367861  38.3258891  45.7217937  31.0415459  52.7376986
  45.1480967  30.4695153  52.2279072  46.6023522  30.8430743  52.4191761
  29.8454309  30.3644443  26.3740444  29.2680883  29.6135402  26.5120721
  30.3986669  30.1087236  25.6359625  56.2172128   3.0396977   0.4132155
  55.7343657   2.2258606   0.5573109  55.7433885   3.4772959  -0.2940532
   7.7858094  60.6400668  39.4543433   7.0698885  60.6147014  40.0892019
   8.0876521  59.7334920  39.3973804  24.9477315  39.3291426  35.8259177
  24.1843390  38.7529564  35.7875013  24.7245646  40.0610542  35.2508211
  37.5924818  16.7956534   0.8048991  37.8262679  17.3736515   1.5311888
  36.7753880  17.1587935   0.4632595  33.2130909  49.3775129  34.8608541
  33.5027480  48.4722328  34.9739838  33.5675406  49.8391390  35.6207871
  20.5125308  19.8025036  33.1521249  21.0007215  20.3069139  32.5013781
  21.0446548  19.8570573  33.9459133  31.7443991  36.7037344  36.5412807
  32.5066638  36.1526775  36.3637400  30.9993315  36.1890793  36.2310576
  39.1637540  54.8677874  22.8409624  38.8307452  55.4040956  23.5604858
  39.8495936  54.3318415  23.2392287  23.8524556  39.0089083  19.3908668
  23.6585093  38.9622831  18.4546816  23.9757323  38.0973482  19.6556163
  17.2893226  29.8682547  35.7968402  17.4554503  30.8093691  35.7426524
  16.7932034  29.7589397  36.6081047  14.5240605  50.1292086  38.0271316
  14.1368628  50.7484865  38.6458445  13.9863491  49.3415022  38.1085038
  22.5846412  12.7390076  43.4082699  22.8527608  11.9051338  43.0222464
  23.3962827  13.2411457  43.4812069  64.4041428  74.6924788  21.9076061
  63.6106798  74.4575055  21.4265299  64.1568217  74.6165304  22.8291798
   5.2743840  51.1271095  22.7406597   5.0152802  50.4664469  22.0983028
   5.2130812  50.6782961  23.5838938  36.6504550  49.1058302  37.5220108
  37.2847652  48.4356928  37.2674537  36.9661927  49.4257832  38.3670974
  38.1158710   8.9956981  29.0610814  37.6377058   8.8149196  28.2518196
  38.6111188   9.7930825  28.8736272   2.8518623  48.6073351  12.1769094
   2.6154846  49.5326090  12.2418725   3.5753292  48.5010195  12.7945924
  67.4152708  68.4516907  29.9465466  66.5114307  68.3709478  30.2511644
  67.9460716  68.2976103  30.7280445  26.5552282  44.0346813  18.9378834
  25.7434535  44.4317961  18.6223650  26.5527344  43.1541109  18.5626173
  42.1787977  30.7540226   1.1843992  41.9540167  31.2228251   0.3807012
  42.6445484  29.9735427   0.8841354  63.5560223   0.9803368  23.5423064
  62.7128693   1.3997007  23.7139368  63.4224769   0.0647760  23.7875605
  49.8917361   5.6477428  33.4656382  49.1237947   5.0813366  33.3903027
  50.1521894   5.5772282  34.3840194  35.7837629  69.2162037   9.6165156
  35.6184483  68.2849503   9.4692922  35.0373912  69.6587658   9.2124128
  56.4192343  72.1709538  47.7020502  57.2883320  72.2257137  47.3046780
  56.3760757  72.9261065  48.2886600  40.5689573  70.5779982  58.7293720
  40.5775118  69.6208763  58.7382793  40.1792192  70.8061934  57.8854132
  58.3627796  46.9479132   2.0285723  59.1438818  47.4757671   2.1943437
  58.6629343  46.2536573   1.4419320  29.4264913  69.8777914  42.4489546
  30.3687572  69.7120428  42.4788141  29.0802455  69.4318485  43.2219219
  76.8752870  23.0447660  64.2775108  76.3010750  23.4075580  64.9519694
  77.5380668  23.7211500  64.1380298  15.7828450  28.4097123  49.5800161
  15.2653325  28.1561303  48.8157415  15.1465654  28.7932301  50.1835823
  62.3884364   7.2544647  44.6930361  62.4870654   8.2001759  44.8032045
  61.4809438   7.0778061  44.9409866  16.8563759  41.9198322  45.3519964
  16.6018403  42.6646042  45.8967543  16.3353121  41.1896372  45.6859732
   5.5656010  43.5126829  22.6927114   4.9969390  43.6378479  21.9329810
   4.9625713  43.4106255  23.4290338   4.8396340  16.9324184  55.8258677
   4.0473881  17.1508766  56.3166332   5.4296580  16.5558888  56.4788055
  20.9717321  47.1070862  22.6964021  20.3552198  47.5872612  22.1436095
  21.4733315  46.5687943  22.0841384  37.3394227  57.7216816  42.2974682
  37.5680470  58.6387539  42.4489355  37.8650379  57.2356987  42.9329109
   6.2347355   5.9958149  17.9521549   6.1742249   6.9455505  17.8493345
   6.3509503   5.6653858  17.0613456  32.3017406  61.2948942   8.0541229
  32.3151088  61.0425472   7.1308815  33.0202532  60.8001471   8.4480745
  58.9888763  61.0575724  44.7540951  58.9576864  62.0141554  44.7686100
  59.3764257  60.8177662  45.5958366  42.2722960  56.2847185  36.7001820
  42.1281767  55.3749132  36.9604063  43.0485535  56.5541744  37.1911526
  75.8393856   1.9247795  13.5032082  76.6692206   1.5006186  13.2848215
  75.5102535   1.4337421  14.2560613  44.6792694   4.7226883  40.6418228
  44.9574216   5.5827881  40.9566116  43.9750644   4.9109245  40.0214291
  60.2007008  47.2521114   6.6369522  59.7057962  46.5302658   7.0245665
  59.5712900  47.6960754   6.0686499  70.3807211  60.6293774  50.0777340
  71.1785078  61.1555338  50.1318645  70.6891823  59.7472763  49.8704243
   4.3141755  47.5663757  45.7534981   3.7146398  46.8202257  45.7465315
   3.7915015  48.2966995  45.4223251  43.7471962  74.3772793  29.3606234
  44.6871996  74.5574331  29.3472862  43.6863279  73.4220219  29.3569160
  53.1480408  64.0161848  31.2107682  54.0197086  63.9615154  31.6024780
  53.2562351  64.6095991  30.4675436  62.2911882  62.6702976  33.6655545
  61.4274883  62.4285746  33.3311534  62.3909426  63.5919809  33.4272599
  42.1739348   6.3386894   9.7471106  41.2775966   6.3211514  10.0825250
  42.5631603   5.5224968  10.0610626  35.1982903  47.2328186   0.5116819
  34.4969654  47.3531103   1.1519205  34.7660518  47.3255873  -0.3373145
  38.7583756  53.0151606  28.1956458  39.6121812  53.3593559  28.4578991
  38.9314842  52.1060944  27.9509783  44.5008405  14.1307903  19.5301163
  43.9017948  13.4407784  19.8151767  44.4460627  14.7946049  20.2175641
   5.1474136  60.2691507   8.8215107   6.0579276  59.9881792   8.9123452
   5.1021147  60.6555796   7.9469520  63.5816956  63.5157251  36.2156510
  63.4856749  64.4628096  36.1154175  63.6483431  63.1855869  35.3196621
  59.3280216   3.9345766  24.5873833  59.0826698   4.8464752  24.4309139
  58.7365171   3.6430670  25.2811956  58.5247135  49.1556978  52.1341372
  59.4442558  48.9021873  52.2141838  58.1859303  48.6076784  51.4262342
   3.1512728  20.0100685   6.4007896   3.1502094  19.1117168   6.7312491
   3.0603876  19.9165512   5.4525137  23.1667366  22.0920445  42.0341587
  22.8405943  22.9575897  41.7877913  22.9342642  21.5293385  41.2955475
  13.9013731  52.8388357   6.7277521  13.9371622  52.7572632   7.6807982
  12.9808295  53.0191660   6.5371990  44.5815992  67.7838516  30.8561635
  43.9103889  68.2142782  31.3857269  44.4196558  68.0945873  29.9654078
  48.0540419  55.3196669  26.4154530  48.3725548  54.4175720  26.3838196
  48.5277462  55.7154083  27.1470451  25.4501319  61.0902500  26.5955687
  26.2677479  60.5954742  26.6497064  24.9861312  60.7054949  25.8519983
  30.5497241  55.2668381  28.7816620  29.7026682  55.4255486  29.1982412
  30.5178356  54.3475914  28.5166979  77.7194258   0.0470520  51.5983009
  77.7205177   0.9474636  51.2734985  77.1638819  -0.4294228  50.9813929
  40.7095432  66.5145159  27.6090312  39.8424339  66.3669586  27.2314286
  40.5578995  66.5417576  28.5537505  15.3994775  46.4129162  21.4252830
  14.6519232  45.8974028  21.7280030  15.1128221  47.3223591  21.5087867
  66.5914088  50.3085518  24.3218279  67.0299107  49.6740150  23.7549877
  65.6944638  49.9828672  24.3969965  41.1220551  48.1427193  42.2420263
  41.1433649  48.3729076  41.3131618  41.0385036  48.9818716  42.6948833
  59.3397284  70.6423521  41.0344219  58.5001755  71.0472250  40.8165455
  59.4620037  70.8304119  41.9649649  50.8203173  52.7040148  41.0956621
  50.5620241  52.2847223  40.2748680  51.6988659  52.3667860  41.2707806
  79.9906914  27.6680794   2.5250748  80.2631967  26.9803229   3.1325033
  79.1331832  27.9460182   2.8470400  47.7020741  51.4810419  13.4064543
  47.6774836  52.3246002  13.8581586  47.4671888  51.6869164  12.5016475
  75.2492332  45.3897810  51.1547136  74.5172501  44.8313713  51.4166546
  74.8684645  46.2648869  51.0809803  28.4881258  33.6907053  38.3042622
  28.6349201  34.5907879  38.5950089  29.1117597  33.5653305  37.5890040
  56.6478825  64.7390366  40.5732822  55.9852505  65.3856039  40.8163881
  57.0790005  64.5160770  41.3983059  46.0917950  70.2133799  33.3659697
  46.9813251  69.9436522  33.5944772  46.1551857  70.5007696  32.4551344
   9.3360174  48.6701250  45.0734568   9.2406267  48.1609106  45.8783388
   8.9067256  49.5038891  45.2652311  33.1354952  55.3844643  12.2259009
  32.2192740  55.1560307  12.3827171  33.6264706  54.6129560  12.5086522
  32.3924637  42.8556776  33.1525350  31.8881345  42.5599861  33.9104605
  32.5827003  43.7757540  33.3355880  32.7890587  61.4682674  42.2989416
  32.9273653  62.2433424  42.8433323  31.9260263  61.6017437  41.9070339
  56.9925233   8.4859348  13.3518660  56.8223282   8.9116264  12.5115979
  56.2216707   8.6867882  13.8825989  34.0466738  48.8306856  32.0004606
  33.2321024  48.9706182  31.5176296  33.8582850  49.1458225  32.8844452
  35.3898954  45.6650734  35.8077383  36.0631537  46.3411999  35.7315540
  35.8569956  44.8982573  36.1394668  20.9186205  69.1997565  10.2949551
  19.9854609  69.4061126  10.3484562  21.1814322  69.0421046  11.2017659
  37.7507448  60.4909992  37.2403836  38.0832720  59.9033499  36.5619087
  38.4326410  60.4914141  37.9121327  58.2854033  57.4834013  46.4010811
  57.6944304  56.7883158  46.1115265  58.0380344  57.6442194  47.3116732
  30.1708794  59.7249413  37.4085832  30.9071064  60.3357506  37.3752284
  29.5963645  60.0791502  38.0873322  29.2718434  58.0229664  18.0109477
  28.8784409  57.1850872  17.7671731  29.8134542  58.2611990  17.2585273
  39.5122886  49.0625715  14.0253413  40.3940773  48.7662077  14.2508411
  39.4049311  49.8829556  14.5066690  49.7559786  57.5817108  34.2178583
  50.5782270  58.0010653  33.9643264  49.1502762  58.3090019  34.3607068
  21.9463348  31.1152363  28.9338207  21.0029697  31.2708545  28.9793944
  22.3366046  31.8885756  29.3410873  18.3641899  39.0367126  28.3661580
  17.6401210  39.0484643  28.9921117  17.9840243  39.3712044  27.5538659
  75.8838078  12.4245621  48.7687254  75.3751417  12.5926281  49.5619774
  75.3598066  11.7915798  48.2778120  60.3500509  72.6301193  63.5016394
  60.4035282  73.4714174  63.0482197  60.1225185  72.8579044  64.4030666
  54.4681644  47.9119492  41.4343452  54.4167471  47.0899487  40.9465885
  55.4024506  48.1188917  41.4571381  45.0821813  21.2730957  35.9016752
  44.2112490  21.5803696  36.1532569  45.0572797  21.2393642  34.9453950
  42.7192974  62.1001863  21.3336611  43.3130312  62.0719671  20.5833840
  43.0984640  62.7598238  21.9144750   3.2479277   2.9037787  41.9085646
   2.4071684   3.3022715  41.6837120   3.8194456   3.1182648  41.1712742
  37.9495525  50.1178932  27.8711772  37.7105737  49.1922951  27.9200864
  37.1292305  50.5665493  27.6662111   5.0446807  61.3473549   6.1770943
   5.9264981  61.5262642   5.8505610   4.4829332  61.4278164   5.4062537
  57.2515055   2.8337647  37.5701213  57.9444214   2.7789761  38.2282233
  57.3424359   2.0295359  37.0590591  48.0838490  59.7691059  42.5840998
  48.7271452  59.6158791  41.8920612  48.5297108  59.5039606  43.3885479
  66.3010379   6.3426090  37.6113844  65.5918618   5.7892204  37.2841763
  66.4743634   6.9566704  36.8978596  50.2235842  70.6026840  41.2705040
  50.4801178  71.1100626  40.5004454  51.0480118  70.4149723  41.7191887
  53.5879993  43.8743448  58.0357122  54.3244362  44.4612551  58.2072449
  52.9866505  44.3941450  57.5024080  58.5759660  15.1376511  18.1755304
  58.6745163  15.3531338  17.2481203  59.3067809  15.5833031  18.6039412
  35.3840351  73.0113840  28.8157749  35.4883909  72.1487141  29.2172074
  35.9145355  73.5941410  29.3590927  61.1280298  71.3349056  51.3849926
  60.2756882  71.2727976  50.9538507  61.7250204  70.8627510  50.8045530
  33.7815952  56.1769629  21.0878849  34.1738439  57.0405626  20.9591627
  34.4316745  55.5648232  20.7430482  41.9839096  61.1242199  58.8403559
  42.6328468  60.4386997  58.6817169  41.9996786  61.6574907  58.0456209
  20.2823591  51.8407965  20.2196169  21.1727715  51.9607687  20.5497742
  19.8477030  51.3127899  20.8893299  59.6739046  31.3788548   9.9032572
  58.8988428  31.9235935   9.7662524  59.3276678  30.4935255  10.0152376
  67.2648569   8.3552528  39.0607738  67.8666588   8.8842274  38.5370779
  66.9720503   7.6654125  38.4652805  50.6084585  68.9860964  31.3751984
  49.7096682  68.9528227  31.0476351  50.7721424  68.1064653  31.7153239
  66.9731712  51.2192392  21.2391257  67.5841856  51.6042709  20.6109166
  66.9715214  51.8295479  21.9765210  74.8357960   5.8583141  28.2518101
  75.0443169   5.4795528  27.3978233  74.1151234   5.3219296  28.5821939
  78.7652151  14.1949883  17.3757246  78.9600127  14.6936074  16.5822104
  78.2770149  13.4323063  17.0655516  29.1785609  26.5005484   1.5218237
  29.1111170  27.1996107   2.1722010  29.0078341  25.6978026   2.0144537
   5.6323158  28.9639511   2.8521469   5.1468526  28.8267460   3.6656168
   6.4166938  28.4236422   2.9472855  38.9496231  69.2155838  38.3124924
  38.1270599  68.9383459  37.9090595  39.1832113  68.4960604  38.8989663
  28.0812812  64.6291113  35.3008509  27.5701737  65.4173136  35.1171732
  27.5083017  63.9067698  35.0436616  32.3055196  62.2427082  18.1511176
  31.6888118  62.5936270  18.7935817  32.8882480  62.9758453  17.9531968
  18.1026787  51.0829020  64.4454575  18.5886139  50.2627373  64.5316935
  17.8893894  51.1381197  63.5139608   1.4712566  74.6957254  42.2053337
   1.3676209  75.6331062  42.3690557   0.7247871  74.4652128  41.6522741
   0.9013119  13.4500576  58.2276201   0.2928724  12.9312397  57.7014446
   0.3381958  14.0026737  58.7696028  58.5268650   6.4907394  56.9418129
  57.7098754   6.0747419  57.2169557  58.7126610   6.1094223  56.0837290
  48.3035326  60.2962732  50.0582123  48.7088013  60.8020687  49.3538284
  48.8191319  60.5120516  50.8352804  41.7816496  47.4682236  15.0371349
  42.4925756  47.4849272  15.6778669  41.1517620  46.8423367  15.3945363
   2.8082072  29.1762772   5.7923916   2.9797040  29.7262039   5.0279311
   3.5544239  29.3315830   6.3714197   3.2879769  34.5545426  30.2289942
   2.5747787  34.5993414  30.8658484   2.8643905  34.7055617  29.3840102
  39.1841698  73.4957981  15.1735342  40.0102901  73.5178947  15.6565082
  39.2254829  74.2560387  14.5934010  51.0867405  41.4352322  61.2635899
  50.3849125  42.0048761  61.5785122  50.7712269  41.1102152  60.4203510
  73.4408760  62.7911949  23.2045937  73.0448771  63.5877562  22.8511810
  73.3430195  62.1446133  22.5056028   3.0940333  13.6115623   0.9546036
   2.8551951  12.9161240   0.3417823   3.6321869  14.2114903   0.4381619
  75.5023734  40.5551567   2.9547861  75.0552695  39.8979178   2.4215248
  75.2117674  40.3760901   3.8490513   2.5162565  18.3982601   1.0861376
   2.3967873  17.5645247   1.5409354   3.4489976  18.5912600   1.1808661
  25.8836985  73.7206507  32.2547865  25.5853415  73.8293028  31.3517857
  25.6910181  74.5596695  32.6732945  52.1786070  69.0267849  42.7021599
  52.8944921  68.8876534  42.0821714  52.6146221  69.2253590  43.5308313
  72.8973194   7.5019623  62.0886946  73.4158608   8.2972408  62.2107124
  72.6235624   7.5328327  61.1719990  38.3183837  72.6390028  46.1262274
  37.9191899  72.3182058  45.3175449  37.6897645  72.4101162  46.8108320
  33.8874936  73.8975334  17.8956461  33.0960083  73.4632969  17.5774848
  33.8947940  73.7226725  18.8367116   6.6489258  -0.1394581  33.2366419
   7.2112265   0.5519367  33.5859609   6.7072716  -0.0384926  32.2865725
  62.1154547  62.8907108  60.7001352  61.8465948  62.2057867  61.3123608
  61.3496971  63.4603119  60.6266117  69.3619204  52.3889256  39.4551563
  68.8925982  51.7132807  38.9658046  69.0961504  52.2540474  40.3647757
  35.3198086  18.4859982   0.8529499  35.8305107  19.2648878   0.6321743
  34.8115526  18.7429705   1.6222838  27.6439047  65.5505037  22.8055429
  27.9469228  66.3895321  22.4584913  26.8270373  65.3785324  22.3371577
  55.0535347  51.8430081   7.9080180  54.9955921  52.6314583   8.4476641
  55.9305774  51.8780365   7.5261811  39.4440722  67.8828287  58.7130547
  39.5851040  66.9393539  58.7917948  40.1511383  68.1838894  58.1423950
  36.0958672  56.2344599  26.1756349  36.8563318  56.4000225  25.6184006
  35.3432035  56.3674164  25.5993962  10.3550959  74.6572924  29.0765858
  10.0999773  73.7439346  28.9464927  10.8678067  74.6499634  29.8848581
   4.5569557  63.3234072  39.2483568   3.9910645  62.5518608  39.2216468
   5.3706116  63.0381584  38.8326430  47.9205390   6.9064976  51.8104172
  47.2213265   7.1372105  52.4220562  47.7934476   7.4967457  51.0676575
  58.2559538  51.1969805  10.9453964  57.4530458  50.9437466  10.4899335
  58.9517164  51.0478258  10.3051639  38.0173135  54.6918201   1.9976902
  38.0399680  53.8405132   1.5606551  38.4413242  55.2888632   1.3812636
  40.7560873  69.6630049  43.2046413  40.8277941  69.5480871  42.2570753
  41.6257572  69.9559116  43.4768772   2.0344677   7.2766472  36.2604022
   1.8520441   6.5645863  36.8735290   2.9248133   7.5551296  36.4748001
  69.8855877  39.7163534  41.1366606  70.1144314  39.1555858  40.3954458
  69.0377855  40.0923204  40.8997726  60.9886169  62.9061794  29.4733858
  61.8097210  62.4143410  29.4627500  61.2285519  63.7653732  29.8204398
  62.4213954  30.9175182  50.9184504  61.9101473  30.7246281  50.1325464
  61.7721482  30.9687782  51.6199398   4.3887892   4.9926926  12.7150071
   3.7451162   5.6847740  12.8664529   5.1803866   5.4571415  12.4431753
  68.2396074   4.0648533   8.2809675  68.0945011   3.6467577   7.4322206
  68.5101648   4.9573113   8.0652010  41.8719149  72.5750065  53.9683104
  41.5059614  73.0590963  53.2280588  41.8942404  73.2112837  54.6830750
  48.6399555  65.5240154  43.3220863  48.9139986  64.9572229  44.0431118
  48.3080912  64.9213982  42.6565409  19.8968926  30.2883602  44.1468811
  19.1311827  29.7175766  44.2110682  19.5793286  31.0640503  43.6846018
  58.5543966  65.9276056  50.4619265  58.0041599  66.5103817  49.9386263
  59.3636084  65.8451509  49.9573374  67.5560999  49.3497324  47.8280401
  68.1484365  49.4458675  47.0823002  68.1097794  49.0110636  48.5315847
  50.5153605   0.6711317  12.4862111  49.8234388   0.3628756  13.0714059
  50.4175564   0.1374174  11.6976595   1.1269131  13.1072975  50.2684784
   2.0519581  12.8791786  50.1763725   1.0083761  13.8636185  49.6938753
  71.0083481   4.6868015  61.0152960  71.3123842   5.0450684  60.1813650
  71.5321442   3.8956047  61.1412764  45.1837206  65.2136612  29.3619895
  45.1111031  66.0366011  29.8454452  44.6564054  65.3508711  28.5750055
  18.1051582  55.6975031  43.3640718  17.4465031  55.0242376  43.1934452
  17.7635807  56.1816788  44.1158247  70.2316090  -0.0618433  17.1866798
  70.6655832   0.7620264  16.9650114  70.9454723  -0.6496119  17.4339759
  28.9464974  69.9284410  20.0356770  29.6343374  70.3526974  20.5486226
  28.2162571  69.8327589  20.6470919  48.3944654  63.0466127  24.4992185
  47.4822760  63.0122995  24.2111802  48.3586168  62.8403854  25.4332495
  63.3948326  58.9766073  22.2675562  63.9154720  58.6125755  22.9835534
  62.5896263  58.4590483  22.2697210  71.3683649  21.6455151  31.1398363
  70.4475208  21.9067837  31.1357474  71.7789646  22.2252441  31.7813683
  71.4223047  18.3286358  41.0131168  71.3578602  18.8555504  41.8096304
  70.5230662  18.0534721  40.8345556  55.5018234  50.3903437  51.7072010
  55.6149673  50.5580425  52.6427794  55.0121689  51.1473656  51.3856745
  11.2761440   1.1856485  45.8531952  10.6632462   0.8472849  46.5059614
  10.7420530   1.7476440  45.2918243  51.9692564  67.5804567  37.8910661
  51.3493776  67.4133301  38.6010313  51.4294529  67.5971603  37.1007705
  41.7393323   2.6548458  60.0700665  41.4373084   3.5451818  60.2498198
  41.0447606   2.0925022  60.4129553  43.6815929  61.9728565  51.8831348
  44.5815325  61.9695425  52.2092199  43.1523323  61.7157078  52.6381111
  78.1869455   0.9186579  12.7272010  78.9369484   0.5144907  13.1635213
  78.4629437   1.0139729  11.8156254  21.6077280  66.4695740   3.9121380
  20.7999516  66.8660927   3.5857946  22.1946192  66.4646530   3.1559846
  54.0599918  64.8241282  52.1970701  53.8716984  65.7100677  51.8874073
  54.8215485  64.5488214  51.6867065  75.5598783  52.8617764  25.6389189
  75.1336098  53.4120655  24.9818754  75.3456879  53.2768393  26.4744306
  37.4737822   9.1911688   8.1202057  38.3450066   8.7982502   8.0671624
  37.6343762  10.1344099   8.0929402  76.6896578   0.8286835  10.0113392
  76.6079088   0.2754665   9.2344862  76.4688297   0.2504374  10.7414758
  65.8979766  20.2712193   3.3203200  64.9477713  20.2369442   3.2100180
  66.2392216  19.6916809   2.6392010  37.0582619  31.0464836  42.5992584
  37.6703396  31.4581848  43.2092571  37.0683804  31.6152264  41.8294144
  68.2823940  19.9947620  36.3108802  68.9018198  20.2341629  37.0002508
  68.6963555  19.2573524  35.8624387  55.2704239  65.0620794  20.2220130
  54.4319057  65.4690504  20.0041032  55.2432060  64.2098093  19.7871244
  54.0944862  75.1409388  45.6609917  53.8502502  74.6292067  44.8898172
  54.8715258  75.6289196  45.3883791  27.6400518  68.8170099  30.6896782
  27.7360225  69.7654819  30.7758665  27.8367901  68.4761000  31.5622067
  50.7819271  68.6898613  22.8772044  50.7818174  67.8947496  23.4101462
  50.6453323  68.3784771  21.9824338  62.8771802   1.4090038  54.8723841
  63.4368154   2.0700241  55.2799320  62.6810690   0.7929922  55.5782890
  26.0416308   7.9295326  19.1160583  25.6604281   7.1670891  18.6806309
  25.3441324   8.2535053  19.6859491  68.0265474  52.2408962  49.0276003
  67.4136829  51.7138863  49.5403290  68.0501890  51.8148184  48.1707859
  27.0816651  29.6487404  47.2880793  26.5661183  28.8428474  47.2569370
  27.9496136  29.3668247  47.5768995  29.5008412   9.5103527  33.9985657
  29.3448296   9.0692974  33.1634855  29.7456494  10.4032970  33.7557530
  53.9473268  23.7330128  28.4046245  53.0983778  23.4597374  28.7522483
  53.7326165  24.3574120  27.7116179  36.2876769  24.7425247  63.4721375
  37.2063597  24.9973465  63.5577106  35.8000871  25.4726578  63.8534498
   9.6747580  22.4067951  14.3190789   9.9518862  21.8667866  15.0592279
   8.7318506  22.5162769  14.4422519  55.6157848   4.7537399  28.4711099
  55.4661819   3.8250805  28.6484122  56.0124775   5.0901295  29.2746735
  57.5239226   8.3874966  30.0396347  57.7737971   9.3046642  29.9273276
  58.1412455   8.0487419  30.6880045  52.8102180  18.9337040  58.9108324
  52.3294517  19.3992592  58.2264662  52.1648785  18.7933613  59.6037054
   7.1005287   4.1515804  40.5775166   7.5308695   3.3211351  40.3740501
   7.7947083   4.8061634  40.5008554  78.1457325   2.7920366  51.0963678
  78.2112356   3.3613897  51.8630362  78.0603500   3.3943392  50.3573322
  68.4146404  73.6461163  18.5078526  69.1139126  73.9056969  19.1077447
  68.7421274  73.8847971  17.6406646   2.5289574  25.4162575  64.8790359
   2.3166552  26.3395000  65.0161028   1.6800490  24.9904800  64.7594929
  76.6021010  13.1490875  38.5553169  76.0374256  13.2258392  39.3243980
  77.2854468  12.5334526  38.8203812  30.5184971  37.5711813   4.1429594
  30.2435814  38.2047739   3.4802321  29.7176396  37.3668614   4.6257809
  42.0590912  23.5803595  -0.1924249  42.9259907  23.9859858  -0.2060100
  41.8426548  23.5088721   0.7372406  61.9384500  40.4277874  22.6696062
  62.1295782  40.1072575  23.5510588  62.3802277  39.8085667  22.0885444
  25.2189102   5.1893497  49.6564674  25.3069582   4.2544485  49.8420334
  25.3657522   5.2612091  48.7133312  42.2299480  64.7757721  64.2833042
  42.5106001  65.3661442  64.9825335  41.4819813  65.2182436  63.8820601
  46.5248632  63.9501429  59.8629713  46.3639402  64.0952444  58.9306164
  46.0139751  63.1690788  60.0754833  61.3994455  50.0838089  11.9688725
  62.2382927  49.6297407  11.8889368  61.6309309  50.9643459  12.2643435
  34.4840312  69.7748375  57.5601101  34.2603540  70.5351067  57.0232725
  35.2638912  70.0450563  58.0449152  15.2370058  44.3755093  11.1032227
  14.8393427  43.7428417  11.7014101  15.9913336  44.7174683  11.5831068
  55.4958840   7.7790237  17.0319569  55.3229447   8.6365963  17.4204135
  56.3606282   7.8676106  16.6312039   7.3366677  25.0105515  11.9661454
   7.8009831  24.6319237  11.2196282   6.4468871  25.1574698  11.6453102
  39.3679547  73.3573294  23.9770293  38.8776541  72.5416136  24.0792513
  39.2952752  73.7887621  24.8283911  19.2518008  31.9447565   6.6808063
  19.2639506  31.0481954   6.3457549  19.3594277  31.8483138   7.6270342
  58.5049534  63.9714432  19.4936562  57.9662228  64.4702530  18.8794982
  59.3862724  64.3284369  19.3838179  37.1319723  53.2884836  21.8308234
  37.7749634  53.6957073  22.4113107  37.1722603  53.8071966  21.0273647
   6.4012900  13.2423378  34.9576998   7.1236172  13.0878330  35.5664706
   6.6795817  12.8217102  34.1441512  19.3998945  73.9578247  26.4228249
  19.9909139  73.7279177  25.7058358  18.5531998  73.5965538  26.1604834
  61.7026758  70.3203487  24.6737957  61.4777517  71.1629200  24.2791891
  62.1624851  70.5492783  25.4815078  62.2547217   9.9837090  51.6392994
  62.0614167  10.0313068  50.7030344  62.0470258   9.0811516  51.8811607
  41.5090322  49.3353653  39.6277261  41.6274500  49.3535042  38.6780524
  41.8136740  50.1932335  39.9235082  52.4448200   8.1938149  35.4710555
  53.1033631   7.5077892  35.5802059  52.4624773   8.3961273  34.5356464
  63.1102562  51.4252663  31.5548086  63.0454302  50.4741716  31.6410756
  63.8216162  51.5610600  30.9289002  62.6209402  64.6398211  47.3578787
  62.2680140  64.7709751  46.4778376  62.9943371  63.7586975  47.3373318
  57.0191717  54.3530846  30.2261543  57.3546219  54.3497038  29.3296647
  57.7600622  54.0665293  30.7601953  16.9851089  39.8729491  26.2417889
  16.1253881  39.4710374  26.1169720  17.4241018  39.7664118  25.3978872
  76.5152451  13.2140518  35.0192165  76.9610687  13.2858635  34.1752267
  76.8780132  12.4216248  35.4150629  36.6471863  64.4814444  31.9895267
  37.0324826  64.1573000  31.1754584  36.8670607  63.8150692  32.6405501
  36.5943789  61.7046499  23.8636327  36.3974524  61.5150070  24.7809601
  36.4172840  62.6405716  23.7691784  66.0410472   8.0196644  44.9473190
  65.2886625   8.6085964  45.0048876  65.9667846   7.6202274  44.0806198
  38.0152011  74.8828793  34.1178441  37.9473042  74.8879290  35.0726199
  37.1836758  75.2490473  33.8166523  61.4850041   6.7532326  32.9672384
  60.7362219   6.6180206  32.3864889  61.4074131   7.6644588  33.2498813
  73.3988424  20.3658558  64.2849445  73.1479260  21.0392262  63.6526155
  73.5648199  20.8479572  65.0950432  17.9669583  68.0158567  44.4534063
  18.6471343  67.5086021  44.0103674  17.3882401  68.3072042  43.7488270
  31.1244631  60.2937555  22.2000146  30.7153606  59.7057486  21.5650988
  31.1737251  61.1365271  21.7488551  66.8174502   8.5167004  23.0512381
  66.2610336   8.7419964  22.3056674  66.4435049   9.0043140  23.7851548
   2.1887293   8.3860947  39.0844393   2.0351687   9.1484810  39.6424794
   1.9735279   8.6879803  38.2019520  57.0462132  67.7526379  48.4097433
  56.3522959  67.4256563  47.8372049  56.5925407  68.0127907  49.2114496
  69.1087052  11.5952850  57.4508572  68.6120745  11.2672401  58.2005119
  69.4921585  12.4166084  57.7584696  53.3518358  28.7221981  53.1418800
  53.7964603  29.4126965  53.6335659  53.2234832  29.0941597  52.2692966
  41.8126011  61.8362284  46.6433382  41.8032408  60.9391785  46.3094950
  41.8975878  61.7379808  47.5916815  22.0136875  67.3515368  42.6903820
  22.3885101  67.6967335  43.5006762  21.7495770  68.1290007  42.1984148
  64.8350664  18.3117271  47.6798105  65.2579065  18.7602211  48.4121227
  64.5837065  19.0150429  47.0811462  34.4765320   4.8884655  52.4320221
  34.1890946   5.2096249  53.2867002  34.4965305   3.9363266  52.5282812
  46.0644861   7.7226997  35.5102396  45.4443380   7.9492165  34.8171735
  46.9253274   7.8773094  35.1212907  47.1376038  54.9749851  50.1754618
  47.3947287  54.3707514  50.8718967  47.3749638  55.8401346  50.5092430
  71.8960663  72.2821202  14.1301087  72.4398895  72.7368249  14.7733334
  71.2522551  72.9353608  13.8562182  47.2403574  62.7062798  55.1755571
  46.7233944  62.5787783  54.3801212  46.9365501  62.0211983  55.7710361
  64.0799713  53.8610697  61.0778189  63.6907673  54.5883274  61.5634632
  64.5733881  53.3707905  61.7353868  37.5800872  62.4692345  16.1635566
  38.1196427  63.2391977  15.9839189  37.4927855  62.0347166  15.3151441
   0.6847996  50.4073238  34.5803952  -0.1150375  50.0449467  34.9614167
   1.3300365  50.3573895  35.2856708  59.9561020  10.8032681  37.0009732
  59.7214457  11.5474869  37.5553274  60.4470822  11.1900402  36.2760043
  37.8306174  65.6337261  36.4098287  36.9036198  65.8272648  36.5492940
  37.8433847  64.7234631  36.1140347  34.2649009  15.1396729  20.7184029
  33.4732785  15.5421520  21.0755754  34.1659542  14.2067696  20.9084797
  50.2239418  41.1536932  64.9383688  50.2338409  42.0447636  65.2878332
  50.7838726  41.1942387  64.1630840  54.7111531  22.9089333  33.1326747
  54.1660401  22.4468113  33.7694812  54.2076608  23.6919380  32.9098845
  57.9246759  50.4641485  26.3101864  58.8460493  50.7197523  26.2657928
  57.7604103  50.3212261  27.2422934  59.3504544  12.2101475  54.5274734
  59.6512314  11.4465881  54.0347815  58.9420363  11.8434979  55.3116894
  27.6407375  19.8697639  32.7276874  28.3389607  19.3125988  33.0716062
  28.0892315  20.6638599  32.4370170  12.8149882   3.5318066  65.1963758
  12.3719206   4.2356230  65.6702566  12.2017851   3.2865549  64.5035076
   7.3531193  61.0816240  47.5337839   6.6349453  60.4501343  47.4927711
   8.1334347  60.5475903  47.6826000  49.8238897  45.6505919  46.5514851
  50.1067781  45.8276558  47.4486208  50.6383181  45.5370808  46.0615349
  59.5914936  53.4111309  31.3650537  60.1971006  53.3664513  32.1049690
  60.1545286  53.3714008  30.5919766  38.8944602  71.9232607  49.5196056
  38.0247712  71.9245291  49.1197681  39.0719461  72.8444147  49.7098637
  75.1074406   8.5897995  39.6141386  75.2365252   9.5128799  39.3962145
  74.4277521   8.5955978  40.2881002  62.7761173  43.3525085  52.6028824
  62.3242760  43.3955336  51.7601347  63.1279182  42.4631119  52.6408958
  55.9463406  71.0049343  50.7426167  55.5191517  71.1424112  49.8971367
  56.0709715  70.0574303  50.7967424   2.8045315  70.3997231  48.6716366
   3.6248440  70.1337814  49.0870810   2.9901165  71.2652349  48.3073854
  32.0034449  30.2703610   2.5679329  31.7214649  30.3277197   3.4808567
  32.9493611  30.1325121   2.6176337  13.4686339  49.5610857   9.1997445
  12.6281226  49.2991400   9.5754516  13.6779976  50.3878450   9.6343344
  56.9820499  64.1090345  24.2016029  57.2284794  64.2605162  23.2891560
  56.0250330  64.0931273  24.1917539  37.4144530  52.3535776  10.7902360
  36.5652084  51.9693184  10.5726171  37.5040579  52.2179508  11.7335331
  13.4846344   9.7992779  39.9113274  13.8966408   9.2584301  39.2375541
  14.2111578  10.2748371  40.3141117  72.0680997  33.9300524  41.2008592
  71.2915275  34.0497957  41.7475125  72.3997686  34.8165832  41.0584423
  69.3183583  68.9178085  36.0690594  69.5135385  68.3168697  35.3500223
  70.0843137  69.4897938  36.1177778  54.0697575  50.6242990  38.2569814
  53.6203575  50.3308344  37.4644232  53.5610056  50.2467442  38.9745188
  53.2967472  74.7165918  25.6993389  54.1835260  74.3647289  25.7770705
  52.7276134  73.9896393  25.9520459  24.0785933  67.3879385  62.6449585
  24.6306109  67.3353815  61.8647385  23.2639074  67.7840328  62.3357153
  36.3569164  72.2677708  48.1961346  35.8769727  73.0547380  48.4541368
  35.8523989  71.5458584  48.5710192  53.4432980   6.3256145  59.8409176
  53.7272473   6.0296513  58.9760447  54.0168949   5.8637310  60.4523754
   2.5022116   3.0829502  26.5031910   2.9936924   2.6742292  25.7907152
   3.1639471   3.5493017  27.0139313  65.8300277  14.5252872  12.1884608
  66.2815519  14.0062595  12.8540194  66.0109159  15.4337479  12.4297297
  52.3639917  57.1060848  43.2549620  51.8804359  56.7367601  42.5160408
  52.8656673  57.8279209  42.8761339  76.7319584  63.7160444  63.1410599
  76.5871429  64.5506096  63.5868835  77.6587200  63.5250139  63.2854557
   2.1443434  71.5348673  21.5309358   1.2988910  71.4241409  21.0959864
   2.5000888  70.6483459  21.5922284  27.8084186  23.2092748  63.5957010
  27.3389057  22.8521715  64.3495359  28.2735494  23.9708124  63.9420257
  40.9720469  66.8252230  12.6012146  40.9439135  66.1500645  13.2791531
  40.8142757  67.6437616  13.0716777  39.8516917  58.6944628  13.0208838
  40.7125139  59.0553141  13.2330215  39.5901704  59.1525602  12.2221446
  72.1343660  61.1259031  56.2577581  72.7641249  61.3898468  56.9285536
  72.5844288  61.2897015  55.4289961  30.8458137  59.2923904  16.2092447
  31.0691910  59.7281815  15.3867972  31.6756179  59.2348839  16.6829002
  47.1712466  19.1347099  12.4075413  46.3990685  19.6985603  12.4527526
  47.5022169  19.1093803  13.3053434  41.6626740  57.1278906  52.7202654
  41.3053083  56.3297844  52.3309755  41.0550070  57.8175354  52.4531412
  21.2401902  16.8545761  12.2601918  21.9076906  16.8349018  11.5744141
  20.4435240  17.1369686  11.8109635  66.1572218  63.3793116  38.1424665
  66.4868784  64.1075134  37.6158953  65.2861357  63.2021046  37.7874541
  58.5002708  72.5119686   3.9324749  58.3643007  72.8303909   4.8248595
  58.5809660  73.3062601   3.4044406  72.3458906   9.1079689  44.8928165
  72.6342007   9.9244095  44.4847441  73.0817648   8.8431526  45.4447126
  33.7453198  64.3966579  29.1326737  34.1660213  63.8608837  28.4602261
  33.0808210  64.8971033  28.6591482  75.7891321  54.1082478  41.7008066
  76.0538340  54.1610765  42.6191616  74.8618364  53.8729000  41.7319775
  56.8330526  74.8538351  56.5907621  56.4103222  74.9110126  55.7338715
  57.7702665  74.8756599  56.3974094  44.4448709  57.8131247  31.3819480
  44.7773838  58.5422897  30.8585167  44.7595024  57.0304632  30.9295297
  52.8826380  72.3383379  53.7523699  53.7444639  72.3350000  53.3358669
  52.3637009  71.7233801  53.2339478  51.9582435   9.1481186  46.7884016
  52.7453443   9.6018005  46.4869404  51.7738219   8.5067726  46.1021900
  22.9623846  61.0956989  62.4625325  22.8081993  62.0105015  62.2267484
  23.1795315  60.6681667  61.6341045  34.3820133  15.4049755   7.7210957
  33.8445034  15.9036423   8.3364332  33.7498799  14.9361206   7.1762925
  72.1744820  27.0797993  40.9251451  71.8050810  26.2256981  40.7008791
  73.1137415  26.9832588  40.7679701   7.0111742  11.6886307  42.9750919
   6.6122713  12.1900917  42.2640085   7.8853073  12.0660950  43.0733156
  73.2920500  13.6777760  21.4705276  72.5639387  14.1099812  21.9169331
  73.6729141  13.1031014  22.1345520  64.8050356  70.1095057  29.6025538
  65.6770802  69.9910259  29.2260814  64.8196316  70.9945726  29.9668002
  14.6898022  24.4940258  27.4186873  14.2631092  24.6236111  28.2656622
  14.4013872  23.6263729  27.1354556  19.0085827  47.5794354   1.3649157
  18.2935511  47.2987595   0.7937840  18.6132990  47.6326504   2.2350577
   8.3254519  13.8439728  11.4168656   7.6570835  14.4713760  11.6923213
   9.1367331  14.3515755  11.3969111  47.4040396   8.5358063  11.6419485
  46.8177302   9.0183750  11.0591963  48.0579312   9.1807572  11.9115523
  79.3730637   7.1731735  42.9484463  79.4613262   6.8730331  42.0438147
  80.2180000   7.5747372  43.1510830   9.5419354  34.7515202  41.6139364
   8.8868660  34.3596125  42.1914482   9.6428722  34.1192675  40.9023857
  65.9184381  43.7667919  57.6401329  65.4843041  43.0027939  57.2605801
  66.0753986  43.5243202  58.5527086   6.7612543   7.2141529  46.6456747
   7.5285759   7.0630051  46.0937691   6.0424843   7.3423077  46.0266638
   8.4633103  16.8063141  30.5487561   7.6005688  16.3996769  30.4677463
   8.8579359  16.3811565  31.3101673  64.4110151  30.5144955  60.8172226
  63.4766480  30.7114960  60.8834362  64.4787737  29.5908333  61.0590553
  70.5946060  10.0586678  23.0047774  71.3835951   9.8015190  23.4818530
  69.9907776   9.3262554  23.1280541  18.8435017  67.4306336   6.7175177
  19.2937886  68.1143990   6.2216023  18.0199467  67.8352967   6.9899824
   6.2285084  75.0689030  35.1326656   7.0676941  75.4922962  35.3135848
   6.4240593  74.1320705  35.1507878  24.3432127  18.1272164   0.3319529
  24.5678221  17.2012940   0.2400187  25.0199877  18.4817400   0.9085968
  70.8275887   4.7976948  25.4179645  70.8031651   5.6128956  24.9168730
  71.5187594   4.2819000  25.0026751   5.5157128  23.5264946  54.1144133
   5.8159199  23.1982971  53.2668304   5.9773913  24.3574501  54.2266703
  11.8037787  37.1683289  50.1893330  12.6595869  37.5670506  50.0317001
  11.9477787  36.5760304  50.9273624  34.3128610  69.4223213  43.7366343
  33.7060213  69.9919033  44.2094517  35.0621963  69.3297672  44.3249893
   5.3177776  18.1608749  39.4294286   6.0854759  18.0058266  39.9797273
   5.0048008  19.0261436  39.6932268  43.9555883  71.5862703  30.0361013
  43.3544493  71.2696362  30.7103443  44.6528673  72.0247889  30.5236864
  63.5647341   5.7558418  36.6252995  63.6192008   5.6436802  37.5743437
  62.8381392   5.1925446  36.3588572  53.5921431  60.9235764  36.7137694
  54.2676306  61.0275126  36.0435891  53.9438200  60.2601624  37.3074341
  63.5620785  61.5286160  42.1319437  63.7345362  61.6936731  43.0588961
  64.4283867  61.5203428  41.7249155  68.4737250   9.4686199  50.0767756
  67.8097817   9.9204613  50.5975914  68.8153835  10.1417137  49.4881773
  14.1442099  21.0872532  36.0052681  13.6007776  21.3807655  36.7365432
  13.5477581  20.5849434  35.4501367  24.1666880  12.7845646  49.8506308
  23.2480278  12.8880001  49.6024466  24.5778170  13.6109234  49.5970154
  60.5908486   1.2513472  52.7240610  61.0173722   1.9970203  52.3018312
  61.2898108   0.8247734  53.2197618  38.0808865  35.7746973   4.2785147
  38.9575421  35.8430186   3.9003161  37.5077235  35.6186762   3.5279301
  73.4518000  15.4648186  56.5103340  73.6460444  15.9968163  57.2820044
  74.2030903  14.8772694  56.4291906  15.6828537  32.5995708  53.7272835
  14.7446671  32.5394798  53.9073706  16.0126820  31.7135216  53.8768721
  62.4215933   4.1810728  28.2758999  62.6646706   4.8598648  28.9054966
  62.0049258   4.6581675  27.5582623  32.8887024   3.0828596  23.5442400
  33.1133690   2.2262836  23.9076018  32.5888386   2.8946091  22.6549292
  38.3393751   8.9197579   5.1255062  37.4479805   9.2682257   5.1108006
  38.8776337   9.6514740   5.4273346  31.2925282   7.4189545  20.6319523
  30.6417122   7.1775700  21.2910414  31.2320271   6.7286945  19.9715662
  75.1826130   2.4699679  16.7923525  75.7312428   1.7073002  16.6091135
  75.7154404   3.0146733  17.3716811  48.6490774  56.7263794  52.5671291
  48.0930567  55.9689331  52.7497673  49.3096352  56.3971853  51.9576073
  72.5515076   2.2840000  60.7574511  73.4520765   2.1605564  61.0573912
  72.0460888   1.6313101  61.2419891   0.8868637   8.3512856  32.7789831
   1.3762274   8.1972481  33.5870838   0.0671806   8.7522484  33.0680847
  29.4688450  26.8353310  26.0380534  30.3430973  27.2250071  26.0299376
  29.4761549  26.2153855  25.3087786  70.1799328   9.9362007   6.0215309
  70.3835661   9.0107266   5.8864239  69.2963345   9.9357716   6.3896159
  71.0698557  71.8357182  42.1882343  70.7110548  72.3260927  41.4486217
  71.3092089  72.5070429  42.8271914  10.5180395  60.7664299  64.3161726
  10.3735089  59.9127579  64.7243214  11.3908863  60.7019138  63.9286089
  71.1188380  71.8495312  10.9379175  71.7129509  71.1640015  10.6324509
  71.0057072  72.4235001  10.1802948  20.0359777  70.0812088  55.1422629
  19.2571071  70.6016289  54.9454054  19.8130134  69.1969620  54.8513695
  53.2813426  13.3073116  45.8839941  53.9505240  13.2145859  46.5620995
  53.6686488  12.9017998  45.1082420  32.0229283   5.8086277  41.5058327
  31.8685951   6.6834045  41.8624640  32.9055920   5.5826736  41.7992163
  57.3571444  45.2513552  19.9166334  56.6211367  44.7039747  20.1902986
  57.2542095  45.3346348  18.9686346  63.1187010  41.6958380  58.6839819
  63.7473392  41.7113733  57.9623175  63.1278181  42.5887108  59.0288353
   8.0920509  26.7012678  59.0031603   8.1489567  26.5072666  59.9387649
   8.9987759  26.6751180  58.6975488  67.5191264  63.5816231   6.0021952
  67.8447454  64.0598526   6.7647627  68.3010475  63.1893387   5.6136826
  25.4595648  38.8177672   0.8777073  25.0496231  39.3454876   0.1923683
  25.3484427  39.3339052   1.6761330  69.6191498   7.8659035  57.0429182
  68.8445755   7.4913670  56.6234064  69.9318071   7.1759487  57.6281023
  52.2778905  59.6378460  15.2287653  52.3311348  59.8886719  16.1509779
  51.5302783  59.0416661  15.1854781  78.8131762  70.0508261  42.2459793
  78.4960175  69.3816471  42.8524828  78.0258608  70.5263233  41.9809008
  59.2015982  73.8083553  29.3145704  58.3378506  73.5993195  28.9589381
  59.8139381  73.3396006  28.7475228   1.1871380  74.5894194  30.8594060
   1.9438309  74.2038822  30.4178095   1.4745850  75.4693747  31.1028767
  78.6046311  11.3308693  38.5972238  78.4788986  10.4939629  39.0444422
  78.5101792  11.1223484  37.6678014  65.4679632  53.8314152  55.1422977
  65.5471468  54.4345903  55.8813143  65.1318789  54.3716478  54.4271564
  47.9307099   8.2723595  60.1129675  48.6318394   8.2229591  59.4631910
  48.2449146   7.7418972  60.8451605  37.5352993  23.3217598  18.7013602
  37.7154675  23.8367535  19.4878411  37.4508133  22.4224354  19.0180957
  31.1738253  69.2359304  36.4607835  31.3085866  69.0387249  37.3877048
  30.6634521  68.4966278  36.1303592  19.8723638  58.6054611  56.9384956
  19.8268783  58.6291981  55.9826708  20.8092380  58.5808277  57.1331596
  37.0949688  28.7889362  44.5337629  37.4017849  29.4439865  45.1606560
  37.0603981  29.2547203  43.6982536  68.7928530   2.3650957  56.7394161
  68.8073345   3.0992247  56.1253500  67.8696533   2.2653843  56.9717836
  52.2961517   8.5277725  16.7180097  51.7944213   9.2823769  17.0263302
  51.7340037   7.7751232  16.9017291   5.1834666  45.4744663   4.1429404
   5.4548370  45.0034657   4.9308136   4.2339598  45.5590859   4.2295817
  18.6187119  51.5134144  35.2263689  18.0556816  51.5153313  34.4522738
  18.0325359  51.2866592  35.9483218  28.7920760  10.8202530  10.7847202
  28.6179703  10.8421494  11.7256987  29.1293123   9.9389721  10.6239820
   9.0540543  17.4285675  38.9927411   8.7759771  16.7636848  38.3627868
   8.6925306  18.2469536  38.6525011  50.0657197   1.8157316  31.0131598
  49.2440983   1.3413025  30.8863258  50.1701137   2.3318697  30.2138257
  20.0394192   5.5786205  29.8542762  20.3735438   5.8095051  28.9875102
  19.2784062   5.0254131  29.6780610  13.2257500   3.8378168  13.5645866
  12.8130045   4.2178036  12.7890313  12.9983845   2.9088141  13.5260236
  49.2842960  49.8050642  30.7974935  49.1852236  49.0696096  31.4020801
  50.2296305  49.8847055  30.6700873  79.8165365   6.7069508  40.0888586
  80.4920384   7.2622372  39.6995115  79.1147944   6.6914249  39.4380498
  20.8703556  22.6832272   8.8206381  20.7352963  22.8546597   9.7526258
  20.0216808  22.8669621   8.4178644  65.3333235  68.9965534  52.9057741
  64.6613836  68.6511183  52.3180628  65.9696388  68.2859945  52.9860020
   1.1395878  74.3936729  17.0210397   1.4986080  73.5600424  17.3250043
   1.7913002  74.7238541  16.4025879  42.5770950  56.2921906  25.1719046
  43.3468533  56.8604231  25.2005577  41.8540049  56.8542337  25.4502559
  69.9792954  17.8115726  47.4929571  69.1904303  17.8086353  48.0350971
  69.9244972  17.0015217  46.9859552  67.4677515  57.8108358  55.8854866
  67.8765965  57.2817707  55.2005291  67.6285505  57.3228359  56.6931009
  28.4297409  13.6551071  35.5780530  28.8438645  13.6435867  34.7151542
  27.9437485  12.8315998  35.6214952   3.7231054  33.5352779  56.2003517
   3.3819523  32.8410603  56.7641878   3.1769028  34.2956902  56.3995123
  46.7804909  60.2515125  39.7765017  47.6733017  60.3373194  40.1107979
  46.5378523  59.3462515  39.9710894  11.9279518   7.4647308  17.7571106
  12.3131218   7.3430420  18.6249042  11.0326519   7.7552773  17.9310465
  16.8271294  16.8781448  16.4829051  15.8942928  16.6880299  16.5824199
  16.9784584  17.6366783  17.0467782  10.9730425  25.9847237  54.4833946
  10.8306160  26.6683651  55.1380587  11.4849749  26.4130283  53.7973070
  30.5055224  42.9200402   6.8697146  30.0591027  43.0764618   7.7018622
  29.8018633  42.8960171   6.2212399  49.9619719  12.8660370  55.6531334
  50.4935022  12.0710636  55.6946087  50.5179068  13.5026909  55.2038670
  14.5763258  55.8449684  63.3376513  14.8650555  54.9545036  63.5375148
  13.6295561  55.8268009  63.4773943  18.4717411  67.6776743  47.6279831
  17.7514786  67.3917723  47.0661068  18.8369698  68.4404755  47.1796799
  13.8897505  45.4377914  34.6705127  14.7351637  45.2218033  34.2769885
  13.4038439  44.6131397  34.6618319  21.3743424  24.1658783   5.8230954
  21.6738582  24.1003442   6.7298621  21.5740681  23.3106184   5.4424775
  18.2122481  13.4214699  33.5029316  18.9754164  13.0414307  33.9381027
  17.4622452  13.0065525  33.9290428  21.6680503   7.1039224  19.8420238
  20.7739782   7.3151410  19.5732260  21.6555357   6.1589497  19.9940157
  20.1304293  29.7622037  39.4804025  19.5852709  29.1515064  38.9843369
  20.8948755  29.9079227  38.9230704  11.0201180   6.3746428  52.8153896
  11.0442686   5.4203647  52.7446651  11.7413843   6.6741604  52.2619534
  17.9166225  56.5121542  15.0822997  18.4917311  55.7753359  15.2886534
  18.5040954  57.2656571  15.0245035  72.6106232  23.3988452  38.6629462
  72.5646269  24.0065646  39.4010472  71.6982472  23.2630539  38.4072852
  63.5716516   4.2451242  55.8056164  62.7216905   4.6803626  55.7395411
  64.0254169   4.7111303  56.5078735  20.9978533  55.4420376  30.7705641
  21.5897036  54.7537374  31.0741925  20.3929090  54.9941111  30.1792669
  75.2784589   1.1813039   1.9548072  74.6665990   1.8484703   1.6437632
  74.7231674   0.4377313   2.1892911  33.2696128   2.3660037  50.9835577
  32.5252223   2.9643190  50.9192514  33.2761979   1.9010934  50.1468706
  32.9380083   6.2308234  37.7118349  32.4135733   5.6997716  38.3111548
  32.3708200   6.3659418  36.9527078  56.1870701  74.2370271  49.4833899
  55.4372377  74.0973189  50.0617218  56.7313159  74.8738895  49.9464607
  27.4403596   6.0031646  44.8970509  27.2866368   6.4206225  44.0495110
  27.9679561   6.6364032  45.3837633  63.1782815  70.6513159   6.7270100
  63.9132402  70.0862657   6.4887136  62.4024126  70.1112234   6.5768129
  54.0109207  33.4879707  51.1715269  54.8591002  33.5112070  50.7284880
  53.4438860  34.0393280  50.6323528  63.8535318  58.6285399  36.2581062
  63.1826422  59.2148243  35.9082341  64.3873963  58.3951913  35.4986525
  17.3519802  17.0022094  24.9087691  17.3771441  17.2897649  25.8214092
  17.1461999  16.0686553  24.9573827  12.7453053  14.2431939  45.3891993
  12.1898425  14.9735951  45.1167822  12.3240161  13.9033687  46.1786699
  10.0101733  51.6818762  27.5209641  10.9663165  51.7237043  27.5044250
   9.8095506  51.0652733  28.2250810  76.6810307  72.2430979  41.9137621
  76.2615714  72.9853695  41.4786577  76.7710695  72.5196772  42.8256989
   3.9705321   9.8140812  46.4868879   4.5814082  10.4576659  46.8458605
   4.4721016   9.3591136  45.8103800  71.5025792  59.4101345   1.6890597
  71.6773031  60.3171741   1.4380977  72.1302936  58.8959669   1.1812815
  31.0670161   2.0079990  34.4899964  31.7469478   2.6767534  34.5718050
  31.4656472   1.2158205  34.8502445  71.3996599  73.0574419  48.5928488
  70.8717367  72.8765314  47.8151608  72.2328100  72.6172828  48.4244680
  51.7502454  51.5336060  23.6443830  52.1947273  52.0546531  24.3130970
  52.4410554  51.3001179  23.0243039  62.6287842  14.4642246   5.9411329
  61.8743658  14.1875398   6.4612639  62.7904797  13.7324703   5.3456318
  12.3765684  28.8515911  57.5461963  11.4856995  28.6120293  57.2908643
  12.9049684  28.6726281  56.7683801  13.8249099   2.1128696  27.3949814
  13.3619714   2.5519830  26.6814685  14.6734250   1.8765081  27.0202994
  63.1634634   6.1022711  62.1877337  62.2828310   6.3857216  62.4334478
  63.2318705   5.2104574  62.5286484  17.0416025  55.7536398  46.3263702
  16.1903862  55.6987618  46.7607021  17.3483185  56.6412090  46.5117788
  37.3558334  62.2987508  45.3533125  37.8327469  61.7476701  44.7327518
  38.0000404  62.5121116  46.0283709  76.0335840  16.9936213  62.3273757
  75.6781305  16.2046609  61.9181999  75.6127895  17.7157590  61.8608111
   4.2171258  19.3378651  60.1656723   4.6637952  18.4939945  60.0978422
   3.8785595  19.3583870  61.0607624   1.0227646  21.7859697   4.6845925
   1.6681302  22.4899673   4.7488195   1.5425725  20.9823632   4.7003055
  16.1413085   6.8922985  16.3047898  15.9258556   7.8211945  16.3882411
  15.2929449   6.4490145  16.3014603  37.1166015   4.1392317  41.8874407
  37.7039909   4.8947352  41.8669319  37.2394109   3.7639624  42.7594042
  62.5562435   9.7730041  57.2126436  61.9800383   9.0237266  57.3636484
  63.4347373   9.4405377  57.3968887  46.7031945  35.4433100  55.1053235
  45.9787894  36.0450526  55.2767131  46.4250148  34.9466005  54.3358251
  70.9101188  39.9636054  50.8624172  70.7641613  39.1177893  50.4387140
  71.2312907  39.7414565  51.7363310  64.9811432  40.2743625  23.4063244
  65.1221201  41.1669992  23.7218571  64.8289356  40.3737616  22.4665451
  68.2349787  63.3021664  32.3479939  68.6760590  63.2541334  31.4998364
  68.8612089  63.7474846  32.9187465  26.6044664  12.3879552  47.5740528
  25.8969855  12.4739110  46.9350576  26.6732407  13.2551730  47.9733467
  49.2340437  58.6109387  37.3044181  48.6261386  58.5768258  36.5658236
  50.0256512  59.0112614  36.9447923  68.4564348  59.1684641  11.3025788
  67.7325340  58.5544743  11.4259222  68.6571976  59.4822897  12.1843031
  38.2493854  33.4203482  41.4729357  39.0210176  33.7076211  41.9610882
  37.9724884  34.1957021  40.9846926  43.0847410  63.4754001  23.7076712
  42.3274282  63.3061611  24.2680860  43.7732557  63.7518035  24.3124700
  11.0980705  68.9105826   2.7447823  11.7849759  68.6526375   3.3594829
  10.6818012  69.6686130   3.1550753  28.8061786   1.5204027  33.3988667
  29.5911336   1.6351536  33.9345074  28.7098622   0.5717400  33.3152342
   5.0394392  36.3016272  12.3284459   5.4238367  36.0291123  11.4952564
   5.7848221  36.3702750  12.9250395  76.0649953  67.3569774  22.4589038
  76.7812095  66.9458305  21.9749355  75.9288773  66.7867695  23.2155871
  20.7454705  34.0122747  18.6097276  21.0434103  34.0235543  19.5193076
  20.0408435  34.6594810  18.5804570  52.0616974  61.1427771  48.9598989
  52.6247092  60.6691205  49.5721912  51.2136084  60.7038712  49.0257740
   1.1726478  64.5449733  44.3051720   1.7362813  65.1289557  44.8126316
   0.7383493  64.0007733  44.9620295  78.8254112  25.9465814  60.1931286
  79.5105627  25.5829263  59.6322775  78.4402571  26.6523719  59.6737528
  77.8079778   4.4443431  23.2581210  77.5242506   5.3457838  23.1060171
  78.3489105   4.2319357  22.4975252  48.1556848  64.4398319  51.2548876
  48.7481502  64.9771582  51.7807150  48.2196597  64.8058771  50.3727579
   4.9369782   7.9999894  44.6390486   4.3583089   7.3360330  45.0139284
   4.8442262   7.8917009  43.6925268  63.0107132  62.7643405   9.4317698
  63.8183532  62.3085009   9.6687478  62.9419098  62.6524650   8.4836239
   1.6011266  70.1831489   3.0008301   1.9593433  70.2889030   3.8821524
   2.1507458  69.5109521   2.5979632  24.3073249  21.8169880  13.5684621
  24.0853548  21.0032654  14.0210271  24.3647814  22.4706459  14.2653561
  52.3806190  25.6138825  19.7159505  52.5964403  26.4358830  19.2755330
  51.6025782  25.2944136  19.2589760  48.4442139   0.4089940  14.3299651
  47.8239202  -0.2622291  14.6144426  48.0061436   1.2376409  14.5240486
   0.2485064  62.0004021  11.9939291  -0.2246233  62.1599888  11.1772835
   1.1649064  62.1722256  11.7773151  24.3293637  36.4021450  55.5824908
  24.7649298  36.9899691  54.9652573  24.0076793  36.9784478  56.2757632
  23.4158230  32.7966261  10.6656897  23.4286666  33.7393570  10.5003905
  22.7144575  32.6752067  11.3056707  13.6016420  68.3947890  18.8449335
  14.4193701  68.8292866  19.0873456  13.8028435  67.4603342  18.8953924
  36.3602838  75.3544918   7.1608233  36.5837607  74.5206323   7.5743067
  35.6030176  75.6707865   7.6535064  16.4580441  24.9300385   3.4435180
  15.8091033  24.3951273   2.9863775  17.1871054  25.0007653   2.8273204
  36.2834454  16.7302060  36.1146784  37.1343970  16.6364324  35.6865191
  36.3576198  16.2062562  36.9123054  14.8942220  28.7892866   3.8898706
  14.6186960  29.6960688   3.7554640  15.5867541  28.6511064   3.2436997
   8.0128658   6.8048918  30.7891893   7.7961361   6.9621629  31.7081690
   7.5470436   7.4917859  30.3123045  25.0218401  39.9540996   3.2544065
  24.9127350  40.8702945   2.9996234  24.5617280  39.8816203   4.0906331
  55.1401394  54.6797608  32.9290199  55.3177889  53.9167928  33.4790659
  54.5301316  54.3592476  32.2646451   6.7145813   7.1631336  38.5390186
   7.1921492   6.7695302  39.2692494   5.8094448   7.2165191  38.8457942
  77.3195085  34.4139409  50.9512043  77.5058920  33.7772417  51.6412067
  78.0847175  34.3761683  50.3773928   6.0563415  43.9367628  44.2429590
   5.3488147  43.9178562  44.8873806   6.6742390  44.5830917  44.5845652
  70.9257996  14.0897310  17.9415441  71.3287186  14.7989833  17.4406958
  70.0934487  14.4529450  18.2440329  33.0998025  71.4458065  20.0870132
  32.2789965  71.5623336  20.5654812  33.6269054  72.2080832  20.3264499
  37.3690721  46.9219495   2.1684864  37.5971993  46.0568883   1.8281058
  36.6676685  47.2282000   1.5936163   6.2141711  15.9829259  58.0401993
   7.1442586  16.0602045  57.8276062   6.1394113  16.3449836  58.9231253
  69.0537093  72.8929894  13.8822377  68.4183464  73.3726161  13.3507264
  69.0516970  72.0080402  13.5174179  46.0707940  35.4673839  61.2882632
  45.5778838  35.7757716  60.5278894  46.8475569  35.0492999  60.9166756
  70.4022860  38.2012272   8.3870524  71.0760516  37.5229049   8.4334153
  70.6720626  38.7572098   7.6560700  56.4011222   6.8357933  26.6081214
  57.2633654   6.6579401  26.9838023  55.8464151   6.1278999  26.9358730
  31.8647159  52.6189027  65.1500609  32.4579174  51.9246588  64.8630605
  32.3798538  53.4218201  65.0713894  68.0991650  23.9568233  33.6325622
  67.3880243  23.4170032  33.9776683  68.7059021  23.3301854  33.2383132
  12.1824721  50.9250187  33.7635565  13.1223968  50.7440757  33.7578177
  12.0632366  51.5940594  33.0894685  12.4773860  31.2805510  30.2267838
  12.5123119  31.5371943  31.1482763  13.3946264  31.2235308  29.9591088
  12.8059272  67.6746195   4.7198075  12.4268822  67.3900442   5.5514169
  13.6739925  68.0040722   4.9525228   4.0222243  63.2958995   7.9938543
   4.5168356  62.9424845   7.2544694   3.3195142  62.6618897   8.1368947
  29.8445868  10.5302298  23.4435678  30.0924540   9.6101630  23.3526254
  30.1730394  10.9466553  22.6467371  38.4779191  17.3614120  49.3707943
  38.0881906  17.1598053  50.2215004  38.2897925  18.2900953  49.2352009
  19.8276567   3.2238701  34.6629238  19.8475099   2.9382265  33.7495542
  20.0704050   2.4445701  35.1629210  14.2222872  37.7551029   7.0955828
  14.2160072  38.1632774   6.2297943  14.5770636  38.4289504   7.6754931
  32.3847760  39.9767417  63.4463551  32.3246820  40.2140418  64.3717248
  32.3617257  40.8137110  62.9824771  56.2097484   9.0838015   1.5932441
  56.5281659   8.1926483   1.4494067  56.0410362   9.1288769   2.5343797
  19.9467234  67.1601950  64.7023058  20.1493601  68.0139880  64.3199301
  20.0319246  67.2941970  65.6462383  33.2609149  23.4109940   8.0289296
  33.5601761  23.0389489   8.8585451  32.7258029  24.1629399   8.2828263
  38.2896352  20.9607530  61.6685963  38.3854651  20.0771332  61.3132572
  37.3480725  21.0620379  61.8079996  44.6699142   9.1184270  33.5260344
  44.7713804  10.0321579  33.2595181  43.8691807   8.8288903  33.0887413
  22.7040911  20.4504228  23.2611442  22.6393819  19.5728266  22.8844881
  23.0093765  20.3048301  24.1565967   3.3869702  33.8909030  26.8571687
   3.1750610  33.6066771  25.9680438   2.8446469  33.3390307  27.4206877
  24.5776820  52.1087265  23.3522177  24.1068673  51.3288164  23.6459923
  25.4992628  51.8502426  23.3625674  15.0141414   0.7948280  51.8510246
  14.6958359   1.5893818  52.2795057  14.3368205   0.1411892  52.0248842
   4.3511483  39.6823359   9.8989141   3.8251910  40.4324245   9.6214801
   3.7109670  38.9926720  10.0743091  41.4985800   0.3043889   4.0723634
  41.4117432   1.1948671   4.4125691  42.3722029   0.2813059   3.6818808
  39.8239422  12.2788227  40.0369978  39.7902465  12.5825870  40.9440947
  40.7523251  12.3148322  39.8066831  24.9061513  32.9930186  26.7747426
  24.6379495  32.1148157  26.5044475  25.8213329  32.8938270  27.0371127
  44.9107790  17.2422111  27.3019624  45.1002502  16.8936408  28.1730723
  44.1450405  17.8022385  27.4294233   4.8500470   1.0971676  49.8845002
   4.7355584   1.6837273  49.1367885   5.6373218   1.4194046  50.3233549
  73.8458074  61.7444978  54.0490708  73.2100881  62.1244416  53.4426567
  74.4825615  62.4435792  54.1976103   6.5336186  33.9977837  36.5767884
   5.6141907  33.8004208  36.7554832   6.9504702  33.1403399  36.4915967
  45.6594435  50.8638739  22.7527499  45.7371226  49.9117850  22.8137898
  45.5559752  51.0362314  21.8168998  25.2708840  26.7356563  20.7582808
  26.1415601  26.7140794  21.1553812  25.4181576  26.4907885  19.8447275
  75.1330465   3.4603289  41.2260771  75.8608445   2.9623881  40.8537912
  75.4948812   4.3325675  41.3826275  12.5298348  35.3277382   4.0813330
  11.7321148  34.8804249   3.7988690  12.9604759  35.5867247   3.2666567
  43.0995560  11.9665504  20.4001856  43.3726406  11.3106489  19.7587395
  42.7592373  11.4559448  21.1348248  50.5352763  54.7533511  54.2690516
  50.0411979  54.3768691  53.5407829  51.0425228  54.0206646  54.6184874
  16.5574753  31.6454792  24.9733901  17.4335015  32.0300770  24.9434638
  16.6020024  30.9012413  24.3730927   6.6113365  32.0204139  34.3610096
   5.9627414  31.3286543  34.4914818   6.2685192  32.5355101  33.6306763
  74.3829045  62.7560925  38.6468983  75.1056537  63.1749999  39.1142130
  73.9312420  63.4771942  38.2084394  42.0426083  17.1085143   7.5574404
  42.8283596  17.2622526   8.0820256  42.0233917  16.1604321   7.4270445
  46.0422945  21.1196256  10.4352224  45.4397297  21.7490411  10.0390136
  46.7923689  21.0993409   9.8409063  41.9115543  22.8116393  14.0103722
  42.4797249  22.0429468  13.9601636  42.3603010  23.4757519  13.4871006
  39.5779562  14.4109106  27.5515199  40.4022741  14.7812307  27.8671074
  39.6335626  14.4802511  26.5984535  60.5624104  12.1306610  46.8610668
  59.9632263  12.7650690  46.4677000  60.1657772  11.2795269  46.6753674
   9.5704341  33.6045909  30.8210588  10.0006795  34.1002011  30.1242852
   8.9419937  34.2195129  31.1994314   6.0956216  15.1728606  32.1210766
   5.9839708  16.1156940  32.2428584   6.1423701  15.0578260  31.1719656
  31.0724521  26.5174580  39.8137116  30.4390287  26.2294436  39.1564035
  31.4551878  25.7066751  40.1489353  14.3650258   5.3554016   9.2984712
  14.7293401   4.7367039   9.9314958  13.4209871   5.1999289   9.3276566
  77.8894219  54.1559409  14.2650926  78.6577544  53.6117505  14.4375813
  77.1507845  53.6333655  14.5774460  45.7844067  61.7319155   5.9923846
  45.3595829  62.0625305   6.7838717  46.0664415  62.5185156   5.5255336
  22.2699455  66.9407885  47.4502707  22.2746805  67.7726149  46.9766951
  23.1953529  66.7204856  47.5566721  74.9133954  71.1111339  58.0819750
  74.1244373  71.6475530  58.0043221  75.5514154  71.6837673  58.5077143
  74.3621707  42.5623655  18.7909222  74.3919402  41.9477129  18.0577469
  73.9435571  43.3443451  18.4310532   7.6458752  48.0623150  23.9940000
   8.5516745  48.0391979  23.6854148   7.3870885  48.9799023  23.9085865
  40.2709866  12.8872824  53.1967545  40.2107906  13.7125671  53.6779118
  40.4556227  12.2311461  53.8687849  27.0034933  38.5323238  51.0789919
  27.6270604  38.1483984  50.4625511  27.5062156  39.2024302  51.5420866
  66.4650378  26.2929319  12.6882648  65.6182763  26.6738533  12.9209197
  66.5290532  26.4121365  11.7406762  46.5209150   3.5420096  29.3623924
  46.0050726   3.0354464  28.7350726  45.9242058   4.2260307  29.6661758
  27.7225089  21.0712862  10.8713043  27.3689985  21.9376373  10.6695664
  26.9497752  20.5190825  10.9904027  76.1551019  17.2128999  23.7043214
  75.5351063  17.5967348  24.3244100  76.2767321  16.3147521  24.0121651
  50.3124905  25.3185320  34.2187333  50.1433945  25.9047890  33.4812093
  49.7580814  25.6538987  34.9232817  38.5848856   8.6584598  14.5606053
  38.1088781   8.5751802  13.7343407  39.4264936   8.2331836  14.3960881
  79.7735851  45.2600288  17.1593833  79.1186794  44.7945023  17.6795900
  79.7777180  46.1474848  17.5180483  65.1051312  51.7673635  29.5185041
  65.4760664  52.6428223  29.6290064  65.5245596  51.4275455  28.7280369
  53.4574704  70.9380876   2.8210738  53.1659619  70.4356583   2.0602719
  53.4745145  71.8454372   2.5166759  12.0118546  60.9911776  42.7733278
  11.3403022  61.6448832  42.5786114  12.6826251  61.4735270  43.2566881
  46.0893917  17.3253381  19.5543659  45.4986620  17.8019488  18.9711726
  46.7776680  16.9925797  18.9783645  46.6831160  37.6756716   4.0035072
  46.4754152  38.1958961   3.2273269  46.5608835  36.7685175   3.7235767
  12.6043466  60.8681928   8.7411296  11.6731409  60.9658705   8.9399946
  12.8596834  61.7124366   8.3692598  17.1913111   2.6081702  32.2099090
  18.1474137   2.6327315  32.2485876  16.9946432   2.3458797  31.3106012
   9.4916189   7.7267778  15.2487636   9.6128547   8.1764400  16.0850275
   8.6460674   8.0407971  14.9283481  45.2674044  64.0412578  48.4660324
  44.9125589  64.3764982  49.2893979  45.4355146  63.1146345  48.6373243
  25.3664207  31.8567824  14.2982566  25.5194569  32.7544141  14.5933306
  24.7731328  31.4875007  14.9523759   6.0470062  20.0128627   9.3984753
   6.6759318  19.2912996   9.3927914   6.2569368  20.5197477   8.6141109
   6.4220864  22.9508042  25.2351713   7.3696709  23.0100942  25.1135135
   6.3069761  22.8657460  26.1816096  28.1990847  68.3271699  27.3901558
  27.5466642  67.6300066  27.3227668  28.5043321  68.2827716  28.2962942
  15.8861041  60.6547165  12.3052561  15.1336920  60.6700277  11.7137563
  15.7439423  59.8832178  12.8537142  53.8058222  39.7326029  51.6797957
  53.9813222  39.9610189  52.5926241  53.3750380  38.8790172  51.7250547
  38.9437366   6.1480349  38.7599277  39.0547633   6.3039434  37.8220582
  38.5765696   5.2657247  38.8142371  22.9846692   4.0145928  16.2852454
  22.0502019   4.1871855  16.4002025  23.1473231   4.1848809  15.3574646
  27.8288031   8.7858361   8.3966815  28.4185648   8.0798793   8.6613292
  28.3140612   9.5881432   8.5891950   5.8960894  49.6736788  31.2558413
   5.4684571  50.4514812  30.8975315   6.7808155  49.6973847  30.8912420
   8.9227086  23.5210013  23.8178587   8.2632053  23.6904454  23.1451201
   9.5382673  22.9166818  23.4029865  40.2555136  58.9489435  22.9024601
  39.7074846  59.6080338  23.3284807  39.6371082  58.3943020  22.4268770
  67.4581047  49.8301746   4.3660191  66.8357750  50.5555345   4.4188622
  67.4126001  49.4124164   5.2260426  54.2244462  74.1450856  51.3566494
  54.5331249  73.8405997  52.2100163  53.7363331  74.9454271  51.5501213
  40.2358497  29.4561878  64.6792247  39.9879707  29.8052279  63.8230946
  40.7171596  30.1694951  65.0984688  39.5278215   6.9383711  36.1889863
  40.4737377   6.9863147  36.0505033  39.1602015   6.8654573  35.3082085
   3.7438405  42.8605461  24.6268630   3.5890323  41.9747305  24.9548793
   3.2864004  43.4287930  25.2466035  22.8952742   5.0165045  22.9999185
  22.2146440   5.1562577  23.6582828  23.3403635   4.2172292  23.2814980
  26.4636350  12.9540515  53.9512730  26.7225051  13.0272961  53.0326557
  25.7239509  12.3465610  53.9439631  27.6777887  39.2472219  20.4214621
  27.3889136  39.6502376  19.6027064  27.0347166  38.5583663  20.5892873
  78.3634689  34.2752075   6.8262756  78.0177133  34.5736575   7.6674724
  78.1118646  33.3529544   6.7775261   8.9513052   4.7254989  23.0694747
   9.6124893   4.4984242  22.4156380   8.7505269   3.8970047  23.5048103
  75.3510880  17.3630834  21.0696983  75.7023853  17.2069454  21.9463062
  76.0976469  17.2307849  20.4854202  47.1448326  19.3201971  23.0898452
  47.9069853  19.8620260  22.8854585  47.2810125  18.5163426  22.5883412
  71.2133395   6.8241966  20.4578590  71.2376535   6.6518301  19.5166206
  71.0643011   7.7673453  20.5248666  50.1974869  26.0760498  41.5316391
  51.0431767  26.5242863  41.5203953  50.3984261  25.1932549  41.8423319
  13.4638143  36.6162419  17.3219836  13.2661915  35.9129596  16.7034602
  14.4089341  36.5547800  17.4605548  59.9287241  16.8575132   6.5351170
  60.0608974  16.0250783   6.9887859  60.1224261  17.5233042   7.1949905
  56.6136191  72.4558552  10.8430374  56.7917264  72.1252831   9.9625653
  56.0102481  73.1863981  10.7070863  26.0090041  35.8296037   1.8968426
  25.1768708  36.0442638   1.4752886  26.1727571  36.5623450   2.4905658
   0.7084656  17.5672781  45.0467682   1.6360524  17.8025579  45.0681686
   0.3694410  17.8522789  45.8953381  76.9957131   2.0696326  19.8159492
  77.0809701   2.9048428  19.3561804  76.2551203   2.1971056  20.4088283
  23.2988548   4.3399444  59.4849300  23.1174016   3.7064463  60.1791811
  23.5261178   3.8040239  58.7250805  27.5104383  66.9405048  38.1089401
  27.6148704  67.1503477  37.1808815  27.9815821  66.1150365  38.2223415
  18.9704708  71.0047515  36.6127825  19.1607336  71.9210826  36.8137074
  18.0206446  70.9313499  36.7059207  55.3006002  50.6437864  10.6388596
  55.5214950  49.9353196  10.0342825  55.0509163  51.3734199  10.0718287
  30.2713561  26.9575953  60.7799435  30.1223922  26.9318533  61.7251301
  29.9687052  27.8256679  60.5133295  38.2681823  21.0401225  16.8210280
  39.0765357  20.8737612  17.3059189  38.5532832  21.4969516  16.0296655
  54.7434748  67.4188981  54.5956561  54.1726388  67.2382626  55.3424814
  55.2430643  66.6113505  54.4752142  31.2452221  32.2867513  39.3918324
  30.9443450  32.3352695  38.4844446  32.0535064  32.7993536  39.4038844
  22.2854948  41.0725689  25.0621080  22.0283794  40.2118158  24.7316146
  21.5353084  41.6359282  24.8721766  67.6525940  62.1676264  42.5606629
  66.9801534  61.9232092  41.9248053  68.3819879  62.4846349  42.0280072
  18.6310983  24.0077376  31.4880037  18.6797392  23.5421991  32.3229527
  17.7415180  23.8448310  31.1744142  32.9459476  24.5202255  64.3589211
  32.2116113  23.9226890  64.5001078  32.5518966  25.3923726  64.3767262
  12.5411761  24.9537969  35.7271242  12.0066202  25.4063678  36.3795519
  11.9091308  24.4798541  35.1866341  34.9567819  26.4446568  30.6411815
  35.6256127  25.8291507  30.3410959  34.1331244  26.0799575  30.3174305
   3.4795407  68.3714937  30.6942582   3.7206820  69.2713921  30.4745650
   4.2601041  68.0100863  31.1141872  12.7068985  39.6520209  12.8872395
  13.2556462  39.0425181  13.3808136  11.9575858  39.1265106  12.6068807
  55.6299484  62.7554571  18.6740065  56.2638373  62.6967560  17.9591846
  55.7398248  61.9377576  19.1593170  11.2170899  11.4379537  28.2634950
  12.1730077  11.4234209  28.2161450  10.9917927  10.6723225  28.7919664
  16.5633905  43.7897015  34.2719436  16.0605931  43.3387518  33.5936546
  16.2105036  43.4528351  35.0954866  76.0686601  50.9668348  58.2463297
  76.2728704  51.2094114  57.3431763  76.7606605  50.3526971  58.4916910
  37.5041819   1.1941806  40.1523590  38.2161760   1.6200319  39.6749210
  37.1751904   1.8701524  40.7448626  55.6129742  25.6681395  21.8293691
  54.9337673  26.3126850  22.0280433  56.2124395  26.1258245  21.2399650
  28.3114266  20.7028985  41.3332939  27.5634956  21.1715627  41.7036772
  29.0764737  21.1306190  41.7179918  11.7356805  62.8730165  37.3147941
  12.2125176  63.6483013  37.6110911  11.2145738  63.1811701  36.5733624
  77.4543843  73.3572551  29.6283531  78.0306849  73.8096263  30.2443647
  76.8794904  72.8288876  30.1820278  49.7381353  20.8466530  14.5376444
  50.2456427  21.6544795  14.4596624  48.9098740  21.0408473  14.0988934
  41.8731213  31.4227676  36.8131447  41.2346649  30.7915044  36.4813113
  42.5113058  31.5125251  36.1054063  17.5412869  54.7183561  36.0802984
  16.7964590  55.1565647  36.4919209  17.5636208  53.8518000  36.4862728
  11.0832682  35.5823486  10.7969025  11.9920340  35.8684306  10.7045439
  11.1466065  34.6879034  11.1318472  21.6582513   7.3648709  31.1623240
  20.9725332   6.8255955  30.7683635  21.1837387   8.0572128  31.6224694
  10.1520923  72.2854157  34.6805167  10.8809856  71.9987046  35.2307391
  10.1011995  71.6266071  33.9879775  10.2464771  31.1486077  22.7344799
  10.8049464  31.8757868  23.0093479  10.1653981  31.2539124  21.7865515
  10.5517602   5.4034019  14.0919018  10.0771379   6.1583066  14.4398737
  10.0437927   5.1329046  13.3270288  71.5876144  47.3213387  32.2814822
  71.7890060  46.7153025  32.9945016  70.9753978  46.8406963  31.7243409
  32.3436570   5.0219393  31.1573529  32.0868587   4.7828916  30.2667689
  31.7492080   4.5251372  31.7195392  65.2590555  32.8251004  23.6071014
  65.4860705  33.4585643  24.2878485  65.1001340  32.0095062  24.0822673
  20.1017523   2.2203436  37.3445034  20.0579906   3.0972651  37.7257180
  20.6289077   1.7158774  37.9640603  57.5307179  59.3258344  56.5567493
  57.9235086  59.2424857  57.4256611  56.7679495  58.7481116  56.5822935
  69.0142196  44.6362257  27.6109147  68.9573008  44.4421482  28.5465050
  68.1481677  44.4164228  27.2675872  45.9433985  26.5933609  54.8841286
  45.0273037  26.5985560  54.6066999  46.4402056  26.6914153  54.0718460
  28.9578509  31.2007475  55.9264946  29.4865704  31.7614245  56.4942360
  29.3435335  31.3085079  55.0570869  73.7808901  16.8266714   6.0466069
  72.8419631  16.9042373   6.2158149  73.9027267  17.2254097   5.1849830
  77.1713701   6.7125118  26.3697815  77.3551523   6.6925371  27.3089600
  78.0167834   6.5372491  25.9565115  26.6312170  17.3175788  57.3893261
  25.7564831  17.2217345  57.0126438  27.1455884  16.6214442  56.9806099
  33.4409142  34.9536371  50.6887722  34.1734409  34.5568109  50.2174330
  32.7522612  34.2892671  50.6642580  67.0980010  70.6834265  24.6459365
  67.8370914  71.0298376  25.1459122  66.4728138  71.4073609  24.6099949
  34.4556832  30.7288051  49.7439051  34.6252322  31.0136509  48.8459349
  33.7076902  30.1361227  49.6699762  59.2894353  69.2342577  48.2553944
  58.4449948  68.7955246  48.1521103  59.9128355  68.5226474  48.4010455
  35.8809042  25.9329271  44.5223570  35.7509542  26.0894346  43.5870218
  36.3744497  26.6946530  44.8263550  14.5927227  17.4529541  24.2705822
  15.4927099  17.7784634  24.2533350  14.0581596  18.2147706  24.0467262
  69.6438691  67.3313533  40.7499647  70.1883635  66.6405599  41.1275387
  69.8713455  68.1155573  41.2494755  79.0942777  43.1672398  53.8607094
  78.2855667  43.2451085  53.3545956  79.5179332  44.0205625  53.7680289
   4.4379905  25.8285904  21.8762708   4.4170135  24.9526429  22.2616386
   5.3697574  26.0308576  21.7918348  27.1202111  40.6732750  14.8967409
  28.0281210  40.6134367  14.5995021  27.1612740  41.2158537  15.6842387
  76.2317463  23.3014321  15.0038970  75.9419203  22.3997402  15.1424038
  75.4791918  23.7359214  14.6025085  27.0942616  15.0688362  30.7149053
  26.6875529  15.9133255  30.5208516  27.3615623  15.1367176  31.6315150
  24.7124052  30.0466704  26.8411541  24.9429464  29.1511869  26.5937853
  24.2833662  29.9571633  27.6921225   4.1574523  37.3607564  24.4068313
   4.7228172  36.9138575  25.0368142   4.7439858  37.6080012  23.6919332
  56.8637265  56.1461732  58.7533089  56.0852755  55.8035335  59.1924473
  57.1122469  56.9127295  59.2698934  13.3785681  70.3932412  27.1899629
  12.9914025  70.8748933  26.4589739  12.9502825  69.5375215  27.1665978
  33.0016112  29.6271896  32.5762844  32.2277761  29.0721083  32.4798894
  33.3905816  29.6497846  31.7019701   6.3527292  25.2919388  29.0239048
   6.8101048  24.5241237  28.6811256   6.9119519  25.6065440  29.7342038
  20.6425691  32.6235342  49.0122175  21.4065862  32.2088099  49.4128656
  20.1856828  33.0403996  49.7427750  70.9675786  49.6546458  35.7460046
  71.1337147  50.3957461  35.1634216  70.1501474  49.2750739  35.4235721
  26.3925838  52.5627565  32.0047379  26.4052582  53.0130768  31.1601782
  25.4794145  52.3013401  32.1231031  16.9685268  28.4033132   2.1090887
  17.5432491  27.6942730   1.8206638  16.9904280  29.0363336   1.3914293
  22.1980381   8.8523847  58.0690908  22.5251484   9.7037196  58.3597136
  22.7410555   8.2157630  58.5339355  49.8496532  19.6641636  19.3079579
  49.6525669  20.1048684  20.1344967  49.0316057  19.2292190  19.0674305
  78.7692138  35.6964159  28.5339546  78.8855275  34.7538471  28.4145141
  78.7287833  36.0473871  27.6443386  25.3502727  14.3109703  45.5160856
  24.9408054  14.2028189  44.6576738  26.2793922  14.4377291  45.3239965
  18.0526817  38.5186338  52.3321772  17.6329732  38.0198479  51.6312599
  17.4267256  38.4882545  53.0557013  29.9018240  19.0937388  48.0203056
  29.4123840  19.3637812  48.7973213  29.8148084  19.8298204  47.4146271
  73.7876284  39.8099327  24.7407818  74.5161414  39.6717525  25.3460979
  73.8696301  39.1020250  24.1017437  38.2298252  73.2594313  38.6690092
  37.6738868  72.5335162  38.3857965  39.0350053  72.8401796  38.9725637
  27.0127034  13.1729269  24.6673846  27.3154116  13.5455561  23.8392854
  26.0877705  12.9769635  24.5179510  14.8029840  22.6839495  33.2541966
  14.6143806  22.2246552  34.0725541  14.6481490  23.6066818  33.4562373
  53.0308056  25.3618908  33.3166528  52.8753281  26.0903573  32.7154922
  52.3207998  25.4230142  33.9557076  37.8958225  29.5779538  29.8994350
  37.5885868  29.4727087  28.9990115  38.1607556  30.4959965  29.9563456
   4.0044522  16.9704342   9.7206348   3.8983303  17.5963056  10.4370534
   3.2360083  17.1078932   9.1667116  77.8454327   1.2173364  41.7781305
  77.2108650   0.8795419  42.4101496  77.4265687   1.0901965  40.9268856
  40.2327108  34.1670895  43.0910397  41.1113834  34.2456174  43.4625149
  39.9131227  33.3224607  43.4083700  74.1816435  67.2484611  51.4642477
  74.4706926  67.6367961  50.6384850  73.4056005  67.7532064  51.7076063
  25.0785589  28.8908696  35.7656908  25.9762740  29.0959501  35.5043888
  24.6824121  29.7424364  35.9504342  47.8706459  72.2237991  35.5263257
  47.0941118  72.7645134  35.6707406  47.6655630  71.3915073  35.9523106
  21.1921692  16.2211955   2.0664227  20.9930968  16.1878812   1.1307456
  20.7572508  17.0158243   2.3756844  23.6638594  44.8515749  31.2596655
  22.8521156  44.3882513  31.4661455  24.2582607  44.6235514  31.9744515
  27.6552200  37.5368619  38.0484581  27.2674346  38.3661151  38.3280897
  27.4909759  37.5013542  37.1061230  64.1632594  47.2551135  36.4841363
  64.6771635  47.4352304  37.2713396  64.6568788  46.5746722  36.0263464
  12.1128786  23.9248013  41.9585419  12.8298485  23.3910441  42.3010159
  12.4258804  24.2279148  41.1062574  57.8790760   5.3543299  64.9495697
  58.0166531   6.2995815  65.0112534  56.9314003   5.2557075  64.8578215
   2.7554587  59.9502181  13.1182790   3.1942014  59.1008793  13.1668508
   1.8222717  59.7374510  13.1071031   2.1707150   1.7206141  12.5708842
   2.0790042   2.2796325  11.7993140   2.2007056   2.3315889  13.3071184
  24.2519096  42.2962378  16.7598534  24.8887590  42.4050282  16.0535824
  23.6276964  43.0104827  16.6316211  33.7762690  27.0144749  52.7820349
  33.6783266  27.3563313  51.8933392  33.4058213  26.1327887  52.7416754
  19.7039032  13.8934457   5.6102633  19.7105157  12.9386389   5.6775886
  19.6460223  14.0669060   4.6706924  18.3241928  59.2159843  12.3082471
  17.9310966  58.3948231  12.0126009  17.5824368  59.8111582  12.4168539
  64.3550858  67.4436777  39.1060185  65.0701353  66.8217187  38.9714742
  64.7922644  68.2752429  39.2893410  15.3158689  31.4031053  12.3603082
  15.8428979  31.7325163  13.0882907  15.3328609  30.4516482  12.4636137
  23.9497924  36.4384127  20.8282208  24.9058676  36.4069843  20.8623242
  23.6910272  35.5597496  20.5503345  13.9814806  28.8728786  45.0457811
  14.1042876  28.0024219  44.6670246  13.0476570  29.0522432  44.9360847
  12.4410347  40.4799460   6.4225769  12.7320508  41.3811277   6.2832516
  12.5242523  40.3446053   7.3664993  51.4779605  58.9283285  52.5464150
  52.1950616  59.3246779  53.0412921  51.7420353  58.0154691  52.4316010
   0.8325835  11.2912049   2.3929003   0.7140323  12.1659698   2.7629832
   0.5755921  10.6962671   3.0973414  78.4245810  56.2581455  24.1550684
  78.4222946  55.3734480  23.7896419  77.5137172  56.4174806  24.4023991
  51.4695045  66.8572463   5.1837233  52.4239751  66.9294681   5.1843146
  51.1609980  67.7593221   5.2692440  38.8258935  50.8897111  63.1695130
  39.5379354  50.2963850  63.4086624  39.1276015  51.3145468  62.3665687
  18.5849714  61.2841749  31.6425323  19.1382933  60.7820034  31.0442924
  19.0935159  61.3370466  32.4517393   2.7911428  63.5183166  31.5439034
   3.0466370  62.5981854  31.4782476   1.9290189  63.4984457  31.9593310
  39.1649032  22.9720569  14.4851673  40.1197577  23.0076003  14.4284630
  38.8850403  23.8820410  14.3859768  71.1651909  11.5029287  16.6327679
  70.6783056  10.7599795  16.9894207  70.9396523  12.2349048  17.2068536
  63.7913465  30.4652834  18.3807051  64.3875360  31.2114859  18.3176768
  63.8304901  30.0538468  17.5173283  77.4159417  58.2719242  14.0130281
  76.6081724  58.4294640  14.5018220  77.4428425  58.9734375  13.3623457
  44.1712141  11.5684414   0.2912767  44.3888474  12.3648798  -0.1930280
  43.3374166  11.2818205  -0.0813752  47.9315805  24.9205041   9.5085073
  47.3212099  25.2905130  10.1462948  48.4280586  25.6732798   9.1874588
   9.7732931  25.4646945   0.0068631   9.8419821  26.0030937   0.7953054
  10.5669045  24.9295497   0.0123783  35.5904841   1.2545663  64.1597509
  34.6388817   1.3323207  64.0916681  35.8863115   2.1336427  64.3962765
  66.1184916  71.7330830  55.2500534  65.7676945  71.7069029  56.1402702
  66.7772589  71.0388779  55.2316952  11.3373029   7.7071226  31.2713146
  11.2317109   6.7777663  31.0678983  11.9809258   8.0198377  30.6355548
  25.0350833  30.0807858  41.6293049  24.6927142  30.3332663  42.4867821
  24.2566180  29.9729705  41.0828638   5.2202880  24.3077731  15.7459664
   6.1226982  24.0744185  15.5281711   5.2899390  25.1622701  16.1716616
  74.5660192  28.0537295  60.1441813  74.4155305  27.3000312  60.7147264
  75.1210862  28.6380315  60.6606340  12.7840843  74.5686568  -0.0817653
  13.1629172  73.9300789   0.5223349  13.0999079  75.4148521   0.2351645
  18.4712422  23.5494781  21.3026786  18.9554608  22.7584529  21.5394092
  17.9047942  23.7179089  22.0556736  26.5494530  65.7983336  58.3549359
  26.2030601  66.2920317  57.6116285  26.7431467  64.9317465  57.9975256
  47.4982694  59.2496561  34.9331236  46.6735653  58.8475965  34.6602821
  47.4338535  60.1560973  34.6323776  17.7234510  26.8829369  30.8354616
  18.4048323  27.5551390  30.8454204  18.1580213  26.0964893  31.1654353
   0.2131695  12.0606661  25.2859354   0.2002090  12.8038573  25.8890367
   0.1666302  12.4573076  24.4160271  37.9328394  24.6426487  41.1050558
  37.6331425  25.5064273  40.8216810  37.1861863  24.2727041  41.5760994
  68.6141170  40.3556416  45.2887127  68.5058702  39.4085473  45.3754696
  69.5448936  40.4739744  45.0992772  25.4733062   9.0473878  10.5633044
  25.5592704   9.9357635  10.9091818  26.3211727   8.6391032  10.7384050
  38.7391067  10.9695756  15.9492421  39.2252040  10.6764543  15.1785159
  37.8353310  11.0526919  15.6450796   9.0854895  69.2637396  48.0418348
   8.2008296  69.5608950  48.2546854   9.1437542  68.3895397  48.4273386
  29.2992425  31.7751336  46.5436792  29.9572897  32.4294734  46.7782974
  29.4705653  31.0409808  47.1335077  41.7874241   4.7203237  43.8319874
  42.2700644   3.9257875  43.6039495  42.0803308   5.3701568  43.1931210
  23.3439302  33.2252860  29.7964454  24.2507148  32.9577756  29.6467400
  23.3385921  34.1652775  29.6158361  10.4847920  55.5445480  45.1385355
  10.8582878  55.8482599  45.9658766   9.7433293  56.1291981  44.9815321
  27.7533054  25.3975821  61.0895061  28.4653759  25.6145835  60.4877615
  28.1458759  24.7892904  61.7156887  31.4974427  31.0717225  48.2668495
  31.7852831  30.1881671  48.4964371  32.1174192  31.3589907  47.5965214
   5.9841824  43.6390114  32.8108597   6.7151427  44.1803312  33.1090307
   5.3634012  43.6524916  33.5393381  62.8772837  19.0337741  50.0702381
  62.4613613  19.4554853  49.3183041  62.1622938  18.5792863  50.5157280
   0.1239406  44.7639036  39.0562367  -0.2667013  45.6302071  38.9415789
   0.6796676  44.6478510  38.2855654  29.1396046  62.6777506  28.0956364
  28.2447243  62.9823256  28.2461452  29.0612555  61.7258263  28.0329037
  21.3468078  70.6174179  14.7679496  22.0871357  70.1318501  15.1317704
  21.1142115  71.2465768  15.4508042  21.9187927  33.1100392  35.5522680
  21.4472294  33.6402440  36.1947179  22.2668767  33.7453437  34.9266005
  58.2277597  41.8021876  60.3765720  59.0043820  42.3107234  60.6099814
  58.4710134  41.3508755  59.5682546  30.4527879  33.5336351  16.0094774
  30.4502964  32.7600336  16.5731859  29.5270634  33.7451363  15.8889365
  37.1723795  31.9920444  27.2954154  37.7411032  31.9556069  28.0644774
  36.6031289  32.7450728  27.4539518  55.5966711  12.2473574  14.9403489
  56.5365314  12.1779740  14.7727752  55.4927635  13.0936825  15.3752851
  19.5581913   4.1335589  15.1169503  19.5074630   3.8919190  16.0417581
  19.1161942   4.9810851  15.0662518  28.6305761  19.4027352  24.5452690
  29.5552564  19.2094350  24.3908858  28.3014917  18.6376905  25.0171208
  75.8711824  74.5527450   5.7533389  75.4108391  75.2993922   6.1365277
  75.2501831  74.1857300   5.1241380  25.5439734   9.3610799  25.4527378
  25.8171368   8.6355072  24.8913479  26.3545060   9.8315787  25.6474113
  69.8460293  22.4636054  13.8746428  69.2761564  21.9645929  14.4598484
  70.1837254  23.1752110  14.4185245   1.8352893  44.9824667  25.5405331
   1.7533243  45.3396416  26.4248061   0.9661812  45.0945902  25.1554203
  73.9273037  39.8463990  63.7208874  74.2691911  39.3707648  64.4779327
  74.2026247  40.7521066  63.8627511  24.4760537  15.9301317  53.4318447
  24.8412228  15.2183938  52.9061937  25.2303028  16.4770496  53.6514378
  22.6983500  36.8385959   7.6753300  22.9263258  36.5663910   6.7864186
  23.5333157  37.0891619   8.0706537  30.8723116  28.6823320  30.9325480
  31.2204051  28.5913587  30.0455379  30.4712796  27.8337932  31.1206603
  59.3431711  26.7459798  22.3563123  58.9378071  26.6651750  23.2196689
  58.9598179  26.0339785  21.8441343   4.6394233  60.2825891  51.6131210
   3.7195376  60.2780425  51.3485098   4.9394564  61.1710655  51.4212322
  41.3279486  53.7934637  38.2282257  40.5308867  53.3011055  38.0319810
  41.0484743  54.4624090  38.8532352  14.4263494  47.6785660   4.9035469
  14.3556559  48.3006620   4.1795087  14.4940388  46.8234205   4.4788370
  19.9895370  21.2523723  44.9738598  20.0146556  21.8657994  45.7082367
  20.5966282  20.5555201  45.2229929  16.8642414  16.2302160  33.8921762
  16.6830015  16.7915285  33.1383109  17.0658731  15.3754759  33.5113907
  45.9338284  59.4831800  22.4861670  45.0380325  59.3259811  22.1877193
  46.1368990  58.7303495  23.0413628  33.4036684  17.7266610  43.0659056
  33.8457680  18.2853162  43.7051916  32.9663157  17.0584893  43.5936403
  73.8094163  74.0657997   4.3060341  73.6349129  73.3514309   3.6932853
  73.4546488  74.8432541   3.8748309  11.2107575  47.7326393   5.0360364
  10.5556798  47.0705509   5.2568257  11.8914378  47.6270771   5.7006884
  29.8409939  20.5708718  20.3266978  29.5453095  19.6605027  20.3212118
  30.3716850  20.6551147  19.5345485  15.9794223   8.8920319  34.9799776
  15.1503086   8.7425077  35.4343390  15.7594454   8.8222271  34.0510154
  32.8858757  17.8550124  50.4664660  32.6590872  17.7613604  49.5412493
  32.6449037  18.7559307  50.6821346   1.6562462  20.8189034   8.6718231
   2.2145945  20.7572317   7.8967905   0.7658581  20.7230687   8.3338040
  39.0032911  14.6231353   7.4052620  39.3733907  14.7340858   6.5295064
  38.4475327  15.3924811   7.5296503  37.4757457  45.1955652  38.1791973
  37.6042366  45.3108549  39.1207004  36.7490053  44.5763826  38.1106973
  45.1364088  14.5473528  37.7662349  44.3770123  13.9652765  37.7933311
  44.7737741  15.4211175  37.9120445  20.0625423  65.6599407  29.6233296
  19.8131851  64.7359787  29.6046877  20.9802536  65.6658863  29.3513012
  62.6924896  15.8976340   9.0351266  62.5067711  16.5852976   9.6745479
  61.8298244  15.5962920   8.7501031  56.7036104  14.6269977  42.5675154
  56.6731215  15.5717027  42.7186298  55.7855606  14.3667507  42.4920988
  20.7833409   8.2145178  40.7897758  21.5262771   7.9357517  40.2544594
  20.3529692   8.8918632  40.2680302  24.4117260  30.0158715  51.3366985
  24.3158245  30.6217265  52.0715284  23.5412359  29.9806166  50.9401655
  22.7772379   3.2767540  36.5917325  23.5401988   3.7283230  36.9525766
  22.2610903   3.9699382  36.1802459  20.1892376  18.7384653  52.3567867
  20.7608128  19.4657898  52.6028252  20.6554914  17.9566884  52.6528645
  11.9258845  48.9720106  45.5336666  11.9011843  49.2757607  46.4410591
  11.0132229  48.7761450  45.3217316  58.9648962   3.3763701  63.4191656
  59.6947861   3.1343621  63.9891911  58.4035969   3.9239037  63.9681482
  26.8818974  32.2288013  41.7548561  26.2639260  31.5019774  41.6769552
  27.0149732  32.3300719  42.6973343  24.8952270  20.9169149  19.3408215
  25.5868053  21.4836168  18.9990628  25.2949500  20.4770446  20.0911331
  51.1500311  18.4075642   2.5845933  50.7441664  17.5804794   2.8442818
  51.8919468  18.5079503   3.1810132  24.7955704  28.1018043  39.1835284
  25.3119588  28.3741450  39.9420834  24.4944072  27.2200894  39.4028687
   4.7827980  62.7051926  17.8285182   5.5482519  63.2617617  17.9718304
   4.0560526  63.3194590  17.7248538  58.4890699   6.2608838  23.7827229
  58.7697697   7.0610952  24.2266846  58.0073452   6.5691972  23.0151844
  47.5420904  24.5412588   0.3995200  48.2146883  24.4743943  -0.2782520
  48.0313635  24.6903086   1.2086102  35.0541735  15.6065714  31.7480636
  35.8001471  16.0042191  32.1970987  34.5977926  16.3438988  31.3427281
  73.3663368  25.8615398   6.5397787  74.1953706  25.4847527   6.2448782
  72.9613363  25.1696134   7.0626980  28.4563497  63.7975918  41.7369413
  28.8052658  64.3212449  41.0156393  27.9496960  64.4184624  42.2604465
  77.5347107  27.7685308  33.6782598  78.3899140  27.7558064  34.1080260
  76.9447139  27.3521018  34.3065286   3.2018927  65.3330838   9.7924393
   3.5167602  66.0500329   9.2419171   3.2786492  64.5552813   9.2398423
  50.4464960  11.8464625  33.6382771  50.7362604  11.5727746  32.7680111
  51.0777712  12.5162077  33.9012766  18.2507193  56.5694666  33.3423972
  17.7351367  57.3711729  33.2548070  18.8088489  56.7256641  34.1041875
  25.3965000  71.8341707  46.1721897  26.2715916  72.0045476  46.5206337
  24.9718813  71.2987371  46.8424416   4.3647826  28.6198378  23.0835772
   3.8028663  28.2331324  22.4120569   5.0891978  28.0009222  23.1752181
  25.8090997  53.1966877  29.2653513  25.4329896  52.3258781  29.1370702
  25.0528455  53.7829447  29.2901373  65.8937961  31.4889812  15.4888403
  66.6158074  31.8542337  14.9774480  65.8562702  32.0349908  16.2741423
  64.1729307  27.7327156  13.2491755  63.5983181  27.0777965  12.8527761
  63.5771036  28.3401942  13.6875737  41.0109854  17.8616500  48.1396389
  40.2335691  17.8396714  48.6976480  41.2645102  18.7844193  48.1183434
  45.4527235  21.1727309  23.8188982  45.8997440  21.4774680  24.6085453
  45.9915781  20.4471946  23.5035157  15.7113445  38.9553833  17.7975523
  15.9991074  38.8499308  18.7043619  15.4565239  39.8757529  17.7326238
  34.9152040  23.5859680  32.0319796  35.6760597  23.0940652  32.3407793
  34.7932220  24.2740202  32.6861477  16.1592770  29.5352054  30.7689190
  15.6692719  28.8272858  31.1872220  16.7502153  29.8533154  31.4514351
   0.6313317  18.1796932  32.1011162   0.2750694  19.0193594  32.3914075
   0.8682399  17.7272809  32.9107022  32.8467655  21.3254833  39.3421531
  33.5899329  20.7247639  39.2867446  32.4812078  21.1744833  40.2138186
  20.3813338  34.6840954   5.2915937  20.2775002  33.7548232   5.4962897
  20.8137012  35.0522304   6.0621578  15.9480000   9.1455883  18.2887566
  15.4316401   9.6454096  17.6564729  16.5826702   9.7752309  18.6307728
  19.6705747  69.9569559  41.3149214  20.0221896  69.2437649  40.7820463
  20.3724790  70.6073666  41.3378000  14.6506838  46.8597244  18.4983826
  14.8111776  45.9657501  18.1962502  15.4274706  47.0822047  19.0115380
  15.5421448  20.4022908  21.2870526  14.9708533  19.6386409  21.3688850
  15.2815795  20.9747577  22.0085907  42.9569960  53.0858421   8.3828306
  43.6448193  52.5838566   7.9456270  43.3553267  53.3726072   9.2046160
  78.0235764  12.7835823   1.8582606  78.1952377  11.8482471   1.9674103
  77.3291775  12.8245140   1.2007134  37.2083855  65.0878382  47.1503258
  37.3585272  65.7893133  46.5165901  37.8777695  64.4344044  46.9473886
  79.2410135  45.6865358  -0.0498293  78.7241077  46.4685726   0.1437076
  78.8032055  44.9847746   0.4319271  63.5856152  44.5947504  43.9186668
  63.4991503  43.8836145  44.5535231  64.0259075  44.1943264  43.1689787
  63.8801193  71.0207939  26.8516469  63.2974720  71.2793541  27.5657225
  64.5108938  70.4278135  27.2599769  69.0995741  65.4012394  16.1640573
  69.3257332  64.8702145  16.9276679  69.3312693  66.2949514  16.4167011
  13.8822559   7.5795494  48.3685741  14.6570019   7.0607553  48.1521055
  14.2188982   8.4638487  48.5131857  60.0029945  45.9858370  19.7549558
  60.4419470  46.2066078  20.5764270  59.1436481  45.6600809  20.0226092
  35.4094172  43.1079149  38.5375690  34.5234060  43.4623146  38.6125207
  35.2943516  42.2669125  38.0951738  74.5317635  31.9105802  55.3902873
  73.7556038  32.1639810  55.8898827  74.5934138  30.9626470  55.5079749
  60.6557131  30.9174395   4.8213625  60.7444286  31.4968276   4.0646139
  60.0479889  31.3743234   5.4028761  58.8692188  52.8699541  57.0821953
  59.6730566  53.2812691  56.7645407  58.3366346  52.7465963  56.2964678
  38.2464767  50.8117485  20.4774189  37.7335787  50.0395012  20.7157469
  37.8006744  51.5388250  20.9119892  29.7322917  45.2559900  25.2438664
  29.3594170  44.5281696  24.7463989  30.0679016  45.8549356  24.5768857
  64.4612885  52.1698427  20.8088350  65.2520370  51.7497587  21.1471796
  64.7823954  52.8025675  20.1663518  64.1037321  45.8025408  63.2138634
  63.9955807  46.4358091  63.9234447  64.5241928  46.2990236  62.5117636
  48.8017035  42.7300072   9.3345922  48.2307339  42.3424721   8.6712313
  49.6623802  42.3481035   9.1625053  41.7366791  46.8226242  19.3418598
  42.4173975  46.1804247  19.5429444  41.1696434  46.3806820  18.7098861
  55.8116566  15.5086556   4.9659375  55.1043164  16.1218777   5.1655987
  55.3666340  14.6815052   4.7815350  76.9569346   6.8437267  44.2985773
  77.1423670   7.0318771  45.2186060  77.7723118   7.0519520  43.8424683
  48.0927420  52.8461933  36.6440797  48.1385040  52.5628233  37.5572252
  48.8187933  52.3926258  36.2158728  60.7735348  55.4446459  13.4417307
  61.1024904  55.4575586  12.5429249  60.0747061  54.7906017  13.4316397
  49.8305889   6.7543865   1.7205255  49.3193742   5.9471489   1.6633907
  50.5415484   6.6326881   1.0912742  73.6083075   0.8606697  18.6390817
  74.0036579   1.5287186  18.0790448  73.1721779   1.3564993  19.3320286
  40.3924561  58.6672354  42.4944067  40.1968813  57.7931261  42.1568918
  41.3475561  58.7254572  42.4694490  67.5302788   4.0270926  11.8474197
  68.3292242   3.5589291  11.6050661  67.4678417   4.7395683  11.2112510
  35.3130579  36.7469835  41.1523199  34.6126461  36.1433434  41.3998604
  35.8411503  36.2559080  40.5228806  21.4008764  42.4470650  63.0429695
  21.2697462  42.6394783  63.9714154  21.3369278  43.2986103  62.6105267
   0.7905951   4.2504908  40.7488298   1.0352602   3.6501862  40.0445557
   0.4442873   5.0204540  40.2977562  12.2814587  20.1482712  59.6720907
  11.9224147  20.8048092  60.2689835  11.9932369  19.3109880  60.0355717
  76.3582624  55.1585016  48.3188721  76.5154279  54.2144201  48.3033368
  75.4154981  55.2467022  48.1787237  58.7988615  56.9466543   1.0382769
  57.9764652  57.2311544   1.4369772  59.0216494  57.6459551   0.4238075
  34.2762661  66.9477034  26.9861317  33.4830284  66.4475155  27.1780086
  34.9910045  66.3912868  27.2956181  11.0449481  59.4248056  29.1700459
  10.6412435  59.8048544  29.9503136  11.3583302  58.5668373  29.4562602
  30.7965159  43.6696339  31.1419344  31.0744977  43.0815172  31.8441272
  30.3619289  44.3931580  31.5934634  20.5157566  44.3269444  31.8145537
  20.0930548  43.6745405  32.3730564  20.8983183  43.8183880  31.0995412
  25.9983087  54.2160082  38.9837193  26.7848420  54.0695286  39.5092106
  25.6743932  53.3369732  38.7872267  64.1864681  49.8972750  34.4192815
  64.7563267  50.4285383  33.8631749  64.7412014  49.6424675  35.1565599
  63.3353127  69.7317371  58.0119148  62.9092516  69.6726951  57.1568027
  63.6137046  68.8361034  58.2031515  76.4560747  32.3541236  60.6369543
  75.8961678  31.9267344  59.9888277  76.4297247  31.7726803  61.3968658
  75.3432703  58.9104319  39.4811368  76.0121107  59.5848703  39.5995474
  74.5449114  59.3978930  39.2780566  28.3792901  65.4154062  18.3098280
  29.1083503  65.8304167  18.7707722  28.7850380  64.7100735  17.8057361
  28.2037973  70.5516529  39.9100804  29.0942645  70.8254480  39.6902299
  28.2823467  70.1557922  40.7780409  73.3121794  56.0036564  23.8722992
  73.1328469  56.0435152  24.8117065  72.8841936  55.1986551  23.5807037
  76.9877720  70.1251698  10.7498085  77.2838449  69.3493176  10.2737546
  76.0346508  70.0408888  10.7759833  40.0251521  67.9564461  61.4696270
  40.8303846  68.3989367  61.2012356  39.4879175  67.9356251  60.6776818
  53.4581089  52.3770571  42.2776604  53.9026594  53.2243490  42.2509956
  53.6880207  52.0127487  43.1324387  36.4955568  42.0561123   4.8101443
  36.0691476  42.1432400   5.6626797  35.8250332  41.6722679   4.2450842
  29.6466565  63.6593246  16.3009834  29.3427372  64.3943644  15.7684600
  30.4570723  63.9731693  16.7021811   3.2918209  46.5037251  34.9534297
   3.4961647  45.5939436  34.7371411   4.1200215  46.8672562  35.2667332
   9.9548474   7.4479176  46.0061216  10.3931465   8.2373501  46.3238192
  10.4404869   6.7267490  46.4064884  38.0576181  47.3472452  23.2476735
  37.1527147  47.2634172  22.9470849  38.3455729  46.4463139  23.3947611
  25.6566167  57.8414059  10.0261915  26.1589074  58.6036396  10.3141820
  26.3030982  57.2725201   9.6082669   3.5282239  44.0668964  34.0172577
   2.9389173  43.3177805  34.1054201   3.5232159  44.2667103  33.0811596
  65.9582520  44.3195629   1.5395796  65.0605536  44.0322161   1.7063184
  66.0694933  44.2211676   0.5939712  58.1614733  36.8830919  32.7010608
  57.2557449  37.1718240  32.5891614  58.6680317  37.4543667  32.1237612
  71.0149908  61.1411619  23.7978411  70.0691366  61.2641478  23.7174082
  71.3882208  61.9883871  23.5546350  50.6532621  32.7047467   1.7083552
  50.9357595  32.3757982   0.8549957  50.5167627  31.9174051   2.2353236
  12.2987115  42.5675249  34.5397067  11.4022243  42.2354937  34.5876551
  12.8050995  41.9702482  35.0902200  64.6552942  27.2196661  62.4049309
  64.3457887  26.4932953  62.9460659  65.2855871  27.6797138  62.9592916
  42.6947832  46.5246153  12.5188565  42.7289534  47.0778561  11.7384768
  42.4147892  47.1146297  13.2186568  71.9861278  22.5950704  44.3041035
  71.7866132  23.3800827  44.8141834  72.5012419  22.0484100  44.8974439
  56.2613344  43.1036139  34.0004635  56.3094950  42.8404427  33.0814123
  55.9398937  42.3254824  34.4558907  77.3227787  55.9700537  12.1642625
  76.8143129  56.3880014  12.8592515  77.8599644  55.3205824  12.6179743
  63.9386221   3.1616999  10.8168828  64.5480033   3.7838913  10.4196823
  63.3675262   3.7014795  11.3634348  27.9991126  46.2504101  18.6468673
  27.9928708  46.4782476  19.5765352  27.7129102  45.3373337  18.6221123
  11.0626364  42.5682831  23.9894319  11.7246449  41.9803476  23.6256933
  10.2591217  42.0481634  23.9980221  70.6167793  66.9744587  64.7986603
  71.0520458  67.6396179  65.3318930  71.3188934  66.5925980  64.2719269
  59.0454646   5.6638504   3.2766291  59.7052618   5.0044514   3.4913099
  58.6324021   5.8711315   4.1148701  55.8950233  61.9689178  34.7307634
  55.8290577  62.7135992  34.1329908  56.6881561  62.1391869  35.2388787
  70.7321024  66.4381409  23.3275247  70.6403399  66.9407988  24.1369367
  69.8351622  66.3245106  23.0131650  13.7039223  16.5271927  50.8635950
  12.8550282  16.9551064  50.9753990  13.8745632  16.5757061  49.9229765
  64.0705967  46.5926647  32.3283529  63.4629631  46.0246420  32.8020144
  64.6209288  46.9767237  33.0108976  73.5478016  32.5635124  32.2844005
  73.5760304  32.2321487  33.1819749  72.7095553  32.2541023  31.9411206
  67.0031678  14.0103140  18.6234740  67.5071465  14.6851864  18.1687334
  66.6111790  14.4654932  19.3687132  38.4309793  63.5938978  26.4877605
  37.9164076  62.9436255  26.0096478  38.4904432  63.2453871  27.3772764
  59.0150166  63.6596441  44.8094416  59.8793793  64.0703058  44.8310328
  58.6241293  63.9671087  43.9915752  60.0785160  71.8212128  27.0593929
  59.3339491  71.4540720  26.5828848  60.3262663  72.5966835  26.5559077
  23.9644293  10.2290998  38.8270399  24.8743919  10.3271757  39.1073629
  24.0233902   9.9829803  37.9039046  17.3403019  71.5617180   2.9529330
  16.4993805  71.7750597   3.3573607  17.9018253  71.3103247   3.6862341
  69.8757362  57.1543217  42.7355576  69.5509005  57.1176386  41.8359089
  70.3280973  57.9959488  42.7927351  39.3934107  67.5140715  55.3815603
  38.4749556  67.4466324  55.6425667  39.6477723  68.4033346  55.6280184
  11.8698830  70.8583355  36.6278052  12.7775806  71.1004782  36.4442611
  11.7711491  69.9884033  36.2408996  48.2671785  48.2781649  42.3761988
  47.7774811  48.2023001  43.1951475  48.1650352  47.4241781  41.9560671
  70.3787617   5.7516514  39.9967858  71.0717586   6.1122833  39.4436785
  70.2177910   4.8781238  39.6400472  76.2669754  47.1975517  35.4252172
  76.6063356  47.6833057  36.1769509  76.2123919  47.8476667  34.7247863
  21.5077347  38.4046268  32.9898119  21.3547844  38.9672375  33.7489605
  20.9392685  38.7626243  32.3079634  75.9529018  39.4732904  14.9417841
  75.1348114  39.1222835  15.2935696  75.9931660  39.1357923  14.0469635
  50.9821463  55.5737638  41.4283609  51.1990976  54.7229433  41.8094921
  51.1091852  55.4540300  40.4872179  68.8964888   1.0004784  48.8872385
  68.9066740   1.1887432  47.9487944  69.3324419   1.7529322  49.2872238
  37.7387753   9.0606094  41.4276981  37.4960461   9.8974777  41.0315180
  37.0359459   8.4625221  41.1736202  51.3078403  30.5276370  54.4404459
  52.0182705  30.3090811  53.8373280  50.9187222  31.3218856  54.0744019
  74.2886066  65.1681089  42.2546148  74.6462011  64.7347879  41.4796352
  73.8344383  64.4723558  42.7298975  65.0066757  53.2139301  36.7632580
  64.9808216  52.2811842  36.9766641  65.7126760  53.5644102  37.3063612
  60.7936144  47.6110029   3.1744501  61.6281796  47.2588634   2.8650424
  61.0301161  48.4127045   3.6408955  18.3205404   0.3848911   3.7519237
  17.9421511  -0.4624819   3.5173851  18.2696762   0.9008671   2.9473025
  33.3774495  42.2004223   8.7473500  33.2004952  43.0266809   9.1970313
  33.1007147  41.5260506   9.3677318  78.2945439   5.7804276  34.8932886
  78.6172529   5.7482410  33.9927030  78.1935784   4.8623062  35.1444912
  63.6588383  43.9447641   3.1051612  62.8748751  43.4934664   3.4181404
  64.1828537  44.0889311   3.8931060  28.4963642   8.5001412   0.7363489
  27.8356348   8.3652106   0.0570420  28.1803643   7.9904881   1.4824274
  33.7023392   7.7036549  17.0673227  32.7979221   7.5662495  17.3490942
  33.8353481   8.6486603  17.1414244  15.3046564  28.5320936  37.7562639
  15.2184490  28.0084120  38.5528514  14.5415310  29.1098343  37.7656814
  60.6684637  65.9815168  25.3604627  60.3069973  65.8906794  24.4788051
  59.9008703  66.0532331  25.9278131   8.0544462   2.3747469  45.8846569
   7.9775849   1.4279200  45.7669926   8.0003491   2.7314592  44.9980593
  18.1030802  29.4976555  51.0166535  18.8962559  29.0344463  50.7473239
  17.4862865  29.3537317  50.2989575   0.7594958  69.9938536  46.6327810
   1.1693930  70.4730892  45.9126806   1.3986549  70.0374365  47.3439837
  65.2396011  43.0404711  46.8862104  65.2424526  43.7846947  47.4881649
  65.9658480  42.4910879  47.1811342   3.6259642   0.5572582  35.1049113
   3.9271441   0.7486034  35.9931183   4.4302788   0.4443003  34.5983982
  24.5476479  57.2080326   4.3070647  23.7086147  56.7484331   4.2752829
  24.8600525  57.1991014   3.4023237  76.4007092  42.2554588  16.4372170
  76.6393900  41.3397169  16.5810275  76.8665218  42.7348232  17.1223855
  43.9813375  58.0257177  47.0786381  44.5684814  57.5695992  47.6815081
  43.1127310  57.9248190  47.4679661  63.0985785  63.4155703   4.1089728
  62.5093699  63.9666748   3.5938546  63.9389944  63.4732342   3.6544314
  14.8733286  40.4530273  61.3445133  14.2732004  40.0045381  61.9402784
  15.7336716  40.0881658  61.5516710  67.6716709  46.3422775  51.1563492
  66.7414331  46.1212730  51.1110973  68.0754375  45.5911350  51.5910769
  52.8543806  61.4713764  25.5066824  53.5560465  60.8816576  25.7826018
  52.2293043  61.4555073  26.2314296  30.9243727  50.1710367   5.8862847
  31.7323112  50.6446362   6.0841972  30.2742314  50.5484533   6.4788258
  67.1173429  23.1224322  39.0685987  66.2337542  23.2714152  38.7319970
  67.1472883  22.1842003  39.2558336  63.9604568  62.7282190  28.7333965
  64.0034580  62.3235226  29.5997715  64.8549604  62.6707649  28.3975410
  45.8901539   1.2168194  32.3775768  45.5346337   1.9738079  32.8431940
  46.5654411   0.8718182  32.9617023  40.3194141  62.8277063  30.4598546
  39.8371148  63.6543846  30.4747248  41.2402821  63.0880213  30.4380774
  36.4586618  24.0292812  23.7574840  35.9808340  23.8632751  24.5701075
  37.3810407  23.9577652  24.0031147  61.6617823  73.6713219  20.4319763
  61.1318207  73.5242605  19.6485603  61.3676882  73.0015135  21.0493064
  56.8223953  16.9919252  29.1682458  56.7117262  17.9040623  29.4365573
  56.8278456  17.0226610  28.2115555  48.8131523  66.3417101  21.0564756
  49.6947050  65.9946489  21.1930156  48.5221100  66.6063261  21.9291162
  62.9372072  69.2709637  45.8089209  63.7377834  68.9582968  45.3875542
  63.0610609  70.2169561  45.8863688  11.3296309   3.8736034   2.5538066
  10.8208981   3.1259800   2.8676179  10.7117119   4.6045757   2.5629634
  73.9742756  55.1665831  46.7098236  73.2627249  54.6076775  47.0221472
  74.3534422  54.6836853  45.9754705  63.8063622  57.2197723  38.9257503
  63.7224436  56.3160133  39.2297506  64.5265484  57.1946478  38.2957196
  64.7927781   3.4824110  22.3089242  65.4870912   2.8918530  22.0166922
  64.0054103   2.9382587  22.3223948  60.6747675  57.2091198  19.4353878
  60.5351686  56.5435314  18.7617898  60.9197140  56.7122126  20.2159762
  79.0474415  57.7479410  30.9551001  79.6925306  57.1960020  31.3972068
  79.5546389  58.2372999  30.3074002  68.9865160  28.3069968   9.8506880
  68.3486080  28.8142848  10.3526485  68.9259148  28.6579895   8.9622265
  55.8118534  64.1279268  32.4779868  55.6218719  65.0553513  32.3364735
  56.6765022  64.1204977  32.8885460  76.4149996   8.5224606  24.5852590
  75.7317015   8.8810230  25.1516294  76.6802260   7.7094151  25.0151801
  30.4572344  58.1997824  25.6817484  30.6984925  57.3241758  25.3795266
  30.1930308  58.6631489  24.8869395  71.6908503  51.5565109  20.3823757
  70.9445763  50.9740162  20.5238366  72.4539804  50.9794283  20.4113483
  20.2624607  34.7338033  36.8402004  19.5128477  34.6145678  36.2570238
  19.9755526  34.3679714  37.6769114  52.8543234  56.8814230  29.7641206
  52.2399855  56.6837406  29.0571952  53.4230042  56.1127853  29.8091698
  76.3449386  44.1581760  62.5160932  75.7697014  44.8776756  62.7761835
  76.3072018  44.1551052  61.5596425  19.6332493   3.1400896  45.6881046
  20.0636139   2.2851730  45.6996822  20.3503218   3.7680412  45.6002903
  24.3306613  51.0576582  17.0649219  24.1528654  51.3035107  17.9727638
  24.5843172  50.1358652  17.1116972  16.4550156  62.8834724  31.2408566
  15.5734104  62.5213385  31.1521745  16.9993156  62.1330786  31.4793468
  60.0987244  33.6877704  50.8741903  59.9079275  34.6228838  50.8007669
  59.7118568  33.4293532  51.7107248  59.8460340  55.2306604  17.4738860
  60.3786135  54.5465231  17.8795242  59.0130043  54.8015118  17.2786343
  33.8018012  58.9734793   8.1527352  33.5447669  58.2134008   7.6307744
  34.6841216  59.1857815   7.8483158  70.6554604  64.0220928  34.6109486
  70.7635880  64.8792744  35.0229955  71.5254593  63.8063097  34.2751408
  78.2783508  43.8861275  36.1848807  78.9050817  44.5391321  35.8733916
  77.8148127  44.3212605  36.9004416  58.7197065  70.4503965  21.7102432
  59.3411064  70.1791143  21.0345960  57.8979969  70.5874205  21.2388134
  64.2516661  28.6650705   1.8397482  64.6267986  27.8328323   2.1276519
  64.8444080  29.3293524   2.1913403   2.0084137  34.1885877  17.5497293
   2.6326317  33.6019826  17.1225548   2.2988838  34.2248583  18.4610701
   1.5357390   8.5253502  51.5603924   1.1138001   7.7841736  51.1258078
   1.8158856   9.0951706  50.8441162  18.9835781  17.7940488  38.1236386
  18.8856262  18.0163693  39.0494967  18.1178707  17.9511750  37.7466989
  60.4746723  60.5032921  47.2304821  60.7918978  61.2132978  47.7885962
  60.2572441  59.7982168  47.8402567   5.7424110  26.6215229  32.1359372
   5.3999275  27.3968577  32.5806737   6.2058395  26.9679356  31.3733935
  76.0684395  43.2076979  41.1220407  75.8250999  42.7725649  41.9391584
  76.7171097  42.6264095  40.7250977  21.9435393  32.5705519   7.4624995
  21.1193739  32.1331730   7.6762226  22.0236002  33.2639351   8.1175116
  59.7974225   3.8809610   8.9301085  60.5311485   4.0810562   9.5113480
  59.1459485   3.4710957   9.4991618  54.8351145  62.6837254  44.2972898
  54.8337030  61.9169712  44.8702812  55.1557493  62.3546171  43.4575748
  12.6404327  61.1206913  18.7576842  11.9357246  60.4753065  18.8133013
  13.0300755  60.9761572  17.8954065  66.1636162  58.4061623  60.8812094
  66.7383099  59.1474390  60.6902552  65.7853794  58.1718063  60.0337172
  71.7202663  64.3530893  21.9850731  71.2152386  65.0069046  22.4685049
  72.2750378  64.8656940  21.3971138  19.4371977  23.7597729  50.1191998
  19.7306957  22.8586651  50.2536964  18.5462418  23.7761665  50.4687214
  66.5415955  55.7779121  22.9621601  65.7679319  56.3383150  23.0223918
  66.9243431  55.8029556  23.8391495  57.6944729  17.3326946  34.5652294
  56.8261238  17.1996952  34.9453735  57.5903293  17.0996166  33.6426997
  55.1218271  60.4345846  45.8248138  55.1945782  60.1990747  46.7497349
  55.5500412  59.7155714  45.3601837  76.1508226  71.9324493   3.6898920
  76.9191694  72.2018385   3.1865975  75.4083872  72.1366644   3.1212839
  21.2869349  50.7689072  35.5984616  20.4881754  51.0700012  35.1653814
  20.9790745  50.1729561  36.2813210  51.3022713  16.8647610  64.7527697
  52.2228817  17.0643793  64.9226575  51.2797979  15.9142624  64.6419264
  11.0222578  51.1755753   0.5267950  10.4120862  51.7861652   0.9404413
  11.8859422  51.5577364   0.6824636  75.7873579  13.4364391  56.5312672
  76.5457293  12.9821182  56.1642456  75.4283806  12.8235031  57.1728897
  10.9474840   3.3215309  38.7131143  10.8425799   2.8413750  39.5345020
  11.2991753   4.1720511  38.9761019  64.1449070  74.6753883   1.6052566
  64.7443533  75.4164219   1.6934025  63.4835243  74.9752045   0.9816247
   3.0252308  14.1535318   8.2607102   3.3190769  14.4027054   7.3844671
   3.4907574  14.7491777   8.8478416  75.6607103  73.0123854  31.7522430
  75.6180191  73.5672331  32.5310564  74.7769499  73.0452394  31.3860226
  60.0551578   1.3832069  31.1569357  59.3139549   1.9845940  31.2289143
  59.6802231   0.5193544  31.3284588   8.8479574  66.6600213  50.0311789
   9.7531421  66.4452038  50.2563962   8.4945829  67.0673618  50.8220216
  41.5116831  12.2968842  15.6190979  40.6590959  12.3001553  16.0542023
  41.3112780  12.1154858  14.7008586  41.4574385  55.2335119   8.6296880
  40.6272697  54.8423719   8.9018208  42.0262337  54.4855499   8.4473306
  70.4906940  40.2532244  13.5042655  70.1597786  41.1175108  13.2598698
  69.9696302  40.0043249  14.2676628   0.3109020  52.4008131  19.4141746
   0.4109997  52.7634430  20.2943516  -0.5453783  52.7135515  19.1222453
  35.5829182  23.6443592  41.7481184  34.8103848  23.6707378  42.3126745
  35.2682533  23.9495064  40.8971786  51.1870193  61.1339045  55.4611635
  50.6290960  60.9111881  54.7159433  50.8279896  61.9574451  55.7914734
  56.5647034  11.1920009  62.7741447  56.6703323  10.2470432  62.8843134
  56.7882160  11.5593038  63.6293442   2.4815411  56.8860626   4.9402502
   2.9161495  56.6174173   4.1308194   2.3255772  56.0675669   5.4113948
  19.9360314   7.3540760  49.3376923  20.1693955   6.5899158  49.8647881
  20.6479016   7.9758335  49.4889784  60.9871721  63.7811422  16.3141966
  61.6984320  64.2927170  15.9286618  61.3521814  62.9021311  16.4158678
  52.1710348  61.2187576  64.1127968  52.3405600  61.2023640  65.0547218
  52.8323364  61.8145561  63.7607527  79.9607750  -0.0874733  63.9338398
  80.1584574   0.5667282  64.6040440  79.0384384  -0.3021168  64.0733337
  63.6065960  68.1266451  51.0689211  63.8971090  67.4128723  50.5011559
  63.3618355  68.8282156  50.4654884  61.4794731  71.4598608   1.5507154
  61.8497896  70.5773067   1.5647554  60.7262802  71.4129639   2.1395554
  45.0673332   9.5925118  44.9089527  45.8136597   9.4396664  44.3294144
  45.4319801  10.0851036  45.6442165  52.3493481  56.5178680  59.0894747
  53.0419636  56.6002798  59.7450113  51.5841532  56.9233751  59.4972372
  19.5547241  57.8471470  17.3810792  19.5148605  58.2217360  16.5011215
  19.5008797  56.9016981  17.2415888  42.9859638  55.1251030  42.8654051
  43.7574863  55.0580025  42.3028326  43.1869745  55.8456039  43.4626532
  44.6831703  51.6345453   6.3720077  44.3085766  52.1717548   5.6739283
  44.9256516  50.8155107   5.9400153  78.0723234   3.0260302   0.8152902
  77.6181694   2.9182936  -0.0203956  77.9919287   3.9591242   1.0130306
  66.1291265  50.5612326  32.2270465  67.0680380  50.4004955  32.1330047
  65.8528852  50.8772469  31.3667774  25.2811852  36.1158253  32.2311378
  25.3541031  36.3170410  33.1641030  25.6559076  35.2392269  32.1451759
  13.7294525  57.4105358  28.5191870  14.3759865  57.5093985  27.8202939
  12.8962940  57.3005962  28.0609274  12.9519409  68.9756155  11.3144767
  13.3620113  69.4182539  12.0575428  13.1396812  68.0476093  11.4551401
  56.5597296  53.7627459  50.6060600  56.0812759  54.5782804  50.7551098
  57.0813942  53.6426497  51.3995790  30.7271900   0.9352280  44.5766735
  30.1532116   0.3429199  45.0624228  30.1317539   1.4625717  44.0441370
  14.4050394  34.9056902   6.0059241  13.6803042  35.1068106   5.4138592
  14.4926726  35.6873646   6.5514019  61.6717359   0.5934645  37.3990726
  62.4171969   0.9353186  36.9054580  62.0662709   0.0741411  38.0996990
  73.5491129   4.1689993  43.6065197  72.8901478   4.5577360  43.0312920
  74.2215248   3.8380028  43.0110931  35.5474496  61.4780235  38.8124514
  35.8779550  61.6550922  37.9317451  36.0129356  62.0993471  39.3723726
  14.7742357   1.7156197  33.1468654  14.4946613   2.3231483  33.8316870
  15.6973877   1.9243265  33.0038095  28.4343281  63.3456649   4.0807989
  28.0808106  63.7734880   4.8606852  28.2488098  62.4159350   4.2127589
  66.0310411  48.4004259  63.9700222  65.2596140  48.2290554  64.5101738
  66.6158628  48.9004087  64.5394373  56.8486881  50.4460430  22.8131914
  57.4289036  51.1716127  23.0436802  57.4281406  49.6867943  22.7499294
   1.2020674  11.5414406  20.3116083   1.9467344  12.1176411  20.4839373
   1.4199200  10.7266403  20.7642317  32.9574752  66.2017965  46.0474348
  32.4005008  65.7681322  46.6939259  32.9302931  67.1272945  46.2902164
  34.8408862  18.9924789  47.7149391  35.4562243  18.2624413  47.7830267
  33.9850738  18.6015965  47.8910828  64.8419714  49.6356201  48.1972075
  64.8936701  49.0570402  48.9579964  65.7295084  49.6398258  47.8387499
  45.6957054  62.0864534  42.4102306  46.2054539  61.2785482  42.4708462
  45.6407452  62.4031925  43.3118343  79.8559332  56.4799929  26.5592647
  79.5346880  55.8827591  27.2347999  79.3377447  56.2652636  25.7836294
  34.5166421  50.9293318  36.9378901  35.2666569  51.5217161  36.8850970
  34.8387837  50.1789618  37.4372864   3.3034462  40.7249832  20.7881021
   4.1307587  41.1645889  20.9843969   3.3266586  40.5822992  19.8418796
  39.8621420  18.5537420  53.2253024  39.6998171  17.6287828  53.4106001
  40.7060102  18.5630213  52.7736077  61.9819995   1.2652803   9.2212975
  61.5517756   0.5184723   9.6377367  62.7819892   1.3953711   9.7305357
   1.8757048   0.7943035  53.9237690   1.7351093   1.6596390  53.5395002
   1.0296192   0.5617405  54.3062353  45.6916475  59.0140104  61.9581461
  45.2446699  59.7149754  62.4325895  46.4290571  59.4477558  61.5288115
  39.1715088  27.9952026  27.1577430  38.9445820  27.7441574  26.2623572
  39.5224896  27.1952797  27.5491166  49.9322363   1.4783503  16.5419698
  49.5553871   1.2348486  15.6964386  49.3672057   1.0534788  17.1873033
  76.3022133  17.6500202  37.4852777  77.1307942  17.1882988  37.3568082
  76.1032196  17.5310493  38.4139752  35.5358624  58.7573290  27.2763324
  35.8082819  57.9126453  26.9178343  35.7333159  58.6957693  28.2109213
   5.3744804  29.3926993   7.5277594   6.0075055  29.5097008   8.2361582
   5.9110223  29.2408886   6.7497471  59.4454241  74.7221565  35.7921600
  59.6930075  74.7818661  34.8694634  60.0823259  75.2731085  36.2471795
  32.0392776  71.9431639  17.5856268  32.3278666  71.4329863  18.3423734
  32.6205349  71.6690826  16.8762255  60.2063990  70.6595278  34.3009090
  60.7469463  70.9945011  33.5854816  59.4888973  71.2888861  34.3739223
  38.4673023  67.7167559  15.9475827  37.5291848  67.6454353  16.1238861
  38.5593700  68.5416412  15.4707992  35.4599323  10.9562374  28.8435411
  35.4618015  10.0310684  28.5980201  34.5668831  11.1221005  29.1455197
  73.5577631  74.8994493  52.0031261  72.9191732  74.2312193  51.7543316
  74.1656971  74.4445610  52.5859880  62.5262117  69.6321201  53.9393234
  63.4184933  69.2869806  53.9701176  62.0909214  69.1108513  53.2647610
  11.6520733  36.7170000  21.6907263  12.5233597  37.0456409  21.4691925
  11.1378235  37.5040317  21.8706107  31.5751410  62.3908234  33.3207607
  31.4556050  62.9202843  34.1091871  31.9803905  62.9870272  32.6910424
  22.4768949  52.7384329  21.7872572  23.2851720  52.6047039  22.2822642
  21.9641995  53.3424282  22.3244429  70.1266098  35.2333641  57.9854155
  70.2337408  34.3595552  58.3611965  70.6587315  35.8008265  58.5431480
  41.3112164  56.0461807  15.4279113  42.1941948  56.0205126  15.7965791
  41.4081526  55.6809711  14.5484471  38.5364223  49.5045757  39.7098303
  39.4865227  49.4899988  39.5943809  38.4108496  49.7094631  40.6363726
  77.3186255  49.2449760  37.6294899  77.6549387  49.6526241  36.8313980
  76.9503736  49.9712992  38.1325603  56.1154222  30.8407974  50.9586143
  56.9093704  30.6019545  50.4802561  56.4195013  31.4316845  51.6475439
  22.9793015   2.5944305   8.9014626  22.7499619   2.4387766   7.9852712
  22.3024645   2.1356178   9.3990701  47.6299095  58.2992697   9.4392151
  46.7309237  58.6196709   9.3657190  48.1135893  58.7881088   8.7733924
  20.3306713   0.3033091  13.4835494  20.2490940  -0.2683472  12.7201426
  21.2318602   0.6239105  13.4474838  38.5866737  64.9015188  15.1687658
  39.2351675  64.6390247  15.8220530  38.4479070  65.8346891  15.3305387
  64.7656488  72.4246597  24.4843054  64.6979523  73.3767271  24.5565200
  64.5455027  72.1019220  25.3581500  49.0841866  61.7169046  40.0973129
  49.9033260  61.5493250  40.5633116  49.3564320  61.9415665  39.2075706
  50.0360584  58.6856318  17.9221380  50.1311874  58.3488989  18.8130891
  50.8242750  59.2094231  17.7786207   2.3593754  74.4009066  34.6036577
   2.8139061  74.4954014  35.4407382   2.9933876  73.9642620  34.0348005
  27.3733654   8.8220001  13.0576694  28.1588116   8.9763142  13.5825372
  27.4324265   7.9011227  12.8032494   5.0929765  24.0658890  59.0443328
   4.9348167  23.2864700  59.5769873   5.1549581  23.7350784  58.1482562
  75.1587248  66.7277384  55.7711267  75.3036165  66.6610909  54.8273087
  75.0932693  67.6680803  55.9375858  52.6589441  56.5244293  20.6824207
  52.6275158  56.5266752  19.7257388  51.9565678  55.9289360  20.9437370
  50.6816673  64.7524452  28.1917858  51.5500021  64.9986887  28.5105252
  50.7838535  63.8491821  27.8919506  37.8741407  32.4884701   3.8099915
  37.1263599  31.9855690   4.1327056  37.4828053  33.2149553   3.3249065
  29.2776823  43.0425692  23.7053895  29.9792337  42.4928999  23.3562231
  28.5026240  42.4811125  23.6885905  41.8602848  52.9785538  15.3803289
  41.7573166  53.5957813  14.6559954  42.3251390  52.2347927  14.9969769
  51.5053197   2.3978020  54.4530582  51.6156288   2.3717094  55.4035234
  51.7985984   3.2736517  54.2018557  78.2881021  64.7107363  35.2674365
  78.4405804  64.9726200  36.1754012  78.5279179  65.4811382  34.7524595
  62.5581789  44.5495272   9.1589880  62.5167036  44.7564459   8.2253420
  63.4770155  44.3315935   9.3154258  74.4442412   0.7470966  22.6401305
  74.4846674   0.2173973  21.8438768  75.3543707   0.9865166  22.8149867
  14.7864536   9.9232803  49.2068478  14.9683813  10.7605062  49.6336850
  15.4969362   9.8176132  48.5741684  63.2494259  59.5729923  49.8560953
  62.4163675  60.0431061  49.8912239  63.6012936  59.6425247  50.7435560
  37.3290086  63.5653734  42.6292658  37.2143221  63.2472610  43.5247469
  37.4577045  64.5090389  42.7249575  22.1942687  23.0461311   0.4912712
  22.9230428  23.4186935   0.9875771  21.5050721  22.9122043   1.1418872
  74.3363810  65.1321697  61.1764526  74.5391607  64.2127037  61.0041189
  74.4094181  65.5577374  60.3221798  57.3995495  39.7061801  19.0750420
  57.7703476  40.5396652  19.3649364  57.7264690  39.5962334  18.1821454
   6.2147036   2.4814774  14.7752130   6.9441357   1.9072319  14.5419598
   5.4376784   1.9294764  14.6871316   7.1323099   2.1640945  24.2462754
   7.0088473   1.7873837  23.3750272   8.0808344   2.2575737  24.3345857
  61.3322401  55.0704384  10.7641292  60.6818485  54.6602917  10.1940417
  62.1745539  54.8308182  10.3777051  67.8616047  41.8281984  18.0745423
  68.0824375  41.6083908  17.1694732  68.3136034  42.6561546  18.2370591
   4.2876381  54.9248743  35.6599402   5.1552147  55.0039053  35.2633309
   3.6803288  54.9943161  34.9233389  16.5645828  12.6661945  15.9876466
  17.3273745  13.1859280  16.2411416  16.0423269  13.2564999  15.4444873
  57.5720024  73.7829876  44.5828056  57.3598862  73.4634018  45.4597902
  56.8604898  74.3866348  44.3692732  70.4267917  13.3183847  63.7836556
  70.6269476  13.0815969  62.8780615  69.7652397  14.0063225  63.7107208
  66.0190582  42.6063728  32.3909378  65.0890589  42.7626705  32.5549555
  66.3946962  42.4630642  33.2596111  39.2630696  61.1827087  24.2991495
  39.7945738  61.9586277  24.1211343  38.3925462  61.4083242  23.9712477
  19.8979926  58.4789133  14.6206284  20.6127453  57.9391527  14.2829549
  19.7320497  59.1176605  13.9273059  76.4346167  16.5980984  10.3277433
  76.1983486  17.3921371   9.8482543  75.8380028  15.9291054   9.9919963
  53.0841255  72.5926828  35.8850694  53.3055735  72.0122051  35.1568937
  53.0613804  72.0185757  36.6506529  31.3930488  45.4620552  28.9810348
  31.1010814  44.9184132  29.7127724  30.7841897  46.2006092  28.9734936
  51.3280201  55.6418657  27.7375197  51.0492992  54.7264624  27.7616477
  50.6443071  56.1130381  28.2137179  23.3124052  35.7059231   1.0189894
  22.3724209  35.7655373   0.8483914  23.3784376  35.1773968   1.8143109
  14.5805826  21.8670727  23.2250738  15.0455322  22.7037502  23.2202888
  14.4712725  21.6591145  24.1529942   3.8001961  35.8346629  34.3239975
   4.1839069  36.6880369  34.5258570   2.9584259  36.0406542  33.9175129
   8.9147324  73.3526802  39.9202657   9.3661064  73.7679720  40.6551313
   7.9879803  73.3890629  40.1569653  19.7530260  42.7279354  14.3104565
  19.9925366  41.9181705  14.7611773  19.9766865  42.5669838  13.3937764
  12.6437607  23.3864666  15.3646147  11.9835272  22.7012325  15.2608275
  12.6920309  23.8047386  14.5049894  39.2384476  68.5782003  26.2363911
  39.6166271  68.4120083  25.3729153  39.9851841  68.5491705  26.8345380
  46.7428398  60.7608938  18.0055368  47.2282314  60.5548191  18.8043845
  47.3007441  61.3842583  17.5403583  57.9753637  64.7825193  36.1765885
  57.2806263  64.2436838  36.5550327  58.4005737  65.1898003  36.9312739
  58.2841539  44.9820375  34.6667814  58.9197254  44.7270060  35.3355432
  58.2125044  44.2144918  34.0993547  20.9489142  35.6954279  29.6637324
  20.5340563  36.5244379  29.4252566  21.8557154  35.9295693  29.8615340
  16.3076201   6.7193295  60.9687376  15.9072390   7.5508762  61.2226152
  15.8752957   6.4863087  60.1471376  38.2208157  52.1850395   0.5763968
  38.1257725  51.9114447  -0.3359329  38.6177373  51.4310217   1.0124557
  79.4521952  46.2885904  51.1157608  78.7255859  46.6029024  50.5777264
  79.8330307  47.0824194  51.4913034  48.9108896  56.5987873  28.8241649
  49.2705250  57.4385309  29.1100430  48.4897614  56.2401819  29.6053696
   3.9007178  15.5317665  24.2740846   3.0513230  15.7666374  23.9004540
   3.8850203  15.9025074  25.1564312  15.5583849  18.3305622   0.8567314
  14.8498860  17.7947975   1.2134060  15.4684582  19.1734291   1.3013986
  24.2536726  47.2108055  36.7040515  23.5085478  47.0156265  36.1357832
  23.8777962  47.2616173  37.5828934  54.3061829  44.5066547  48.5795307
  53.5525322  44.6090078  49.1607046  53.9655399  44.7077799  47.7078962
  11.2779472  35.2122865  52.1992847  10.4422233  34.8594032  52.5046822
  11.8062637  35.2975975  52.9929074   8.0694571  13.8460804  20.5896759
   8.2024517  13.5142113  21.4775968   8.9511719  13.9067436  20.2220798
  58.1510162  52.9404211  13.1459486  58.3897400  52.0613480  12.8518939
  58.1015110  53.4568548  12.3415363   9.4031611  32.8894783  39.5400071
   9.4603386  31.9481922  39.3758583   9.5879879  33.2922245  38.6915588
   5.7416811   0.6585527  18.4722281   5.6820383   1.5056826  18.9138639
   5.0143280   0.6610991  17.8499913  75.8804607  59.8609972  61.9795513
  76.2311935  60.2659225  62.7728033  76.0363770  58.9242601  62.0997667
  28.9724401  28.4964453  54.8138723  29.1374067  29.4062124  55.0615379
  29.7642712  28.2276760  54.3480441  62.7920815  26.2534023  16.8946207
  62.3197552  26.7941738  17.5276315  62.8010174  25.3796936  17.2855115
  47.4698659  19.8459316  48.5919571  48.1579252  19.8628784  49.2571783
  46.9517704  20.6323792  48.7631655  49.4354820  59.2669296  45.0274467
  50.2642059  59.7018194  44.8266506  49.6656275  58.3420324  45.1159096
  64.4081688  63.6252975  17.5670183  64.3776846  63.9422131  16.6643190
  64.1525507  62.7048492  17.5064766  25.3398895  67.3050070  26.3407707
  24.6202016  67.6166725  26.8895388  24.9383068  66.6526651  25.7668257
  66.1843538  60.0651264   8.9013320  66.5986967  59.2953587   8.5114437
  65.3710651  59.7327662   9.2812365  76.0976362  66.9241905  53.2536221
  75.5564404  66.9369888  52.4642134  76.9352293  66.5625763  52.9639530
  32.1623554  22.4330116  21.1053944  32.0992794  21.7128731  21.7328072
  31.2534752  22.6518322  20.8997607  72.4279547  56.1906862  30.4027772
  72.5944138  55.7772493  31.2498856  72.9716110  56.9784784  30.4097915
  26.9992975  48.7591778  62.2064516  27.1867327  48.9704738  63.1210311
  26.0473207  48.8286911  62.1348145  52.1365595  55.4541397  14.9027777
  52.1439743  56.0212374  14.1316891  53.0389881  55.4713726  15.2214515
  53.6115094   3.6434008  31.3283753  52.8339788   3.9369656  31.8032408
  54.2375322   4.3607355  31.4271569  45.9974432  60.0817871  12.0528507
  45.9487200  60.8383703  12.6371777  45.7715750  60.4302835  11.1904335
  62.7311182  54.3730259  37.3159504  63.5100698  54.1225433  36.8192363
  63.0540657  54.5347691  38.2023907  50.9963226  51.7639732  44.7977972
  51.9099617  51.7516804  45.0830030  51.0366488  52.0176315  43.8757038
  68.4378672  73.5575438  22.2925544  68.9900780  73.7227440  21.5283561
  67.7987719  72.9118299  21.9911575  15.8482212  67.5218153  28.4035659
  16.7136616  67.1551228  28.5846424  15.2889771  67.1688604  29.0955853
  19.5839066  40.2351475  18.9618468  18.8803047  40.7452297  18.5606110
  19.8661369  39.6332598  18.2731462   1.6881794  59.4258451  34.4035316
   1.8533272  59.0167189  35.2529883   0.8900112  59.9375200  34.5352507
  61.6392183  53.8968277  60.1654959  61.6281271  54.8532057  60.2035999
  62.4850178  53.6519670  60.5408669  75.5521246  14.6128727  53.9100122
  75.6092878  14.4188572  54.8456001  76.2545916  14.0964390  53.5149527
  70.5867100  37.2926855  55.6610680  70.2698421  36.9610715  56.5012217
  71.5401268  37.2380996  55.7262230  32.5836563  63.7201071  11.7884350
  32.6514816  64.6374083  11.5234864  31.7934489  63.6842871  12.3274350
  19.3758097  21.4778782  13.3808410  20.0541868  20.8027531  13.3655083
  19.7764292  22.2093464  13.8506234  48.9309359  67.6685953  59.2638063
  49.7420979  67.2665405  58.9530039  48.7482548  67.2285080  60.0939751
  46.0176659  66.0106277  17.3932076  45.1021910  65.8169556  17.5947583
  46.5135098  65.5661106  18.0807924  78.7830782  65.8153582  14.4969153
  79.0282393  65.9489727  13.5813415  79.5437622  65.3859663  14.8883402
  33.0541168  56.6844311   6.1406401  33.6212431  57.2862187   5.6585148
  32.4915825  56.2965622   5.4703072  20.7570734  32.0513321  23.2973003
  21.5319290  31.6060425  22.9544497  20.9070387  32.1002270  24.2414141
   1.6789808  34.4821335  37.6678419   2.1054545  33.8649918  37.0732951
   1.8139019  35.3382660  37.2615552  24.0402865  72.8032398  23.8970900
  23.7740850  71.9614506  24.2669010  24.0091658  72.6692772  22.9498196
  67.7804995  42.7965498  43.6394930  67.4311447  42.0488071  44.1243172
  67.9018974  43.4762716  44.3024254  38.4892368  61.5293503  64.4268703
  39.4269848  61.7183733  64.3932104  38.3427310  60.9151983  63.7074327
  19.0773239   6.8010021  26.7929220  18.2016506   6.5441967  27.0818448
  19.1856709   7.6936031  27.1211982  76.5634533  17.5257088  17.4728382
  76.8989988  17.9150082  16.6653192  76.8427607  16.6110779  17.4318659
  13.1950083   3.9925314  29.5033860  12.7724877   3.3156181  30.0320601
  13.7200489   3.5067297  28.8673329  47.6257324  50.6332636  28.4955859
  46.8190956  50.1328802  28.6188126  48.0556631  50.6088924  29.3504524
  16.4764351  48.4290075  40.2395248  16.0952610  49.2776775  40.4647017
  17.2571034  48.3635616  40.7895184  30.3366890  22.1040989  42.6344872
  30.4406681  22.7577950  43.3259392  31.1748066  21.6421867  42.6135731
  11.3423100  33.2902409  18.4019578  11.0096684  34.0917088  18.8059735
  12.0343151  33.5888554  17.8118825  58.7001514  57.7478218  34.5759392
  58.6338425  56.7935705  34.5406795  57.8665829  58.0590343  34.2230392
  74.3512917  58.2071400  34.5754480  73.8038588  58.9849281  34.4677758
  73.9982128  57.7712393  35.3510523  13.5169306  12.5631405  60.1037169
  13.0093708  12.0154835  60.7026196  14.3416062  12.0911194  59.9881840
   2.6548618  70.8554792  37.4733400   1.9602627  71.4986420  37.6151800
   2.4040932  70.4062128  36.6661787   4.8425144  36.9103289  30.0836921
   5.6664127  36.5219617  29.7894287   4.2070717  36.1968613  30.0252795
  76.5546989  67.2987270  47.6297951  76.9970226  66.8439770  46.9130039
  77.2466230  67.4681282  48.2691479  15.6979126  67.1452379  25.3952074
  15.3458828  66.2845659  25.1681709  15.5469746  67.2248983  26.3370681
   3.0810442   5.2039982  48.6790943   3.4123984   5.1182533  47.7851820
   3.8177195   5.5622555  49.1742659  38.9188706  30.9126654  17.3146323
  38.8692271  31.6645041  16.7242888  39.7158562  30.4529896  17.0505408
  53.8060513   0.0512672  14.5263410  53.6266079   0.2955748  13.6184061
  54.7607365   0.0045658  14.5775986   1.4065352  36.9449593  12.4364614
   1.7267122  36.1535526  12.8693485   0.6918421  37.2509457  12.9948664
  59.4984674  33.3923340   1.0816601  60.1743269  33.7110090   1.6799015
  59.3630266  32.4799466   1.3374674  15.6594223  43.5337496  52.4803305
  14.7612518  43.3329535  52.2172928  15.6556076  44.4766378  52.6451874
  49.2088890  59.8826456  27.4881840  49.8581553  59.3281889  27.0554399
  49.1909409  59.5693302  28.3924747  11.2763733  35.9817100  19.0614235
  12.0879025  36.3689661  18.7332666  11.4125866  35.9044456  20.0057268
  68.0913206   6.7329289  26.0615659  67.1814057   6.4926506  25.8867741
  68.2693716   6.3789536  26.9329023  52.7357598   8.4071899  43.5187483
  52.2705980   8.9962841  42.9247522  53.5422012   8.1854225  43.0532360
  31.4136767  49.9996185  14.7378838  31.7731452  49.6902418  13.9064395
  31.5551233  50.9461880  14.7225583  30.3238713  10.1021710   1.6905812
  30.0082766  10.4653445   2.5180653  29.5953451   9.5712605   1.3686827
   0.0792450  60.2368546  53.8036108   0.8711666  60.5676079  54.2275047
   0.2909988  59.3323183  53.5729504   2.4945154  45.3823830  46.5726233
   3.2631483  44.8258568  46.6979837   1.7588940  44.7708393  46.5393066
  33.8697632  61.8927202  64.8044884  33.3705242  62.3540578  65.4783995
  34.7699554  62.1953997  64.9239673  11.1827126  22.1435047  27.2726130
  11.6567841  22.4670197  26.5065694  11.3498631  22.7973152  27.9514527
  60.5320311  43.2140827  50.8942366  60.1961565  43.6845064  50.1312685
  60.1580524  42.3362589  50.8181190  50.2648783  59.1211271  10.6801033
  49.7843742  58.8123703   9.9119776  50.0060081  60.0380707  10.7719326
  62.0981169  70.6786060  62.5871181  61.6841030  70.5184650  61.7390776
  61.5420389  71.3363314  63.0047369   4.2655415  65.4227066  24.4395804
   3.9583344  66.3230562  24.3336678   4.5027584  65.1449347  23.5548210
   6.1928024  12.0665337  15.0933111   5.3817310  12.5600220  15.2152300
   6.8142262  12.4742867  15.6964695  65.2378321  71.8278360  52.6685667
  65.4747725  72.0637894  53.5654593  65.3636742  70.8797646  52.6291275
   3.0648655  52.9343987  53.0827570   3.6906666  52.2402954  52.8758001
   2.4630398  52.5348425  53.7107611   2.2595543  28.6648393  20.8413863
   1.8353504  28.0605435  21.4505720   1.5890259  28.8529086  20.1846838
  29.2746023  54.0240703  63.2080298  30.0224451  53.6512314  62.7411753
  29.5429376  54.9195610  63.4137700   6.1450557  45.1363157  17.2305560
   5.6596259  44.5577573  17.8186548   6.2198833  44.6408056  16.4150167
   4.1445068  68.5317515  12.3836112   4.2480282  68.6765038  13.3241224
   3.5672883  69.2385243  12.0946062  12.9034126   8.5699052  12.9027939
  13.4293079   7.7874660  13.0684912  13.5430193   9.2444682  12.6745367
  34.9066257   1.4608726  29.1677070  35.1418495   1.7466700  28.2849717
  35.3510809   0.6197473  29.2735338  35.5003858  16.3153327  18.4745789
  35.1134467  15.8974898  19.2439413  36.3123393  15.8318150  18.3223510
  54.7234821  16.4580119  32.1091199  54.6753788  15.5031466  32.0627546
  53.8719702  16.7565203  31.7896676  10.6542587  26.6501594   2.4887136
  10.5252838  27.3612404   3.1163767  10.6982303  25.8601832   3.0274519
  73.6692057  66.3687806  21.0019445  73.5477052  66.1042743  20.0900745
  74.4712195  65.9236847  21.2756109  26.4909911  16.4793324  24.3499255
  26.9064951  16.7621613  23.5353112  26.9408298  16.9761825  25.0333118
  68.3216470  12.1744108  11.2540495  68.8049894  11.8900108  10.4783392
  67.6655775  12.7845550  10.9171081   7.8441957  42.4230408  11.3787448
   7.1849898  41.7291855  11.3631463   8.6177973  42.0275139  10.9770846
  32.6975083   3.0039549  37.0685959  33.3496451   2.3041186  37.0342660
  32.4553490   3.0605528  37.9929256  50.7238483   8.0644625  19.7811711
  50.9435415   8.8761920  19.3239355  50.5181694   7.4438769  19.0820277
  42.6860938   5.2566467  46.3191435  42.1900008   5.2247225  45.5011555
  43.4609947   5.7778440  46.1091134  27.6214457  16.0216331  33.0871272
  28.1927443  16.5220606  33.6697245  26.7775536  16.0015023  33.5384297
  22.9084873  36.9413471  31.2417102  23.7518430  36.7561364  31.6548467
  22.4018836  37.3869419  31.9207001  22.1406849  40.0833910  50.1142940
  21.3817795  39.5022896  50.1654026  22.8664787  39.5086572  49.8711154
  47.2859669   8.2160974  30.2691460  48.1280470   8.0429071  29.8482680
  46.6346216   7.9471630  29.6213365  48.8079786   2.1467128  40.3699160
  49.5106506   2.0919055  41.0175848  48.6421728   3.0846730  40.2751923
  32.2756314   0.3898709  38.1939197  31.4096117  -0.0008460  38.3104777
  32.6449990  -0.0674189  37.4384832  24.5795730  61.6744184  32.0634484
  24.5813087  62.3490893  31.3844419  25.2609686  61.0594796  31.7918158
  46.5903425   9.6520442  16.0139918  47.4187326   9.2671114  15.7279277
  45.9191704   9.1292751  15.5752766  34.0951753   5.1519305  17.5190592
  33.8246703   6.0678726  17.5831556  33.8691902   4.8974964  16.6243947
  34.6497396   0.8905946  57.5527319  34.7471670   1.8304644  57.3998150
  34.7506575   0.7902108  58.4992894  48.3064747   1.2462542  36.5613127
  47.4534130   1.4916961  36.2031627  48.1603193   1.1813150  37.5050569
  50.8428621   2.6040959  41.9929075  51.4935827   2.5030214  42.6875877
  50.6205368   3.5350180  42.0065832  28.5698118  50.8916888  61.6201556
  27.8763272  51.4805147  61.9178033  28.1292590  50.0531480  61.4823326
  47.6146221   4.4113362  12.6032698  48.4047842   4.8616141  12.3047292
  47.1265793   4.2265791  11.8008268  44.3278650  53.7179111  27.1201944
  44.7112898  53.2684301  26.3670778  44.6889118  54.6034907  27.0798898
  31.7871381  43.1716839  64.8745331  32.5642873  43.6379466  65.1825430
  31.9636644  42.9963413  63.9502361   4.7028120  33.1144533  51.5408298
   4.9518497  32.5182447  50.8346090   4.0050705  32.6545880  52.0076415
  50.2814201  62.5757884  31.0585499  51.0337786  62.9881953  31.4829421
  50.4247240  62.7208590  30.1233220  19.1516316  38.9107609  21.3852048
  19.3416953  39.1963840  20.4916000  19.8485970  38.2877254  21.5908599
   5.2204732  70.3462993   2.0324506   5.2071766  71.1376946   2.5707334
   5.0192717  69.6375703   2.6435581  24.7635120  19.8071289  11.7698741
  23.9803165  19.2575634  11.7413497  24.4428581  20.6671882  12.0413613
  73.7668597  34.3812203   1.3717519  74.3534755  35.0633430   1.0449159
  73.3082521  34.0662956   0.5928206  60.9404516  16.9038630  33.6962461
  60.1685476  17.4340034  33.4978986  61.4854336  16.9716048  32.9122567
  42.4135828   9.4155622  15.7970750  42.7414560  10.2490473  16.1347628
  42.5070333   9.4885617  14.8472488  53.7030881  70.3813156  37.3852754
  54.2702610  69.8124807  36.8647242  52.9888565  69.8113560  37.6703191
  20.2557091  69.1328739   5.4797620  21.1989359  69.1816502   5.3242558
  19.9808411  70.0450145   5.5729187  69.3814243  40.1286769  59.9751815
  69.7089208  40.8142722  60.5573645  68.5672630  39.8356474  60.3844586
  23.5754919  44.9030399   8.4025824  23.3912325  45.8267307   8.5730803
  22.8688622  44.4323063   8.8445258  20.5123115   8.2849371   9.9803275
  20.4353309   7.3353565   9.8875779  20.8747101   8.4113425  10.8572090
  79.4622621  62.3686396  21.7408013  79.4540748  63.2394599  22.1380877
  80.3032265  62.3206996  21.2861443  64.1191387  11.2043381  28.1570196
  64.6958494  11.7756188  28.6642480  64.1610813  10.3607738  28.6074352
  26.9344521  22.7372527  37.8403854  26.1315680  22.8038287  38.3572793
  27.4728727  23.4702659  38.1387615  53.1354284   8.5891885  38.3905625
  53.1797314   8.4370172  37.4465752  53.5384035   9.4486398  38.5137963
  76.4825023  42.9097870  56.8536886  75.8325590  42.3188112  57.2338870
  76.6674150  42.5391847  55.9907326  70.0495685  53.9309809  50.1150486
  69.5207752  53.2156834  49.7615537  69.4336857  54.6566710  50.2164742
  77.6279507  42.5965880  43.6499548  78.1257353  43.2621240  44.1248274
  78.2263527  42.2909616  42.9682350  43.1644344  17.3303425  29.8385119
  42.8618288  16.6140473  29.2803168  43.9990425  17.0224488  30.1918793
  23.2260275  31.7600656   4.8634291  23.8004375  31.0782027   5.2117765
  22.5083041  31.8140483   5.4944515  41.1126474  69.8303824  40.4610109
  41.8477587  69.7992586  39.8487425  40.7555250  70.7129096  40.3618193
  59.8751640   4.5479429  18.0034256  58.9974451   4.2962393  18.2906330
  60.4252481   3.7977022  18.2287657  16.7423499  34.7928977   4.4070667
  16.0205233  34.6404696   5.0169551  17.2605765  35.4851437   4.8175156
  60.2270508   1.1729372  49.6781492  59.9953461   1.4797099  50.5547571
  60.9315157   1.7574294  49.3982744  21.0435534  52.2660351  39.4290233
  20.5829048  52.5508738  38.6397839  20.4958892  51.5673590  39.7870016
  12.2536854  58.0485856  13.1912196  12.8960875  57.6120841  12.6317394
  11.4326981  57.5880753  13.0176127  24.6832371   4.4580755  20.2825189
  24.7931719   5.2947366  20.7343411  24.2707658   3.8878709  20.9313369
  17.2152860  67.3024640  63.6846293  16.4371259  67.1066437  64.2065037
  17.9005726  66.7492733  64.0595810  37.2731996  20.9873343  20.3118563
  38.1394434  21.2279654  20.6404138  36.8912530  20.4558468  21.0103321
  19.4009880  67.8526812   3.1942427  19.4381288  68.3528393   4.0095305
  18.4882072  67.9191946   2.9138160  37.8551579  17.1861553  39.6238947
  38.1288981  18.0942500  39.4948077  37.0446348  17.2498345  40.1290989
  38.9966631   3.9865074   0.6241794  38.2201672   4.4432360   0.3006292
  38.6490440   3.2583204   1.1390944   2.9739626  42.5820563  48.4680387
   2.3933037  43.3083585  48.6950847   2.4472578  41.7975432  48.6208471
  26.6298985  36.8032527  27.0002580  26.2895441  37.5028968  26.4426827
  26.1800146  36.9232225  27.8365874  39.1088332  24.7475920  51.2110790
  39.3907822  24.3995485  50.3651473  39.9192120  24.8497591  51.7101583
  43.7569383  48.0590319  16.7646301  43.8386110  48.3948468  17.6572597
  44.3935541  47.3457550  16.7178845  48.6139631  14.5406473  30.1734853
  48.5507154  14.8733926  31.0687566  49.0537882  13.6951745  30.2627134
  67.3989309  63.3620820  61.1685797  66.5233792  63.1727419  60.8312431
  67.8789486  63.7001333  60.4125807  70.5241598   5.3372035  58.2808724
  70.8556141   5.1118264  57.4116334  69.6042694   5.0732193  58.2623014
  68.6407328  11.9542348  18.9585185  68.7867308  12.0675230  19.8977101
  67.9049540  12.5330603  18.7589705  34.2418766   5.5964291   0.8224545
  33.7006688   5.7547975   0.0489905  33.6552358   5.1595652   1.4398965
  20.0420403  15.9397376  24.7446656  20.0013256  15.5566502  25.6209183
  19.7458768  16.8421400  24.8637867  10.7997874  72.1752976  11.4099360
  10.8394817  71.7652922  12.2739685  10.7902531  73.1151633  11.5910268
  23.5817671   5.7833326  32.0360184  22.8607559   6.2746125  31.6422915
  23.6056399   6.0806412  32.9455614  12.8375018  14.2287302   7.1318746
  12.0215559  14.3408704   6.6441357  12.8873241  13.2881463   7.3023176
  21.7105253  13.5000262  49.0344342  20.8550174  13.0826530  49.1351053
  21.5570505  14.4179163  49.2583880   9.8887948  74.5350755  16.8758750
   9.7805313  74.4789967  15.9264719   9.2512015  73.9133308  17.2267854
  25.5263996  26.2750220  23.6168218  25.0935912  26.2973022  22.7633524
  25.0395036  26.9044447  24.1487908   9.3261484  64.7555016  15.9854972
   9.6542004  65.0014054  16.8504512   9.5577744  65.4942184  15.4225779
  74.9211025   9.5978224  15.1277328  74.8913193  10.4029202  15.6446099
  75.6462097   9.0986085  15.5035496  41.4782501  63.8979659  56.8197396
  41.6117419  64.6540913  56.2481758  42.2574354  63.3577761  56.6882160
  65.1484097  24.2135951  55.0931737  64.9374593  24.4804797  54.1984638
  65.4622830  25.0139103  55.5141374  16.9060854  63.2982527  20.7667470
  16.9911960  63.8639711  19.9993169  17.2695068  62.4582230  20.4865551
   8.7608457  24.1330194  17.7762330   9.1093892  23.2595301  17.5979948
   9.4954753  24.7230315  17.6075983  33.3729748  64.1548156  21.8485284
  33.5624508  65.0514733  21.5722370  32.5970510  63.9080249  21.3452721
   8.1702498  67.8949087  12.6224184   8.5353927  68.0876940  11.7588580
   7.2236899  67.8704732  12.4822092   2.4092153  71.8131324  17.3826265
   2.0371322  71.7873468  16.5010810   2.3205141  70.9167149  17.7063537
  14.4750742  49.4361018  12.3407722  14.5879463  48.9258908  11.5387893
  13.5331110  49.4122886  12.5092173  60.1594938  46.2932858  61.0075036
  60.0558103  46.3796482  61.9551444  59.8422135  47.1247694  60.6550845
  35.2946138  14.7392249  44.6542406  35.1587081  13.8932109  44.2276049
  34.4402409  14.9606299  45.0247288  19.9292409  30.9842372   9.0965396
  19.2861986  30.9058022   9.8012209  20.6849551  30.4843640   9.4051719
  34.7164301  73.8135644  50.5215073  35.4131178  74.1039856  51.1101627
  34.3490127  74.6233857  50.1673508  71.5458959  17.2255528  17.8129363
  72.4222970  17.4538517  17.5030458  71.6803187  16.9256032  18.7119317
  30.0597743  68.7157926  62.9761764  30.1353098  69.6569309  63.1336053
  29.1822569  68.6037740  62.6105991  63.1922865  11.2943745  19.2699897
  63.7765551  11.8892860  18.7999463  62.4939871  11.8579888  19.6030807
  57.7948603  46.5897774  12.5634849  57.9193500  46.4534306  11.6242599
  57.3488033  47.4343943  12.6258445  52.2494698  29.5609212   9.3863553
  52.3969984  30.5057001   9.4294757  52.9771996  29.1821194   9.8794621
  73.8282904  48.6127900   9.4360459  74.7850165  48.6362361   9.4549447
  73.5664878  49.5332860   9.4166321  71.5235195  66.2480979   1.0582038
  71.4678547  67.1029054   0.6310771  70.9897253  65.6718176   0.5112143
  36.3047028  49.5709419  16.9846654  36.6138148  48.9673710  16.3091052
  37.1041179  49.9022579  17.3938060  40.1740599  29.2693281   6.3252616
  40.8436966  28.9542603   5.7181817  39.8161840  30.0501990   5.9028900
  51.8521357  34.8525047  60.8130646  52.4111271  35.5132914  61.2218714
  52.4407959  34.1198611  60.6315708   1.3411096  47.7753901  36.6762090
   1.6758565  48.0028533  37.5436401   2.0719746  47.3312305  36.2463379
  15.3219485  28.3586574  33.9007330  15.9231997  29.1017509  33.9511561
  15.4779053  27.9827380  33.0343652  60.5829920  51.9510612  52.7912113
  61.4549674  52.3380885  52.7130899  60.7225217  51.0151741  52.6467165
  19.1383207   2.0455141  27.7493572  19.9118614   2.4626294  27.3700404
  19.4898546   1.4209804  28.3838773  12.6846150  71.6137578  54.1271257
  12.8053645  72.2527274  53.4247255  13.3493809  70.9456321  53.9600134
  21.0840706  36.8315815  40.8006144  21.4367393  36.9780754  39.9228954
  21.5762237  36.0815023  41.1343765  40.0646687  20.7456970  25.2904820
  39.4856644  21.3595152  25.7423830  40.6764936  21.3032150  24.8097825
  51.1743164  10.5107689  14.1606617  50.4089737   9.9393058  14.0981340
  51.7916536  10.0252962  14.7078776  58.8783015  51.2802610  54.7852489
  59.3290342  51.6686330  54.0354237  59.4906200  50.6249175  55.1196429
  57.9902233  47.1249733  45.8320209  58.3980836  46.7089895  45.0725218
  57.0812668  46.8257586  45.8096406  36.4144475  73.9886079  60.9560466
  36.2621601  73.0440602  60.9855124  35.6513495  74.3400512  60.4973519
  21.5530924  13.7878404  52.4893245  21.7060284  13.2258592  53.2489416
  21.9407038  13.3100830  51.7560181   4.4660194  41.9528884  42.5574872
   5.1274116  42.2982911  43.1570574   4.8310287  41.1229420  42.2505852
  69.0485821  64.9009942   3.4804884  68.5172245  64.2777192   2.9850900
  69.9523828  64.6554553   3.2827836  49.3611574  27.6957893  14.2146838
  49.7158098  27.5223780  13.3426833  48.6853933  28.3583045  14.0710056
  38.2273916   1.4436065  43.0007288  38.1607202   2.2332345  43.5376426
  39.1626362   1.2401043  42.9891512  41.1228037  14.4019651   5.5687290
  42.0531368  14.2980921   5.3689319  40.8732843  15.2159226   5.1311827
  60.9345115  58.9217338  60.8269900  61.0348786  58.5943470  61.7208439
  60.6851567  59.8395881  60.9346822  77.7449178  18.7200904   0.9913455
  78.6947915  18.7285721   0.8734476  77.5729654  19.4367826   1.6020954
  45.8880568  17.7830756  34.6575785  46.3244343  17.6161861  35.4930162
  44.9789810  17.5227165  34.8059869  18.2826042  46.8364143  26.3641667
  17.6046169  47.2202635  25.8080864  19.0158963  47.4488115  26.3051176
  37.3877120  31.7973471  23.0246210  38.1935263  32.0946455  23.4471273
  36.8667769  32.5929570  22.9157090  49.6389484  12.7687323  18.2523811
  48.7514591  12.6664352  17.9086804  49.9901342  13.5277081  17.7867019
  26.8643343  75.1976070  56.9466057  26.6376280  75.5590615  57.8034517
  26.1311908  74.6224460  56.7276940  76.4409460  44.3624285  38.5538122
  76.0287870  45.2254966  38.5154339  76.3253988  44.0819881  39.4616863
  76.2510675  22.6852083  42.5717974  75.6951463  23.1258464  43.2144642
  76.0381126  23.1089330  41.7403316  48.8944006  24.4877791  26.2603426
  48.7926054  24.2131066  27.1716189  49.7088957  24.9905133  26.2512755
   6.0916835  34.2629528  14.6943724   6.0707301  34.1587996  13.7430859
   6.3608205  35.1714730  14.8299730  24.8890880  64.8144530   8.1690401
  24.9556736  64.0700864   8.7671351  23.9530949  65.0120460   8.1358409
  67.4021530  25.6327486   2.1168642  67.0731688  25.7545686   1.2262695
  67.8004932  24.7624159   2.1080922  72.2148384  40.3060919  55.4663077
  71.4243091  40.4859069  55.9751883  72.2841085  41.0453281  54.8621854
   2.9312877  65.6678175  12.4970353   3.3390740  66.5248798  12.3729885
   3.0223206  65.2342044  11.6485512   9.9282682   2.0090467  24.1678047
  10.3983641   1.2550431  24.5237827  10.2448285   2.0855185  23.2677078
  72.2503805   1.5320063  -0.1130475  72.7761745   1.9725463   0.5545602
  71.3666725   1.8782526   0.0110537  42.3300648  20.1272345  48.3794689
  42.2804260  19.8296201  49.2878723  42.4167013  21.0783577  48.4434366
  58.9623976  25.8984065  18.1091022  59.0822411  26.5667486  17.4344277
  58.0197954  25.8923984  18.2755256  43.8662006  67.3612938  64.9779542
  44.6455361  67.8955350  64.8248063  43.7032677  66.9294534  64.1393844
  35.0631336   3.6068283  57.1617606  34.9314264   4.2565571  57.8522208
  35.3342441   4.1187273  56.3997319   9.9163158  40.8352510  54.3596682
  10.5968960  40.5366412  53.7564477   9.1606529  40.2823750  54.1608438
  47.9723406   7.8231490   5.9802270  48.6647558   7.4823630   5.4139620
  47.3631954   8.2542586   5.3807950  73.5709620   0.4361476   8.0312937
  73.6015654   0.9569287   7.2287464  73.5912323   1.0824119   8.7371004
  59.0889645  34.5627284  15.4105198  59.9144220  34.4829750  14.9325144
  58.5750246  33.8058996  15.1289046  22.9214191  23.5163927  37.8019619
  22.8357840  23.6666656  36.8605185  22.1816778  22.9503393  38.0224156
  67.5827742  10.6764746   6.5941054  67.5184584  11.0188973   5.7025659
  66.9196415  11.1614120   7.0853502   7.9906849  58.8134800  42.3336983
   7.0919637  58.8401424  42.6620579   7.8977302  58.8141643  41.3810205
  51.4861048  47.7563271  62.8917454  51.6072239  47.7522251  61.9422480
  51.5726508  48.6766431  63.1402641  46.9837750  30.0291166  62.9218329
  46.1523904  30.5005315  62.9747467  47.3280085  30.2471033  62.0556825
  51.1772976  51.9163894   8.6814880  50.4656706  51.8407797   8.0457985
  50.7677639  51.7196607   9.5239913  28.6204362  14.7868717  26.1095262
  29.0891123  15.1963282  25.3822565  28.0145955  14.1757810  25.6902909
  36.4922452  10.7435048  13.7238669  36.9958425  10.7900655  12.9111826
  36.1979842   9.8339045  13.7715125  71.9368505  34.9999094  46.0708809
  71.8858951  34.1067266  45.7304955  72.5986922  34.9558330  46.7609930
  66.2171854   5.8707962  51.6902050  66.0308422   6.6697106  52.1834013
  66.3224066   6.1665950  50.7859573  52.4039221  17.0018137  23.6796761
  52.3634148  17.0106351  22.7233744  53.0008841  17.7166617  23.9007211
   8.2054527  39.8224791  62.5598362   7.5319441  40.1989183  63.1263268
   8.8131101  39.3937526  63.1624788  11.0607413  65.4569726  12.5511682
  11.5164856  65.2574705  11.7334116  10.1894192  65.0770246  12.4386168
  33.1582264  11.1616503  54.7855517  33.1276134  11.3643633  55.7205388
  33.0703834  12.0111595  54.3532905  59.2832912  68.1623659  39.9361536
  60.0149859  67.7827868  40.4227492  59.2949237  69.0901694  40.1712605
  13.6654401  21.8821836  17.4774730  12.8793323  21.7923188  18.0161667
  13.4042156  22.4701834  16.7687774  71.9292212   8.3834386  31.5397263
  72.4253798   8.9958894  30.9966230  71.4386272   7.8511691  30.9134388
   8.0117720  25.5954981  34.4124961   8.3395970  26.3986564  34.8170972
   7.3783851  25.8967280  33.7611008  31.8794322  28.9605498  28.1707644
  31.8184781  29.0347052  27.2183895  32.1284795  29.8370981  28.4638023
  16.2193143  13.0045056  55.0483418  15.6629598  13.3639634  54.3573332
  17.1114874  13.1169498  54.7202921  20.4896311  72.6192208  46.4400625
  21.2639669  73.1423216  46.2327003  20.5495361  72.4660697  47.3830271
  47.0180368  19.6804142  31.6135216  47.7148438  19.3426263  32.1761799
  47.4783993  20.1483178  30.9168410  65.6402196  18.8785527  33.1416270
  66.4392675  18.8129232  32.6187035  65.3123153  17.9806635  33.1916877
  39.4602493  74.2356642  11.1860967  38.7967495  74.8732082  11.4497995
  39.3460087  73.5055413  11.7944562  51.0893822  15.6394267  10.2910054
  51.2717962  15.1611137   9.4821942  51.3311386  16.5443611  10.0938249
  64.2934036   7.5605601   9.5452887  64.6094418   8.3889127   9.9061000
  63.6804581   7.8176647   8.8565034  74.7248758  68.3085427  63.9786000
  74.1710390  69.0096912  63.6352597  74.1475500  67.5462160  64.0208445
   9.0893745   4.2402849  26.2821651   9.3981367   3.4239942  25.8890152
   9.8806900   4.6549210  26.6258645  28.0715513  13.2783628   3.9669311
  28.0152750  13.5746264   4.8753870  27.3219395  13.6875880   3.5346749
  38.4804821   8.5883379  18.9193881  39.0591359   9.2892152  19.2196572
  37.9562044   8.3646399  19.6883643  55.7689714  27.1821404   8.9173365
  56.6992950  27.3673439   9.0455151  55.4164410  27.9832697   8.5298491
   6.6050155  46.3326612  60.9377318   5.8510645  45.9039519  61.3426986
   6.4159305  47.2682140  61.0099801  30.6721310  71.0493355  22.1836686
  30.8909229  71.3129010  23.0774784  30.2852157  71.8319162  21.7911148
  17.2410400  59.3804154  57.5437483  18.0802639  59.1348800  57.1543309
  17.2828109  60.3335342  57.6215371  31.7499781  13.8734269  25.5884123
  32.5924158  14.3240070  25.5292034  31.1353254  14.5508683  25.8703828
  19.1795782  50.1710104  39.6448016  18.6288933  50.0455617  38.8719869
  18.6672405  49.8052858  40.3659010  57.2709465   8.6432528   4.1904464
  57.2698259   9.3942958   4.7838813  58.1977987   8.4674579   4.0283567
  53.3823633   5.0127721  27.0055008  53.4783030   4.5668316  26.1639762
  54.1716337   4.7768193  27.4929571  75.9458923  35.0745654  12.2241426
  76.0395813  34.2407489  11.7634857  75.5222416  34.8449874  13.0512130
  11.9067724  65.4729590  59.4448742  12.3884065  65.2268920  60.2346289
  11.0952718  64.9675116  59.4919917  28.6958126  47.4246382   5.1297146
  28.0520777  46.7166542   5.1540798  28.1729416  48.2205485   5.0329399
  64.5458269  26.6208076   6.0243994  64.4889832  27.3385787   6.6551161
  63.9392900  25.9598970   6.3583767  10.5453853  66.4806651   5.9929395
  10.8914498  65.6134950   6.2038612  10.1744799  66.3836949   5.1158661
  31.5670323  13.1831205  13.0309749  30.7557130  13.5888565  12.7254057
  31.5366077  12.2930396  12.6801717  75.9081901  66.4944086  44.0782568
  76.2201465  65.6357846  43.7924644  74.9638475  66.3821039  44.1870472
  29.9607253   4.6186402  32.6732039  29.9826026   3.7988284  33.1668258
  30.1331306   5.2964085  33.3267641  73.9611387  36.8671155   4.2468986
  74.1956520  37.0555758   3.3382082  74.4552517  36.0762143   4.4626850
  38.3187127  12.2101045  28.3495569  38.6826682  13.0864787  28.2241130
  37.8222442  12.2714984  29.1656351  73.7443972  18.7938702  19.3782270
  73.7845993  18.3827031  18.5147703  74.2010164  18.1825101  19.9561250
  55.9928073  71.0623202  65.1970469  55.6192316  71.8068228  65.6686285
  55.6795324  71.1663065  64.2985599  44.1964197  11.1364424  16.8477678
  44.9747276  10.7139719  16.4844608  44.1448879  11.9764066  16.3916564
  62.1444464  23.2403994  10.7863605  62.3655510  22.5125432  11.3673687
  61.3642550  22.9441619  10.3175581  43.9608145  12.1986973  14.2504585
  43.1828356  12.4690580  14.7381961  43.6261797  11.6131067  13.5712433
  19.2765863  30.9288839  62.7279945  20.0878151  30.9393785  62.2200262
  19.4858654  30.4071793  63.5027590  46.2446451  13.1974900   9.9291974
  45.6497097  13.5386705  10.5969393  45.8696365  12.3516548   9.6839160
  25.7337145  71.2358191   2.6498270  25.6040672  70.7566442   3.4682497
  25.4987387  72.1392780   2.8614426  75.4671955  19.6964204  41.9535542
  75.3876400  18.8898909  41.4442301  75.0395155  20.3626323  41.4155149
  40.4533052  20.3348279  40.3496313  40.4041100  19.9031973  41.2025690
  41.3703346  20.2474570  40.0895214  42.7659359   2.5533510  51.6244078
  43.0348053   3.4022022  51.9756746  43.1711426   1.9129444  52.2091389
  48.8474560  53.2314396   2.3667127  49.5211315  52.9398966   1.7523837
  48.8406801  54.1846848   2.2800885  51.3982201  52.6725435  14.5464194
  51.3387585  53.5969973  14.3054140  50.9956264  52.2074604  13.8130379
  60.8471860  22.2289214  57.8305098  60.4501666  22.9934022  57.4131635
  60.1086248  21.7524359  58.2096156   7.0603675  24.3897796  22.0851827
   7.0824391  24.5836210  21.1480761   6.5423083  23.5876441  22.1517062
  49.7357368  20.3340173  25.1281643  49.6266365  19.3852150  25.0641012
  50.5152941  20.5213165  24.6052456  44.6105576  14.5261872  11.6003871
  43.9892149  15.1167381  11.1744618  45.1598883  15.1006293  12.1337605
  21.1672405  49.0608787  37.8756857  20.4183248  49.2807864  38.4297585
  21.3856748  48.1600999  38.1146741  34.5680431  51.2457251  15.2076864
  34.7404245  50.4080056  14.7778690  35.1474766  51.2477159  15.9695828
  48.0117702   8.6538482  46.4941549  47.5581598   9.4961935  46.4637470
  48.1580925   8.4273219  45.5757284  36.6050295  73.0749652  22.2724843
  37.2564892  73.5536986  21.7599893  37.0563129  72.2771146  22.5481844
  53.8892412  51.2047815   4.4758585  53.1862640  51.8533039   4.4374907
  53.5340500  50.4981470   5.0150597  64.2652525  24.4492731  63.1489695
  63.6358703  24.3109474  63.8567646  64.4104780  23.5765335  62.7836379
  42.5231743  15.4343069  28.0987000  43.0032492  14.6205044  27.9454446
  42.4457741  15.8335447  27.2321844  10.7261518  24.0623937  48.9881417
   9.8182229  24.3030010  49.1725346  10.9895758  23.5289322  49.7379800
  55.8730793  18.3587003  23.2680869  55.9761381  19.2701638  22.9945087
  56.3036537  18.3147454  24.1218495  16.5857410  39.9761987  20.3119159
  17.3768508  39.8352647  20.8320260  16.5294898  40.9267426  20.2142525
  48.8048124  45.9027433   5.0578952  49.2997360  46.7122650   5.1842254
  47.9244232  46.1087561   5.3720737   1.9077629  16.6311610  17.1488822
   2.7151436  16.4773917  17.6395094   1.2286037  16.6977668  17.8201067
  23.4907985  24.4945979  17.8395510  23.2386255  24.6909571  18.7418175
  23.3371305  23.5543442  17.7471352  13.0912737  68.7377279  16.2368250
  13.2306055  68.4880434  17.1503222  12.2719363  69.2325353  16.2460685
  38.0243874  26.6583872  16.6955626  37.2462559  26.6570139  16.1381197
  37.6828623  26.7656541  17.5833046  67.5707910  74.6433111   1.3689859
  66.9022796  75.3227627   1.4565685  67.7525768  74.6057928   0.4299556
  14.9916128  62.4013792   8.0148929  15.1962236  63.3324145   7.9280585
  15.2822260  62.0142530   7.1891141  40.0274372  27.5873828  14.8462713
  39.7804236  26.8922710  14.2363250  39.4671011  27.4466467  15.6094539
  25.2211098  62.7607368   9.8102391  26.0750917  62.4970113  10.1528633
  24.7431949  61.9387900   9.6996313  53.0062712  64.9570713  59.9604347
  53.8752259  64.5610056  60.0258842  52.4216450  64.3214998  60.3733435
  30.9522128  13.4601223  19.4524479  31.2995386  13.6857116  18.5894847
  31.6991353  13.5549009  20.0435138  43.0847073  28.7784910  31.7662835
  42.2035646  28.5010958  32.0170140  43.4160137  28.0625558  31.2241554
  49.2723659  65.4332047  37.9926920  48.9588789  66.2323295  37.5691867
  48.4759430  64.9836134  38.2752085  12.5795106  69.1034930  48.3790064
  12.6620439  70.0179171  48.6496544  13.4167389  68.7062525  48.6187506
  65.0590727  70.8519958  22.3157501  64.8372731  71.4910944  22.9929447
  65.7532832  71.2721633  21.8080473  70.7365894   0.9465925  12.5136352
  70.0032854   1.3242963  12.9992676  71.4855099   1.0357933  13.1030369
  31.6815948  52.5875902  13.3990645  32.4158573  52.5945187  12.7850246
  31.0386825  53.1807041  13.0103362  62.2426891   9.5264375  21.5730643
  62.8212357   9.9907082  20.9681106  62.3184347   8.6067724  21.3186836
  79.1221247  73.8944608  40.5005217  78.6912808  73.6839648  41.3289499
  78.5712180  73.4851780  39.8332715  24.8216224  18.9350545   5.0950116
  25.5481887  19.1084135   5.6935745  24.2719674  18.3054101   5.5615520
  20.1165414   0.7263078  30.1346135  21.0699177   0.6408241  30.1346779
  19.8057020  -0.0581368  30.5865622  48.7396479  19.2116153  10.1309061
  48.1256771  19.3196905  10.8572626  49.3065357  19.9813354  10.1799190
  19.5889858  75.5490060  38.2599211  19.0147547  75.1284611  38.8999438
  19.9633411  74.8231755  37.7606583  79.9550594  36.7680566  64.3627702
  79.8245729  37.6712924  64.0740314  79.1241420  36.5246600  64.7708911
  73.1188739  51.9366894  53.9215311  73.2261051  52.1546814  54.8473891
  72.5521625  52.6269004  53.5770365  14.3062818   4.8502702  17.7700067
  13.6124766   4.9735960  17.1221972  14.9235618   4.2520416  17.3489130
  22.5065998  74.7467083  45.8229637  23.3456949  74.7976416  46.2807369
  22.6435045  75.2429787  45.0159883  60.1127282  61.0745524  22.2783947
  60.5969200  61.8473863  22.5691152  59.6091256  60.8045434  23.0463219
  19.5783094  59.1352569   9.5545256  20.4754499  58.9163815   9.8064488
  19.0940622  59.1480743  10.3801000  31.9538808  10.3797221  25.3477216
  32.2610831   9.5996034  24.8859072  31.1477304  10.6249690  24.8936176
  20.4496694  11.3989460   5.3795213  19.7142446  10.7883453   5.4300082
  21.2162161  10.8693004   5.5988640  40.5924416   9.3695515  10.7849383
  40.5925798  10.2960753  11.0253227  41.4593172   9.0553200  11.0418618
  29.7104049  27.5315976  13.6318886  30.4693794  27.4001169  14.2001343
  29.9540329  27.1131158  12.8062069  62.7200929  59.5741080  30.1023436
  62.9370687  60.3069734  30.6785917  61.8097327  59.3657516  30.3122568
  59.9025072  47.1486953  55.9581539  59.0310754  46.8755380  55.6714055
  60.2438272  46.3945595  56.4387908  39.5657849  29.0681672   9.1873282
  39.8925233  29.2696214   8.3104646  40.2333689  29.4173717   9.7777683
  22.3082498  66.2949984  11.1378515  21.7972044  66.6060047  10.3906322
  22.1737198  65.3473102  11.1422372  78.5501922  62.4023304  54.3043169
  78.6971296  62.7720890  55.1749012  79.0223468  61.5697536  54.3148991
  71.9079161  10.4445660  11.8213356  71.8885183  10.3348684  12.7720308
  71.2230921   9.8588115  11.4986241  27.2180132   5.2286754  56.3528803
  26.5063337   5.8686481  56.3395324  27.3921923   5.0835310  57.2828403
  23.3984542  30.0908041   2.1818216  23.3423162  30.7396698   2.8832871
  23.4205008  30.6090593   1.3773611  60.6279945   6.0735196  38.8914013
  61.3316536   6.7191511  38.8261795  60.0220442   6.4436811  39.5333004
  47.4211730  59.1971097  59.5590058  47.8411306  59.5213661  58.7623098
  48.1421341  58.8548646  60.0875112  50.8372974  18.1716919   8.4056705
  50.9871721  18.7261641   9.1713929  51.6713858  17.7226627   8.2681608
  78.5775436  66.8573961  59.5016214  78.5768045  65.9629783  59.8425725
  79.1539777  67.3393140  60.0946763  55.6505823  12.2135115   8.2069731
  55.1691818  11.7420483   7.5271171  55.3953409  11.7834723   9.0231526
   0.4661125  33.5276055  33.9637661   1.2637085  33.0485535  33.7388587
  -0.1801640  32.8451395  34.1448712  15.3948545  20.9154105  11.7491305
  14.8456895  20.9012890  10.9652627  14.9812520  20.2886033  12.3426604
   3.4071453  27.9926828  52.4270126   2.6937111  28.4717837  52.0054635
   2.9721172  27.4300072  53.0676195  38.4015536  11.2916124  34.8127747
  38.2668948  12.0335841  34.2232156  37.7087021  11.3772297  35.4676461
  14.2863090  64.0320716  56.4225432  15.1485117  63.6266837  56.3303700
  14.2161854  64.2364440  57.3550382  49.4311857  55.3423357   6.6934425
  50.1314497  55.8086300   6.2369025  48.6341429  55.5875444   6.2235188
  67.8954554  21.9865727  21.2928843  67.5817442  21.6865468  20.4397702
  67.8621435  22.9416156  21.2379956  42.9676107  74.7993054  35.3682947
  42.1324781  75.2663576  35.3428078  43.2118563  74.7956775  36.2937999
  79.2774976  64.0108690  56.4137444  78.9305319  63.5009990  57.1457830
  78.7029279  64.7745642  56.3601556  77.7251924  65.7091412  32.1479603
  78.1977762  66.0325584  31.3809535  78.3119882  65.8863721  32.8831407
  52.0490980  24.5547485  16.4589858  51.5763044  25.3824949  16.3721907
  52.0534563  24.3789268  17.3998892  27.6502231  15.1055513  43.6550733
  27.1986154  15.0470291  42.8131363  27.5923017  16.0306011  43.8941499
  11.9225986  61.9620332  57.2018012  12.7493532  62.4443111  57.1910861
  11.2506826  62.6362667  57.1009365  16.2575817   3.9053252  10.5955958
  15.9870231   3.0601043  10.9542477  16.7572165   3.6832505   9.8099244
  44.2867517  27.7776003  25.9026098  44.9322367  27.0789790  25.7953286
  44.2344999  28.1898952  25.0403357  69.8406124  32.3724866  17.3441327
  69.4394875  32.3798847  16.4750648  69.1025591  32.4458838  17.9492116
  74.5701851  50.5904553  47.0495686  74.1263212  51.2709865  46.5435108
  73.9847864  50.4205677  47.7875933  29.6760774  31.1648560  33.2371783
  28.7408257  31.0739851  33.0547571  30.1066232  30.8597326  32.4385786
  58.0084467  19.4180429   6.4544332  57.2102547  18.9340734   6.6663092
  58.2271385  19.1414893   5.5645311  63.7310351  46.3438103  46.7914197
  63.2178940  46.9182530  47.3596915  64.3065585  45.8671096  47.3895499
  20.8816028  27.9329705  22.8307319  21.6469622  28.1961465  22.3196602
  20.9439826  28.4455705  23.6366987  32.0337252   8.4711824  50.3680929
  32.5897745   8.7740360  51.0859510  32.2295431   7.5374018  50.2909908
  24.5747042  48.6631727   1.4434753  24.1681170  48.0456734   0.8355165
  23.8668752  48.9176750   2.0354548  30.9822185  37.5367960  63.6926108
  31.1285789  36.7449762  64.2101368  31.8167408  38.0042332  63.7287968
  53.4650850   1.8411535  19.2993176  53.4998035   1.8880360  18.3438969
  54.0026951   2.5759056  19.5948637  24.6222166  63.9432346  43.3417988
  25.1200346  63.3377885  42.7923965  24.4530300  64.6963965  42.7757978
   4.9442679   9.2530596  26.2824488   4.1385156   9.6317840  25.9309340
   5.1140904   9.7511393  27.0820165  59.7123337   9.2975271   3.1147638
  60.3835726   9.3749392   3.7927583  59.4713259  10.2014303   2.9120192
  52.9062319  20.3825140  18.6549175  53.0737638  20.9752154  17.9222023
  51.9527864  20.3685021  18.7384748  60.8251953  24.2635059  15.5023456
  60.8775663  23.4372449  15.9827435  61.2478209  24.9018359  16.0769355
  39.0334892  12.7696574  64.1933107  38.7250161  13.4968328  64.7339535
  39.4905019  12.1930361  64.8055840  30.5635936  56.8655250  63.3108401
  30.7643612  56.8045363  64.2447592  30.3888996  57.7950606  63.1636153
  66.5421677  17.7931559   8.6251175  66.0182810  17.0028365   8.4940720
  66.9266653  17.9707026   7.7667075  35.5882219  21.2305532  43.7394187
  35.8147625  22.0964275  44.0787980  36.4096836  20.7399832  43.7671634
  28.8964492  39.1906618  64.3241960  28.7680965  39.0568932  65.2632718
  29.6594317  38.6546174  64.1079879   1.2571962  41.3711781  44.0416929
   0.8448560  41.6934261  43.2402155   2.0677955  40.9578416  43.7445184
  42.6025248  17.0399570  19.8697948  41.7373228  16.7232442  20.1293206
  43.1827641  16.7582774  20.5770493  23.9561657  70.6816991  25.7938051
  23.2808832  70.0875246  26.1211896  24.2029003  71.2066664  26.5552282
   4.8113007   3.0452842  17.2438943   5.5553097   3.0152950  16.6424131
   5.1894802   3.3201724  18.0791473  15.2578647  58.3936391  62.2277498
  15.3444488  57.4671302  62.4520615  16.1259325  58.7619934  62.3920923
  57.6585865  10.0768590  11.4239907  58.3577824  10.0098276  12.0742667
  57.9979372  10.6873381  10.7694781  56.0829401  51.6429186  40.1260900
  55.4269838  51.5583038  39.4341421  56.1505651  52.5855589  40.2780342
  65.3939533  73.1185102  30.2882195  65.6897879  73.9377975  29.8913717
  65.6148005  73.2079935  31.2152863  36.4475274  71.5162277  37.5432038
  36.2387276  70.7031441  38.0031276  35.5953622  71.8987274  37.3340678
  63.6476851  21.4547348  12.2716916  63.8674164  20.5230975  12.2695196
  64.4535971  21.8902493  12.5493038  48.5528660  55.7768583   9.4956845
  48.2816076  56.6937590   9.5397121  48.8645267  55.6621313   8.5979444
  54.3720198  27.7593541  25.4417205  53.5866356  27.6684332  24.9021530
  54.8538685  28.4840465  25.0431323  23.1640533  36.1701141  52.5220462
  24.0534834  36.0071932  52.2080394  22.5990633  35.8310447  51.8277475
  30.8551636   6.7576481  17.0440567  29.9532833   7.0783020  17.0390880
  30.7709160   5.8050610  17.0026863   8.8899477  62.0331726  62.5457293
   8.4259708  61.4536891  61.9414502   9.5221956  61.4644322  62.9850752
  51.8536282  44.4984865   4.1341975  52.0895433  45.4259491   4.1539428
  51.5729094  44.3036652   5.0283295  26.1546564  36.2844634  12.2889245
  26.8717074  35.6525731  12.3416972  26.3336253  36.9090748  12.9918194
  27.3670585  70.6335554  49.5996138  27.9691608  70.2460561  50.2348754
  26.5142973  70.2573023  49.8174605  10.2611965  51.9538546  38.1360292
   9.8246902  52.6259899  37.6126480  10.7413811  51.4271021  37.4971294
   8.3407648  58.4723983  58.6459473   8.5514791  58.8759599  57.8039440
   8.1870134  59.2117557  59.2341158  74.6299887  51.4222860  22.4166465
  73.7310505  51.0936546  22.4049878  75.1646662  50.6659269  22.1752524
  75.6574392  20.2207255  13.2863545  75.6793547  21.0548997  12.8174150
  75.1793289  20.4120421  14.0932262  57.3547081  22.7128731  55.7622787
  56.7216209  23.4027706  55.5636170  56.8201450  21.9330107  55.9115812
  39.5434288  17.2737108  59.1857639  40.0920681  17.6712881  59.8618975
  39.4234184  17.9667698  58.5365364  24.3847568  74.7209320  55.2399042
  23.4464367  74.6995244  55.4278746  24.4871385  75.4368601  54.6128484
  44.3632603  68.0142879  28.0214167  44.7830391  68.3111286  27.2140098
  43.8939333  67.2191429  27.7690244  29.9754882  50.1457167  25.5323863
  29.8803139  49.2704773  25.9080625  29.0783691  50.4680967  25.4459238
  66.1134672  57.7064753  27.1218276  65.9215546  57.5111008  28.0390143
  66.2532043  58.6532307  27.1027803  70.3654016  69.9645672  57.8208133
  69.6837534  69.3047223  57.6935723  70.1472582  70.3761086  58.6570427
  22.2744703  15.4212391  18.0260050  22.0448542  15.2237856  18.9340353
  21.7765570  16.2122631  17.8196239  32.3468542  46.1918211  25.9266376
  32.7930284  47.0096588  26.1464024  31.5687442  46.1861992  26.4840794
  36.7607498  56.3610983  18.5969472  36.8438148  56.3420963  17.6435483
  35.9410214  55.9001112  18.7751842  39.2080522  51.7091560   8.6285639
  38.8256717  51.7697477   9.5039761  38.4697866  51.4922714   8.0592138
   1.6427273  12.2217607  17.4265850   1.7053265  13.1588006  17.2414625
   1.5062279  12.1731412  18.3727539  53.4403328  26.5529238  57.3532280
  54.1120914  27.1387564  57.7021786  53.6980537  25.6835066  57.6596984
   3.4225853  52.8272614  45.2656385   4.3510826  52.9026816  45.4857310
   3.0560262  52.2780189  45.9585997   4.0065725  59.6927056  54.1894337
   4.2795952  59.8202357  53.2809040   3.6345632  60.5358014  54.4483301
  61.9294167   5.3326201   9.5685858  62.8558016   5.5649185   9.5047027
  61.7509460   4.8375478   8.7690341  43.6080650  10.2688299  53.9117166
  43.8800100  11.0903631  53.5026213  44.4101719   9.9161087  54.2969999
  61.9737864  32.2159004   8.1133920  61.3351679  31.5709853   8.4175020
  62.2334051  32.6875162   8.9048517  69.3131018  48.1217098  42.6510811
  68.6459732  47.5040102  42.9504490  70.0349808  47.5685358  42.3525476
  57.9757885  29.2495571  47.7475104  57.7821831  30.1527296  47.9985735
  58.0091194  29.2687307  46.7910835   1.9877870  57.3683021  63.5181591
   1.9620140  57.9574070  64.2721645   1.8772514  56.4945171  63.8930110
  73.8316107  59.1500711  17.5336206  73.0123711  59.6298552  17.4116039
  73.8251305  58.8958502  18.4564209  16.9296307   3.7755638  38.2596922
  16.8961853   3.4708729  39.1664863  16.0424465   3.6377221  37.9278255
  27.0104003  33.5243893  24.0743089  27.1190310  33.3284688  25.0049257
  27.6884651  33.0069661  23.6398745  14.5451359  25.0024210  62.8145109
  14.8555950  25.9056841  62.7515210  14.7355274  24.6233307  61.9564476
  36.4803556   7.3865972  63.6820306  37.0235638   6.6166149  63.5138547
  35.9584669   7.1487795  64.4483902  14.5365766   0.8386884  55.9959951
  14.0692810   0.0971280  55.6113472  13.8546995   1.3539921  56.4269665
  18.9442295  37.1251512  60.5337715  19.5509380  36.4320564  60.2734613
  19.2950672  37.9164863  60.1251888  52.2922134   6.8861568  29.8737383
  52.6632166   6.0064793  29.8047638  53.0268335   7.4711347  29.6883535
  58.6212111  36.0763216   7.1360976  59.2262411  35.7682490   6.4613670
  58.4668493  36.9954276   6.9178140  63.8306570  36.1823606  30.9417963
  64.2427588  36.3870358  30.1024437  64.3710470  35.4832149  31.3097692
  30.4990248   5.2980219  25.6088826  29.9006704   4.5928560  25.8557436
  30.0850872   6.0924564  25.9461734   9.0864332  56.6693899  33.5622951
   9.9978550  56.8806062  33.7646028   8.7075289  57.4985299  33.2704231
  42.7340368  13.3723007  44.8961636  42.2749714  12.8639923  45.5648300
  42.2792200  14.2144094  44.8812076  63.4247732  41.0953379  27.6775146
  64.3367147  41.1555815  27.3929834  63.4692049  40.6762981  28.5369682
  48.2427835  63.3270121   5.4758048  48.2638884  63.8056612   6.3044679
  47.7078533  63.8715363   4.8982430  18.8576034   7.0590292  62.4282768
  19.0004591   7.1703373  63.3681881  17.9060129   7.0162140  62.3340636
   5.6041077   6.0545812  50.2380249   6.1899475   6.0827289  50.9944853
   6.1725763   5.8238397  49.5032903  62.9047016  20.8706508  59.3257680
  62.4311355  20.0389658  59.3421528  62.2522262  21.5123068  59.0450778
  28.9595890  56.8853092   9.0983635  28.6816430  57.5656128   8.4850371
  29.8932958  57.0492315   9.2308474  77.6510347  75.1381454  58.0527285
  77.4380315  74.7040591  57.2266361  78.6067690  75.1108870  58.0981454
  65.4206082   5.5236698  30.4219580  65.6565829   4.7883583  29.8563981
  66.2148710   6.0560108  30.4666066  54.1861820  67.3729753  47.9425764
  53.5357237  67.8918982  48.4156990  53.6889839  66.6413116  47.5769377
  24.2237909  33.9211232  56.1608073  24.1676004  34.8728130  56.2466046
  24.8121889  33.6513931  56.8659773  73.8707447  28.9649153   3.1514642
  74.6176958  28.3944368   2.9702142  73.1403589  28.3638692   3.2981262
  62.2325134  30.6924319  26.0091972  61.2893057  30.5375385  25.9582424
  62.3438215  31.5939951  25.7074904  56.7457008  53.1426859  36.6432095
  56.7950296  53.9143705  37.2073865  57.2294474  52.4671793  37.1185136
  45.1485968  27.1111751  18.9857185  46.0847139  27.3108649  18.9923453
  44.8990917  27.1633530  18.0630827  39.1134453  21.4679146  31.0216022
  39.4168472  20.8438349  30.3622794  39.9047208  21.7135096  31.5009761
  42.8823566  36.2721825   1.5067986  42.1169806  36.4939642   0.9764725
  43.5924816  36.1728501   0.8726952  57.6440620  59.9694824  37.5076222
  57.7376127  60.7779598  38.0114555  58.4417534  59.9219990  36.9806790
  27.3962982  69.5939765  54.1866788  26.9049843  68.9013753  53.7449321
  28.2284458  69.1840777  54.4228002  34.1263294  65.7095194  16.8160963
  34.1694617  65.6365061  15.8626604  34.2233133  64.8103952  17.1297920
  30.0756860  47.1156454  14.7094238  29.8019099  46.3535261  15.2197695
  29.7084260  47.8637171  15.1803100  61.8138446  56.4956496  60.1593646
  62.6183189  56.5954575  60.6683740  61.3006462  57.2765288  60.3669378
  37.2717190  22.9243660  12.7607620  37.4309301  23.4299254  11.9637084
  38.1359625  22.8302479  13.1613326  71.4476490  54.9699306   6.4116520
  72.1164799  54.2872381   6.3584584  71.2285233  55.1621103   5.4999059
  50.2290262  55.3344557  50.8705422  50.2792729  54.3872843  50.7418045
  49.9006261  55.6723294  50.0373396  53.6422777  21.9141459  16.2208498
  54.5173502  21.7948127  16.5899551  53.2616138  22.6276827  16.7328930
  27.3257351  58.5732317   7.2313762  27.3163986  58.3216238   6.3078845
  27.8351045  59.3833399   7.2537643  21.8668833   0.7178141  20.4905796
  22.0164671   1.6466356  20.6670642  22.7435913   0.3522802  20.3722382
  31.0832031  70.7305584  60.4825803  30.3947361  70.9443078  61.1123079
  31.3184269  69.8246536  60.6831774  71.9312347  62.2464857  59.9736330
  71.3984550  62.9451546  60.3534177  72.2835315  62.6248870  59.1680696
  68.8088369  62.1994066  35.0929689  69.5835543  62.7421904  34.9465871
  68.9118147  61.8709230  35.9861231  59.4344378  41.4535379  23.0218530
  60.3007317  41.2178612  22.6898551  59.3845892  41.0334873  23.8805151
  56.0260153  54.6767378  25.3159356  56.7416716  54.6847105  25.9515500
  55.2930546  55.0865364  25.7753587  17.8284124  23.4665285  64.0167349
  17.6358179  23.8560806  63.1638649  18.3318905  22.6786123  63.8119648
  18.1092314   0.8852063  60.9272313  18.7823776   0.8919512  61.6077179
  18.2417492   1.7049490  60.4511106  68.4073700  64.3484483  29.7174236
  67.8834022  63.6542139  29.3177578  68.6601747  64.9098191  28.9844963
  58.3241558  68.5265255  30.9217572  58.9873266  69.2048931  30.7942748
  57.6555824  68.9441967  31.4647055  71.5942097  24.9799562  18.6105573
  71.0236835  24.8173976  19.3617594  71.0513258  25.4802990  18.0013251
  56.1065102  33.2653975  20.8950615  56.7014980  32.5194764  20.8187342
  56.5767574  33.8915110  21.4455891  45.7992125  38.8838959   1.6920997
  44.9162722  39.2402554   1.7903765  46.2711573  39.5483232   1.1900689
   7.0904167  61.5689978  44.5680114   6.7214926  61.6605983  45.4464981
   6.4641292  61.0152755  44.1017625  59.2573155  43.5886714  64.0211223
  58.3846940  43.3140919  64.3028487  59.2579950  43.4497485  63.0740574
   2.7046913  34.2782855  40.9024048   2.4727577  33.3654118  40.7318211
   2.2172398  34.7759485  40.2459335  49.0096382  30.0687300  64.9240762
  48.4424356  30.1204286  64.1547627  48.8539842  30.8891378  65.3919779
  52.3245621  49.3387508   2.2557773  52.5508165  50.1344538   2.7373359
  53.0956888  49.1563177   1.7188326  52.7709579  20.1080513  34.3077493
  52.5691938  20.9231734  34.7672033  52.7932024  19.4439423  34.9967313
  64.1873213   8.5570217  28.9266729  64.1299578   7.6409222  28.6552000
  63.3218547   8.7555386  29.2841506  20.2308090  71.5965113  60.8866373
  20.6184395  71.9338474  60.0790623  19.4261368  71.1625752  60.6030252
  68.7684740  58.5235772  39.7586128  67.8505720  58.2521233  39.7586033
  68.8454689  59.1078195  39.0043160  28.7215942  13.6374092   6.7136842
  28.9305824  12.8198707   7.1655536  28.3920330  14.2144060   7.4026674
  54.1503239  11.8365836  19.9509692  53.6687613  12.6629627  19.9131548
  54.4412327  11.7702985  20.8604789   4.9510235  43.6869860  12.1105909
   4.3589348  43.7771368  11.3639057   5.6604809  43.1312704  11.7879725
  26.9102425  29.1091943   8.1899625  27.4677509  29.8309612   7.8993183
  26.0492081  29.5076680   8.3167022   1.8738229  67.0090422  63.8803986
   2.4371488  66.6407904  64.5610482   2.2604711  67.8626928  63.6854206
  35.8388813  48.5276840  63.0081138  35.7367046  49.4741080  62.9077421
  35.2083786  48.1522009  62.3935261  71.3074211   4.4326149  53.1458387
  70.4301742   4.2809091  52.7941987  71.2253288   4.2492710  54.0817210
  51.3048519  41.0375607  50.8203324  51.5367902  41.9366309  51.0529479
  52.1452392  40.5861515  50.7415339   3.6890609  72.3993311  41.9721743
   3.0885561  73.1346593  42.0943114   3.1291826  71.6239128  42.0107791
  12.3269565  73.1499729   9.1368314  11.6826065  73.0380616   9.8357746
  12.0259102  73.9200649   8.6545870  71.4043140  21.4555788  28.3126307
  71.3999557  21.4105177  29.2687607  71.8369532  22.2859907  28.1139588
  62.5799084  23.2352829  17.6907933  62.4579573  22.6813388  18.4618354
  63.4668827  23.0364156  17.3908663  59.1258240  38.7932825  16.6855526
  59.9293089  39.2652535  16.9043708  58.9660883  39.0057874  15.7660103
  46.7893267  45.7210159  19.1160786  47.7026701  45.6613779  18.8359451
  46.6933727  46.6200876  19.4302309  41.6178179  19.6421731  16.5198720
  41.9838428  20.2385283  15.8667111  41.3180304  18.8871908  16.0135531
  69.5731006  13.9376484  58.5093143  68.8698981  14.5177112  58.8013091
  70.0297186  14.4368301  57.8321543   9.2713398  16.1567724  23.3684635
   8.3365673  15.9654510  23.4449029   9.6174950  16.0158658  24.2496848
  39.0888075  14.4828926  49.9064812  39.5041708  14.3360458  49.0566930
  38.9576200  15.4301296  49.9484584  30.5264759  58.2690859  20.5337477
  31.4051247  58.5309124  20.2586937  30.0313973  58.1975460  19.7176516
  34.3886161  46.3966179  30.6307530  33.6960459  46.3042307  29.9765015
  34.2461514  47.2640896  31.0094786  26.8405956  36.5625596  21.0872531
  27.7721542  36.6852641  20.9045672  26.7741817  36.6176891  22.0405531
  73.7255968  57.2270760  26.2416383  74.4476713  57.4645529  26.8234011
  73.4290613  58.0602846  25.8754942  42.4569130  68.6322641  45.8372211
  42.6057577  68.3647490  44.9302959  42.6542807  67.8504515  46.3530159
  59.5040035  26.6420531   9.7276205  60.4548454  26.5393829   9.7674960
  59.3149805  26.7630577   8.7971050  40.3846779   1.9334579  24.9953747
  41.1141911   1.5756346  24.4894004  40.1192036   1.2172295  25.5722356
  49.3988661   3.5318695  56.7181042  48.9165501   3.1203113  56.0010114
  48.7203316   3.9123665  57.2758183  14.9732060  39.4951916  11.4910734
  15.5686039  38.7683892  11.6740727  14.2019695  39.3140984  12.0283139
  45.5875731  66.3641357  32.8619337  45.3265810  67.0225573  32.2180438
  44.7696829  66.1093760  33.2889962  67.5920725  57.9026365  46.9028902
  67.8182697  57.8672886  45.9734726  67.1645927  58.7519407  47.0132208
   3.8398975  64.3073273   4.5415598   3.8957066  63.4374571   4.1460288
   4.5116085  64.8189735   4.0907258  49.6815681  53.2990789  19.2190123
  49.8900938  53.9080667  19.9274504  49.3540478  53.8561916  18.5129011
  25.5856409   1.9445587  14.5986211  25.5849257   2.8601671  14.3195319
  26.0678187   1.9465900  15.4255044  53.3108654  16.9501854   8.9679301
  53.3366528  15.9939552   8.9332372  54.0447655  17.1891857   9.5340568
  52.3618450   3.2882286  34.5825124  51.6260471   3.3696629  35.1893115
  52.0669975   2.6501204  33.9328051  35.6243042  12.7769981  26.5626880
  35.9830574  12.2131286  27.2479483  35.0888828  13.4154545  27.0337888
  67.7988338  46.4374399  17.4808669  68.3393192  46.9613838  16.8896079
  68.3044243  45.6368971  17.6213884  45.0069288  27.6585756  43.4822032
  45.8933452  27.9640613  43.6750266  45.1292614  26.7797313  43.1231829
  77.8237581  53.3760071  18.9327991  77.0951986  53.0901814  19.4839227
  77.4570704  54.0791321  18.3967173  32.4363569  10.0012289  42.5431511
  32.3058847  10.9380899  42.6897833  32.0941643   9.5850359  43.3343002
   1.4082855  54.8747730  46.7838049   0.9907097  55.6729603  46.4601326
   1.8534512  54.5102358  46.0188389  20.5895466   9.9792910  34.5128584
  20.2451271   9.3340164  33.8954234  19.8658413  10.1419771  35.1178479
  29.6095920  41.3768148  14.6335518  29.9555707  41.3771057  13.7410665
  29.2106223  42.2408438  14.7360480   6.5247005  15.9489691  23.0737233
   5.6749481  15.7763517  23.4791350   6.4244789  16.8082404  22.6640368
   6.0883564  51.8243074  13.4715438   5.3571743  51.6910791  14.0747488
   6.7203373  52.3408031  13.9716077  37.1936070  26.6842022   2.0354632
  37.6184784  26.6367331   1.1790398  36.5495859  25.9761706   2.0229081
  67.5771622   4.6591793  58.8449678  67.3774532   4.7062240  59.7799197
  67.1263317   3.8705812  58.5431400  56.4469481  49.1666842  12.5597572
  55.8547783  49.5648909  11.9217944  57.0251179  49.8807621  12.8281653
  33.2145603  67.2749648  61.9675028  33.5472877  66.3902459  61.8165126
  32.6033218  67.4272213  61.2467897  64.6951934   1.9405390  25.9358811
  64.5362183   1.8527103  24.9960709  65.6104323   1.6840578  26.0489750
  48.4850264  54.2961884  11.7027485  48.4316778  54.8652220  10.9349036
  49.4088888  54.0514421  11.7557645  42.3402166  44.7046995   9.2030346
  43.0850506  44.6403885   9.8007965  41.6533566  45.1249504   9.7205693
  12.2768123  64.4676957  54.5695087  13.1936414  64.3280182  54.8064610
  11.8623169  64.7633681  55.3800645  60.7888269  68.2751703  20.3356671
  61.4272118  68.6248827  20.9572744  61.3151598  67.9783010  19.5933235
  16.1835947   4.7618652   2.4131702  15.8099165   4.4629217   3.2421643
  15.6116285   4.3867804   1.7435417  62.9787445  57.7527380  12.9665411
  62.5529385  57.1335077  13.5593939  63.7446785  57.2818661  12.6381242
   0.6528420  61.0278749  16.9273329   1.4890713  61.1480045  16.4773238
   0.0002188  61.0397053  16.2272060  62.9251385  48.3936119   6.4458323
  62.3912477  49.0301180   5.9703821  62.2897720  47.8344774   6.8929517
   9.9809689  47.8373671  19.2810714   9.1259045  47.6568651  19.6716142
   9.9119705  47.5010538  18.3875585  13.2220630  16.4472566  63.9674586
  12.3663048  16.8232284  63.7611762  13.0212978  15.6101213  64.3859425
   1.1648983  71.8540049  29.1038442   0.7515568  72.4768782  28.5060048
   0.4921860  71.1917973  29.2624950  72.3196888  64.9655676  50.1066208
  72.7039146  65.7175303  50.5573511  73.0005121  64.2934990  50.1388359
  56.4097568   7.7898289  22.2690320  56.3499876   8.5602451  21.7041206
  55.9044429   8.0239082  23.0475569  21.1306232  73.8702059   4.3946832
  21.8184036  74.0621614   5.0321341  20.7035297  74.7131252   4.2420137
  70.3290892  73.5953474  24.5356202  70.0348091  73.3879566  23.6487031
  70.8667040  74.3805170  24.4321346  72.8676319  69.5184517  16.1290944
  72.5885725  69.5773029  15.2153671  73.7900734  69.7736406  16.1147201
  33.8708401  69.8160458  37.0838928  33.5786772  69.3834019  36.2815881
  33.6986732  70.7451868  36.9313002  75.8839560  66.9416237  11.2533414
  75.5666351  67.6551008  11.8069565  76.2902260  67.3807716  10.5061305
  71.3052221   2.8229309  17.2514617  71.1852165   3.0910088  18.1624854
  70.6284376   3.2992388  16.7705023  67.0377111   8.3924055  11.0922682
  66.9682312   7.5427097  11.5274942  66.3666058   8.9315057  11.5108597
  32.1745876  22.6314531  55.9976163  31.3479618  22.9743181  55.6579628
  32.8485683  23.1291853  55.5347499  67.0525980  16.0002959  20.8139348
  66.2476254  15.5129051  20.9891462  66.8814421  16.8770111  21.1578941
  14.3912449  14.1886593  14.8244667  13.8774338  13.4040619  14.6330607
  14.1518631  14.8062111  14.1334069  68.0376768  39.3943524  23.0132723
  68.3180809  39.4838309  23.9240956  67.8037262  38.4704518  22.9243541
  69.5923805  67.3714781  32.9683828  70.4114914  67.0201778  33.3174896
  69.7465611  67.4478483  32.0267749  63.2679844  31.8964672  28.5359216
  63.1440163  31.3393855  29.3043804  63.1004333  31.3184786  27.7915525
   5.0010069  32.1179685  43.2497784   4.2770775  31.7809007  43.7775490
   4.6066005  32.8060231  42.7138182   5.7499389  25.2864204  63.1783168
   5.4232434  25.6127487  62.3398587   5.7584027  26.0556970  63.7478539
  30.8952469   0.3776586  22.5742984  31.2068314   1.0258625  21.9426513
  31.6680950   0.1604819  23.0956197  59.2285490  53.5912800   9.2546940
  58.5636950  53.7019157   8.5750186  58.7502813  53.6970901  10.0770664
  74.8009872  10.2552831   4.8936093  75.4844618   9.9896228   5.5088484
  74.9735308  11.1824131   4.7296277  78.1439734  52.3373652   6.0340947
  77.9796696  51.5966702   6.6177100  78.3609581  53.0614519   6.6213298
  49.2532730  52.7110624  27.2832751  50.0670767  52.2259712  27.4198222
  48.5814142  52.1751928  27.7047896  37.4498558  69.8514271  14.4634974
  36.6855001  69.5473766  13.9740634  37.8718042  70.4827690  13.8807487
   4.0254120  15.1664339  51.1612758   4.8962335  15.5500160  51.0575005
   3.8032464  15.3214918  52.0793339   5.9793610  17.8164864   5.8269650
   5.6374973  18.5165203   5.2708066   5.2223248  17.2569299   6.0002226
  58.1684793  69.2165169  53.2548055  58.9065756  68.8940296  52.7376482
  58.4535898  70.0740871  53.5702666  78.8304043  33.1072235  11.2373447
  78.2007980  32.4118757  11.0467696  78.5925913  33.8160706  10.6396735
  58.8661088  48.6002252  60.6081143  58.6439074  49.3388459  61.1749461
  58.8268818  48.9585349  59.7213748  76.7926836  34.6278429  58.9628458
  77.7354527  34.4667959  58.9243412  76.4922571  34.1135502  59.7121620
  62.4407721  60.7089424  52.8534603  63.0013943  61.2704706  52.3180914
  62.5951624  61.0025644  53.7513351  26.2757057  49.9067259  23.1023455
  25.7390446  49.3572569  22.5311089  27.1719879  49.6074581  22.9495263
  70.1243544  43.1053209   2.3314494  70.0145388  43.3466959   1.4117151
  70.6687069  42.3182964   2.3091756  64.0430593  54.5026064   9.5062655
  64.6364832  55.2428484   9.3793029  63.9249754  54.1371775   8.6294824
   0.1750320  48.7379074  21.1662483   0.6283421  49.4343710  21.6413116
  -0.6680208  48.6536312  21.6116571   0.6860584  67.9819870  23.7855268
   1.6291374  67.9428196  23.6264992   0.6070847  68.3340645  24.6721148
  19.9451021  32.4524055  59.0201083  20.1291422  32.3777948  59.9564811
  18.9897350  32.4731909  58.9646992  40.3217735   7.2223068  17.1678913
  39.6042004   7.6276756  17.6547110  40.7559815   7.9533459  16.7282557
   5.8317894  56.7298603  19.3298006   5.0081772  56.3085222  19.5754802
   6.0389561  57.3005390  20.0698304  75.4793692  29.6270180  22.4280334
  74.5379829  29.7296238  22.2883892  75.8612299  29.7064805  21.5539050
  64.0013742  49.3711996  24.4681001  63.2633972  49.4161892  25.0760460
  63.9171791  48.5131502  24.0522909  59.5150709  38.2544541  23.1100249
  59.4597292  38.3706379  22.1615148  60.4251623  38.0033565  23.2678771
  74.7951599   5.7280708   0.3401417  74.4388386   5.8656956   1.2178249
  75.6434294   6.1713291   0.3538045  68.4656429  32.6148653   3.8618261
  68.9971638  33.4097266   3.8180852  68.6813545  32.1380854   3.0603391
  76.9878098   6.5819336  38.9977050  76.4568707   7.3780228  38.9735579
  76.7046448   6.0818745  38.2322049  49.2302608  37.5659370   1.2199985
  50.0277710  37.4797893   0.6977010  48.9693928  38.4802866   1.1098038
  53.5736084  49.0824270  20.4428744  54.3676662  48.7474108  20.0263762
  53.8243628  49.9427176  20.7794023  61.2722635  67.6728201  41.8901682
  61.0644102  67.6910162  42.8243494  61.5716267  68.5606003  41.6940689
  16.2514010   6.2508560  47.4890900  16.9448795   6.9059349  47.4103737
  16.7159310   5.4264427  47.6332569  61.7064762  26.6144300  47.6413822
  62.1901655  27.4164677  47.4438667  62.3273945  26.0745764  48.1305122
  44.1985273  37.4471569   8.7699443  45.0434446  37.2712183   8.3559495
  43.5516024  37.1778584   8.1178701  14.1403301  74.5145759  60.5474487
  14.3018396  73.5756764  60.4546389  14.1175373  74.6613655  61.4930519
  48.7854671  56.7129898  31.9315410  48.1916189  57.4116135  31.6567779
  49.1560364  57.0245743  32.7572680   8.4760136  45.7644081   9.6580559
   7.5958199  45.9005737   9.3074310   9.0137905  45.5763292   8.8888633
  27.7506661  71.8012762  24.8814631  28.2903337  71.6367722  25.6547236
  27.0450115  71.1572218  24.9404430   5.3915873   2.1975971  27.5513721
   5.5577841   3.0359865  27.1204281   4.9814453   1.6580130  26.8754506
  76.2708235  62.2642183  19.9368262  76.6182470  61.4696836  20.3420997
  75.8278322  61.9558382  19.1463220  57.1741915  32.3057365   2.9121360
  57.7780771  31.5906453   2.7116424  56.3300419  32.0087194   2.5723994
  54.4903091  31.1932550  54.0389618  54.6329597  31.2940918  54.9800846
  55.2085403  31.6797386  53.6343607  25.4075626  23.0450092  53.6531314
  24.7135834  23.0758701  52.9945978  25.0514034  22.4949108  54.3508228
  62.2749662  57.3891306  27.7352953  62.8382444  58.0144835  27.2793579
  62.8827667  56.7714262  28.1417990  58.6196566  66.7390871  14.3863392
  57.7942038  67.2017956  14.2422342  58.5088396  65.9042358  13.9313948
  73.1415094  66.2107119  63.3358022  73.7308944  65.8903823  62.6529804
  72.8391041  65.4195318  63.7816931  60.7033924   7.9042993  57.7310267
  60.1319984   7.9482923  58.4977141  60.2677826   7.2875391  57.1427408
  13.1705796  29.1233578  14.2775181  13.0464064  28.5810271  15.0564173
  13.9661347  28.7799063  13.8708666  72.7714157  13.8544822   6.4727825
  72.9729080  12.9984379   6.8506962  72.8648758  14.4665539   7.2027600
  41.5094414  10.9866406  46.9010544  40.8619728  10.4088760  47.3050308
  41.4746895  11.7878223  47.4236774  69.0079641  48.3591509  16.1281598
  68.6117077  48.8714647  15.4233587  69.8342085  48.0452347  15.7607245
  61.4326096  34.0477967  13.8011479  62.3221970  33.7427759  13.9795649
  61.0339880  33.3403778  13.2943070  60.9150505  44.6747065  12.9802120
  61.2789583  45.5588675  12.9348004  60.7559776  44.5287752  13.9127529
  10.1433891  70.4207563  32.6188993   9.9002880  69.9223661  33.3991194
  10.5676121  69.7801447  32.0480323  15.9044304  13.0783630   1.3007341
  15.6264296  12.3134686   1.8046084  16.0136976  13.7689949   1.9544262
  44.9845716   1.2570025  24.2887545  44.9137922   0.4932667  24.8614073
  45.9024426   1.2686897  24.0174437   0.6623501  65.4436207  19.0987456
   0.0369495  65.6293774  19.7991717   0.4303879  64.5652580  18.7972522
  27.5667579  73.1730256  50.3665718  27.4453838  72.7996430  51.2395474
  27.4328144  72.4363551  49.7702452  79.1100597  22.3873472  10.1845527
  79.0109348  22.9576373  10.9469008  78.8928461  21.5135026  10.5092764
   7.4639839  50.5259275   6.1902052   7.4634022  49.5816422   6.3469023
   7.3954624  50.9135437   7.0627236  14.7886729  57.9580784   3.6605778
  14.1163814  57.9819965   4.3415216  14.3989444  58.4269142   2.9226527
  25.7668547  17.4044786  61.7301702  26.6299156  17.3857103  62.1436974
  25.2361492  17.9525648  62.3082596  74.8442841  61.7765617  31.6004109
  75.1368141  61.7841387  30.6890392  74.7739935  62.7013683  31.8370938
   3.2161182  25.5247688   1.9228995   3.2656044  26.4242935   1.5994164
   4.0998405  25.1776171   1.8014807  53.0589962  57.9719114  39.2492700
  52.2550488  57.8518391  38.7438107  53.7091732  58.2477522  38.6031938
   5.1053185  71.4688492  27.6655340   4.7586006  71.3899040  26.7768359
   5.9812492  71.0860968  27.6157713   4.0577454  51.8771696  10.4651499
   4.7328609  51.3759136  10.0077784   3.5058922  51.2135839  10.8790851
  59.6030664  33.5561013  20.3439689  59.0551090  34.3260598  20.4960799
  59.0644217  32.9827309  19.7986794  48.7271742   3.9821182  46.7089340
  49.5531610   4.2012773  47.1401474  48.1470636   3.7176071  47.4228951
  62.1926025  28.4740148  62.9729661  61.9671539  29.3768535  62.7487138
  63.1283287  28.4065519  62.7829684   3.9415398  14.6192432  43.2416058
   3.7592688  15.5273987  43.4829903   3.1986895  14.3629814  42.6950359
  78.2031775  45.4210472  14.0393174  79.1467524  45.5429125  13.9341855
  77.9790878  45.9407949  14.8112464  18.3117652  74.8518515  44.3209410
  18.6792123  75.3504276  45.0507593  19.0181649  74.8154306  43.6760330
  60.8355999  56.7753983  39.4318175  61.4250422  57.5118303  39.2691731
  60.0470781  57.1760464  39.7978044  65.4463387  65.0415993   0.6274983
  66.0275745  65.7634735   0.3881333  65.0426865  64.7751284  -0.1985092
  56.9190836  54.6070671   7.8731334  56.7209339  54.2469645   7.0086706
  56.1728859  54.3519449   8.4156549  38.1130508  15.5125891  56.9602755
  37.4095777  14.8667942  57.0259026  37.9577259  16.1110483  57.6909956
   7.7742714  33.0322862   9.4520700   7.1283001  32.4199653   9.0999126
   8.6191410  32.6236510   9.2638254  28.6546936   3.7243868  60.4178429
  28.5165539   3.6778856  59.4718075  28.6611405   4.6614195  60.6131792
  49.5881462  64.3689060   0.2136851  48.6355686  64.4614983   0.1977282
  49.8718405  64.9351835   0.9313770  70.4498295  31.0082708  44.9700901
  70.3295139  30.7196079  45.8747610  70.2047733  30.2486740  44.4417068
  77.6225042  34.9685216   9.5365518  77.9961538  35.8405900   9.6635056
  76.6961241  35.0707841   9.7547114  46.5679598  56.9105625  18.8256001
  47.3293734  57.1805143  19.3390214  46.8888283  56.1915636  18.2812500
  71.2920376  15.4254223  37.6831698  72.0645090  15.9596420  37.8679132
  70.9669920  15.1679398  38.5458851  76.9623848   8.3545948  16.0125995
  77.1730372   7.5184895  15.5969167  77.1768471   8.2236267  16.9362271
  77.0033884  58.1355333  34.3752337  76.0523605  58.2400131  34.4045615
  77.1436262  57.1928310  34.4639444   3.7346486  17.0329080  37.8081295
   4.2711762  17.3154960  38.5487482   4.1194347  16.1991392  37.5379512
  37.5854639  13.7202965  45.9894869  37.1969894  12.9981266  46.4832374
  36.8425897  14.1422449  45.5578276  55.4553413  52.4718332  34.4055867
  56.0233068  52.8718424  35.0640988  55.9488249  51.7138672  34.0922284
  32.2777275   8.4202944  60.6611612  32.7166036   7.8147445  61.2585947
  32.1927599   7.9303633  59.8432484  43.7929296   8.3998126  10.6013465
  43.2590580   7.7021784  10.2211869  44.5897818   8.4076023  10.0710678
  58.4993029  37.2243404  25.5329657  58.8811779  37.6209497  24.7499537
  57.5544405  37.2639179  25.3849983  54.2078733  38.2438564   1.3143834
  54.5264244  38.1621933   0.4154452  53.7127018  39.0630054   1.3195348
  62.0233063  12.6651607  50.1468000  61.4897636  12.8098999  50.9282228
  61.5722088  11.9649921  49.6750983  62.1271420  31.7524672   2.6514736
  61.9851446  31.4184761   1.7657426  62.9624939  32.2171092   2.6011828
  71.5358257  66.3340712  11.9823337  72.1646404  66.3026476  11.2613392
  71.9587612  65.8482027  12.6903510  26.0176132  27.9833494  55.0184056
  26.9618080  27.9212747  54.8739514  25.9085224  27.8324686  55.9573248
  57.6338100  49.3934917   3.1140220  57.6140165  48.4996176   2.7722284
  56.8806601  49.8221064   2.7074590   4.3098206  63.4162188  48.8474035
   4.6908230  63.2642317  47.9825544   4.6247238  64.2845201  49.0986300
  26.4279894   8.3552490  62.9992100  26.1850981   8.1109987  62.1061384
  26.1258129   9.2588506  63.0909748  79.1310211   5.0273109  17.0899272
  79.2803856   5.3515984  16.2018049  79.9159523   5.2840973  17.5738430
  30.6654270  71.8344531  49.3746552  31.0945232  72.6827249  49.4866666
  30.2127559  71.6835961  50.2044496  16.9948143  72.0999908  16.1111307
  17.6460976  71.7199135  15.5215490  16.3420815  72.4883366  15.5285895
  79.0005779  49.2699957  14.2326760  79.1783094  48.7434101  13.4533489
  79.8575497  49.6059656  14.4952798  18.2649508   4.2259384  47.7349091
  18.7369290   5.0225426  47.9775906  18.7042513   3.9195419  46.9415808
  62.0249128  67.9410410  62.9805660  62.8765535  67.6459312  62.6583052
  62.1115208  68.8917637  63.0502367  36.9815197   8.7920738  16.6061664
  37.5197544   8.8284184  17.3968720  37.6100292   8.8434196  15.8860409
  29.8010578   5.9898640  29.9867201  30.4321613   5.3203274  29.7227812
  29.5174446   5.7205463  30.8603716  52.2092095   9.9330498  53.4229469
  51.5156880   9.6694733  52.8181505  51.8592587   9.7320438  54.2909098
  59.6399403  48.2629681  36.1323166  59.4892359  48.1964636  37.0752358
  60.2795410  47.5764561  35.9429836  50.0840954  33.5124813  63.2323007
  49.2712597  33.7164579  62.7697851  50.7565359  34.0078531  62.7646895
   9.7593250   9.0450359  29.0566278   9.8739472   8.4816910  28.2912946
   9.8229304   8.4500099  29.8037028   1.7771095  44.4891405  36.8168354
   1.7468399  45.0221443  36.0223389   2.5975842  44.0011358  36.7467475
  25.3671098  54.3989658  18.4660244  24.6476746  54.5115471  17.8447604
  24.9529147  54.0359783  19.2489147   5.1839550  39.3363914  56.7542383
   6.0046537  39.6494353  57.1346232   5.3664072  39.2641068  55.8173719
   2.1603496  33.6753378  43.5537812   2.1598585  33.5307965  42.6075575
   1.9549759  34.6048382  43.6541912  54.1476917  28.8313341  11.7274368
  54.2543793  29.7824883  11.7150450  54.0276909  28.6158085  12.6523054
  69.9049766  32.6795987  55.7224104  69.5207699  33.4085384  55.2353188
  69.1747387  32.3136881  56.2215003  49.1143847  18.6835754  16.2046337
  48.7341261  19.4647884  16.6063082  49.4328308  18.9829659  15.3530538
  78.5591268  46.3147497   4.7267169  78.6841345  46.4424515   3.7863469
  79.3236939  45.8097506   5.0035727  70.2876425  29.5384502  32.4427485
  69.9205494  28.7350583  32.0739126  69.6055365  29.8664713  33.0287194
  22.6196054  59.8883926  15.5674696  21.6749100  59.8712622  15.7207143
  22.8958992  58.9780187  15.6728888  29.5396042  28.4431148  48.5198593
  30.1605606  28.5205603  47.7955341  29.5021486  27.5045252  48.7039137
  61.4376453  75.0395348  17.4105847  61.4540104  74.1362458  17.7268648
  60.5773929  75.3688841  17.6708424  30.0021386   5.1003188  10.6423664
  30.7950115   5.0548148  10.1080322  29.3372822   4.6476632  10.1234245
  63.5740579  52.1690807  55.7108286  64.2841591  52.8045068  55.6201413
  63.3833946  51.8933925  54.8142382  59.7565031  14.1001308  10.9916031
  59.4268227  13.2330883  10.7554305  58.9694023  14.6170485  11.1633599
  73.1742096  67.9676294  23.1216693  73.4766293  67.4792194  22.3560119
  72.3974371  67.4927473  23.4172106   2.6545457  52.7080606  22.3668623
   3.1516341  53.5177492  22.2505069   1.9653348  52.9376101  22.9901814
  61.0754871   1.8002269  24.4240499  60.2068996   2.1851459  24.3073153
  60.9060574   0.8732376  24.5920277  55.5617435  63.8662061  55.5926665
  55.7223709  63.9598474  54.6536991  54.6079452  63.8539371  55.6724366
   3.7006611   9.6618110   6.0746777   3.7614960  10.4590774   5.5484658
   3.7901634   9.9639738   6.9785136  46.9080019  58.1682110   0.7168977
  46.5229321  57.9087782  -0.1201492  46.9486952  57.3570633   1.2234731
   7.4440582  26.4594803  50.7947919   8.2590492  26.6357014  51.2648627
   7.5697334  26.8653152  49.9370429  70.0231457  41.8309212  24.4951034
  69.5611668  42.6624155  24.3882585  70.6767082  42.0053434  25.1723552
  76.1876024  37.1106053  62.8589889  75.2713550  36.9105450  62.6674118
  76.3405813  36.7284289  63.7231478  75.9814371  41.2546820  54.6093783
  76.4537777  41.0764367  53.7961408  76.0650505  40.4473642  55.1168021
  55.3895573   5.8306680  31.3115975  55.6937794   6.6583191  30.9392068
  55.6995300   5.8471285  32.2170660   7.2580393  68.9584241  54.8845705
   8.1581028  69.2795071  54.8295364   6.7550428  69.7086940  55.2013072
   0.9377998  29.3969631  35.4735780   1.1542362  29.3580294  36.4051747
   0.2430862  30.0529575  35.4163003  56.5481043  41.2484169  10.1303530
  57.2069740  40.5705500  10.2807617  55.7118845  40.7856846  10.1837432
  24.0634274   6.4762634  34.8170614  23.2723475   6.6486520  35.3276539
  24.5806503   5.8885777  35.3678226  68.2655109  73.5378728  39.9438855
  68.2572998  72.6138267  40.1934930  67.4840511  73.6465153  39.4018981
  71.5954984  56.8480561  16.4034673  71.3493122  56.8616149  17.3283645
  71.2074817  57.6443157  16.0406372  28.6198524  35.5850815  34.4315505
  27.9526714  36.2702822  34.4716549  29.2885069  35.9359907  33.8433385
  33.3843712   4.7030197  63.5061239  32.5240950   4.6096502  63.0969375
  33.4610227   3.9402519  64.0793114  33.2695059  18.0691419  13.9635250
  34.0786890  18.5801922  13.9803383  33.4432367  17.3660408  13.3376667
  38.4119943  18.2239185  62.2445836  39.1211513  17.6040922  62.4153027
  37.6613478  17.8653847  62.7180916   2.0993891  32.4255538   7.9635745
   1.8699171  32.8456950   7.1346867   1.4424717  31.7381001   8.0735731
  73.0562128  18.9781556  38.8670847  73.4833540  18.2398686  38.4326717
  72.6886762  18.6047027  39.6681329  78.6589683  66.2796840  37.5471374
  78.6229099  66.6156230  38.4427234  78.3632244  67.0109687  37.0049307
  71.9483579  45.0702939  36.8226239  72.3412813  44.2840156  37.2015831
  71.1124195  45.1642606  37.2793576  28.7054737  61.4846144  63.6340311
  28.9639290  62.2750864  63.1601214  27.7711208  61.6026554  63.8051253
  27.4466896  54.7394705  13.5138559  27.6182365  55.5067301  14.0598583
  27.5291824  55.0610971  12.6160896  58.3683920  37.2198653  20.2214050
  57.6464176  37.8156090  20.0212216  58.4429359  36.6645837  19.4453013
  56.6138458  40.3550863   1.0213620  56.4959764  40.9302330   0.2653567
  55.7244778  40.1106787   1.2773372  34.8304868  12.4094737   4.3717983
  35.0467181  12.2883081   5.2963495  34.6735620  13.3496070   4.2837375
  46.1846733  34.9529696   3.9670232  47.0515585  34.7392130   3.6219871
  46.2349701  34.7293544   4.8963773  26.8492273  56.5684198  17.7635384
  26.4132646  57.3536014  18.0946827  26.4583210  55.8497881  18.2605219
  36.9973660  14.4637883  19.4737935  37.4909353  13.8215637  18.9637232
  36.8758297  14.0490365  20.3278685  65.1026583  33.1668806  18.0661452
  65.0106287  33.3164382  19.0070987  65.1571703  34.0446639  17.6883137
  59.3242121  22.3478222  20.0063014  59.9706745  22.1588492  19.3261528
  58.5654306  22.6833963  19.5289361  14.9308403  71.8562732  24.2904636
  15.4209192  71.1495242  24.7106525  14.5454271  72.3455462  25.0173065
  49.7825384  17.8743601  13.4445441  50.2437735  18.4685791  12.8526008
  49.1702652  17.4019086  12.8805017  52.5624040  23.4901892  52.9985520
  52.3558859  23.3362852  52.0766541  53.3479837  22.9672228  53.1585619
  56.4316463   0.7446553  19.2556190  56.1765909   0.8085054  18.3352375
  57.1057606   0.0652655  19.2707717  40.1192522   4.0050781  28.5364056
  40.2474403   3.6951789  29.4329333  40.9948206   4.2563766  28.2423592
   3.2300909  41.0082919  60.8766365   2.6630457  41.7750702  60.7945373
   4.0979202  41.3241256  60.6249344  55.3138876  18.3938944   6.4215374
  55.0704145  19.2582500   6.0901159  54.6232367  17.8122807   6.1038065
  12.3145921  39.8228673  52.6848182  12.0373733  38.9118751  52.7821454
  12.8488500  39.9947897  53.4602186  19.4155271  64.7980079  40.7276889
  19.9845321  64.0744648  40.9902713  19.6706112  64.9878106  39.8248383
  18.2709558  64.3826208  49.8178956  18.3220966  65.2904424  50.1170227
  19.1835172  64.1048822  49.7383532   9.6120746  59.6225939  48.1446144
  10.4330595  60.0040374  47.8336164   9.3760927  58.9822373  47.4734315
  64.9340153  17.1988070  23.7714481  65.3540897  17.4940562  22.9636145
  64.6669340  18.0058968  24.2113400  58.3623136  51.4357302  37.8984472
  59.1478409  51.9744119  37.8035924  58.5582865  50.8536360  38.6326095
  64.3371094  35.6178071  54.0210792  63.7988056  36.3588632  54.2991003
  65.2342976  35.9503772  54.0471467  44.6422005  30.0585008  10.0202227
  44.4075727  30.9461498  10.2908885  45.0083542  29.6567583  10.8081114
  72.2586454  53.2686028  48.5877904  72.5067772  52.3441241  48.5889956
  71.6138710  53.3444521  49.2911729  12.0024879  23.3930895  64.7499367
  11.6469438  24.2216000  65.0714795  12.9513796  23.5181782  64.7638551
   3.9032324  50.5728874  61.1079186   4.0020950  50.3584108  60.1803097
   4.7175224  50.2722344  61.5113711  18.6750352  20.4481220  20.8458304
  17.7771676  20.7325411  20.6750345  18.5787487  19.6512663  21.3673496
  65.8848047  53.3702183  25.9361768  66.4001179  54.1608858  25.7764030
  64.9836540  53.6833620  26.0142899  34.5065141  33.6639094  32.7216792
  33.7092066  33.3798265  33.1687021  34.8268819  34.3975401  33.2464480
  78.8147736  19.6976650  29.6444583  78.1713915  19.5424342  30.3359747
  79.4973946  19.0453100  29.8015928  28.4750247  19.5631814  15.4572046
  29.4208908  19.4567299  15.3560245  28.3220935  19.4647574  16.3969684
  38.6516670   7.6120029  56.7694589  38.5343889   7.5515590  57.7175221
  39.5266727   7.2567735  56.6132298  38.3087587  41.6929865   2.8137475
  39.2576098  41.7848969   2.9001680  37.9595590  42.0265150   3.6402163
  16.3070019  73.3221779  31.8834993  15.9803732  73.7452683  31.0894319
  15.9539421  72.4333534  31.8438622   2.3601015  38.4483236  49.8989650
   2.7499540  39.0359952  50.5461821   2.6690109  37.5776052  50.1492795
  25.4234079  64.2253267  15.8972657  25.6161455  63.8904726  16.7730272
  24.4964603  64.0273832  15.7637966  71.5315008  32.4686456  13.8956714
  72.1464396  32.7148676  14.5866537  71.9924784  31.7970848  13.3929384
  17.8191245  24.6681499  15.2754641  17.5858307  23.7433910  15.1940548
  18.5981143  24.6705770  15.8317029  73.0835581  32.7329540  16.2944829
  73.4235477  33.4664989  16.8068802  72.9129982  32.0479226  16.9409144
  70.8967686  19.9638665  60.2738190  70.6764126  20.8036685  59.8708200
  70.4243040  19.3160284  59.7510242  63.3641958  21.3068438   0.8727802
  63.3359957  20.3603458   0.7328509  62.6569939  21.4781952   1.4946638
   1.9408936  28.3709288  10.2152109   2.7496094  28.2063675   9.7303140
   1.4426941  28.9661598   9.6551001  34.4465256   8.6824059  14.3725765
  34.6416283   8.3114755  15.2331448  33.4909749   8.6705214  14.3176842
  24.9777181  51.9111202  62.4865272  24.4390400  51.4915440  61.8156946
  25.0510223  51.2551162  63.1797203  26.5733770  61.4454853  15.7999229
  26.5356020  62.3767065  15.5816746  26.5392498  60.9995638  14.9536252
   8.0315816   0.3636992   8.0863822   8.4277713   1.1932611   7.8197509
   8.3257639   0.2367447   8.9883643  27.7859354  47.2045469  13.1633496
  28.4880900  47.4239922  13.7757671  28.1684160  46.5422153  12.5878000
  13.0703873  43.5577250  14.1383052  12.7037376  44.4050169  14.3910837
  13.0568165  43.0409336  14.9438953  54.8017645  29.9777532  19.6484673
  54.5560360  29.2624164  20.2351046  55.6955576  30.2029490  19.9066496
  28.8077784  35.7308435   0.9935703  27.8854752  35.7474566   1.2491383
  28.9569402  36.5808868   0.5795535  45.0674559  57.4166260  56.9806257
  44.5044781  56.6427097  56.9621381  45.8919491  57.1223376  56.5935388
  11.3490255  52.1706459  58.9989486  11.7258127  52.4773428  59.8236903
  11.7288645  51.3014517  58.8706651  20.6910662  73.4490106   9.0719497
  19.8254207  73.2530521   8.7134874  21.1489586  72.6084616   9.0652633
  24.7742180  70.8301323  12.8963268  24.7608189  70.3482931  12.0693541
  24.4686941  71.7078274  12.6671124  68.4632111  42.3094273  12.4407244
  69.0074301  42.2463274  11.6558194  67.6447296  42.6995659  12.1339464
  40.5006647  28.9535618  31.2634087  39.5807528  28.9426494  30.9990788
  40.7516146  29.8762250  31.2192965  73.7255335  21.3584280  18.4270787
  73.3672953  21.9043493  19.1269815  73.8342667  20.4959989  18.8278615
  73.6777128  62.0602140  41.4701196  73.6059345  62.3949728  40.5762431
  74.6134437  61.8989167  41.5910551  58.9410591  42.6007318   3.8939348
  58.8294601  43.4253120   4.3670619  58.1637859  42.0889711   4.1179454
  17.6107163  24.0809011  10.6102383  17.0737404  23.7942052  11.3489473
  17.0493931  24.6874189  10.1272416  65.8674812  13.6147761  36.5006161
  66.0663605  14.1920590  37.2377896  64.9955606  13.8853836  36.2129354
  79.5864487  21.8301249   1.8142769  79.4118452  22.7701640   1.7687611
  79.1358948  21.5409732   2.6077652  43.3872128  17.5723708  38.0147839
  42.4572945  17.3701859  38.1177616  43.5410118  17.5184834  37.0715570
  47.9296541  35.1415730   0.3224815  48.3692122  35.0783706  -0.5254728
  48.2968664  35.9288144   0.7245262  14.5081333  48.8603734  22.4101591
  13.6873583  48.3907126  22.5584245  14.4352392  49.6466755  22.9511285
  16.6497143  73.5844025  37.9708382  16.5568979  73.6222443  37.0189020
  16.9280155  72.6860127  38.1488249  47.4548281  63.4948358  64.6248514
  46.9417847  64.1594467  65.0845361  46.8896831  62.7223835  64.6121806
  75.5515489   1.2759243  63.2864533  75.4892192   2.1670996  62.9427209
  74.6563778   1.0553251  63.5438169  37.4561429   7.9655433  12.2235966
  37.2807717   8.5517603  11.4875078  36.6080523   7.5676686  12.4202442
  74.5745516  18.1819224   3.8486913  74.0222454  17.8976107   3.1204385
  75.4343557  17.8070581   3.6577708  63.5916556  74.4231257  40.1840064
  64.0825833  73.6710582  40.5150887  62.6769937  74.2145905  40.3741070
  36.3005341  16.7191944  60.0383690  36.6136296  15.9084091  59.6373322
  37.0966614  17.1710024  60.3181583   3.0732197  19.2441809  18.4533906
   3.1594700  18.3769286  18.8492012   2.1778816  19.2652977  18.1155217
  29.1111803  39.4588161   2.4278457  29.1440773  39.1539097   1.5211037
  28.1986785  39.3351650   2.6891601  59.1392902  25.4059301  64.5343936
  58.2830337  25.8187185  64.6468601  59.4700436  25.2938114  65.4256087
  35.3271965  22.4632965  51.6329440  35.9136680  23.1524883  51.9448682
  35.3166345  21.8191944  52.3409363  60.1917076  44.8113489  15.6286740
  59.2808294  44.9714184  15.3818762  60.2123165  44.9550962  16.5747941
  62.3812259  60.7329139  64.0774901  62.1028484  61.6479525  64.1154440
  62.9792846  60.6952700  63.3310711  35.2609972  12.9963098  65.0752988
  36.0018162  13.5792862  65.2413118  35.2185205  12.9286609  64.1214379
   7.3762424  57.8899822  39.8398277   7.8410728  57.1759519  39.4035670
   6.5334804  57.5104067  40.0886366  79.0922464  60.2760157  34.4145772
  78.4020008  59.6749577  34.1343519  78.6450447  61.1131964  34.5385620
  60.8049488  24.8494172  19.7995579  60.3805590  24.0429473  20.0923514
  60.1942301  25.2247858  19.1652453  35.8686168  54.4788501  61.5844503
  34.9985035  54.8628495  61.6924900  35.7658489  53.8499019  60.8702409
  65.9540166  54.1716645  30.2223012  66.2344469  54.2604229  31.1331865
  66.3139261  54.9431202  29.7846338  27.5373371  63.3202586  61.2007150
  27.1177204  63.0071339  62.0020342  27.4356754  64.2714939  61.2330836
  30.2445984  14.3398523  15.6780386  31.0081506  14.0472949  16.1756647
  30.6124306  14.7889900  14.9169827  43.5512924  13.8005507   7.3884875
  44.0456629  14.5252085   7.7714974  44.1979885  13.3123016   6.8789518
   4.0747971  30.6628585  30.6836963   5.0237507  30.6083488  30.5707812
   3.7551922  31.0206127  29.8553848   7.3623699  16.7092478  19.4469094
   7.7008385  15.8991122  19.8281538   8.0684608  17.3441160  19.5677602
  41.6579298   0.7216559  58.2171944  41.3043980   0.1378189  58.8882997
  41.8417982   1.5377460  58.6824050  25.2019352  22.6318026   4.9554640
  24.3878597  22.2973156   5.3318185  25.3765244  23.4382272   5.4406726
  47.6910642  14.7498499  35.2088877  48.1718401  15.0346361  35.9860512
  47.0863918  14.0821682  35.5326268  12.5125892  73.6763081  51.9756469
  11.6280802  74.0110907  52.1232685  12.4263199  73.0976162  51.2180814
   6.5363735  47.6874733   5.8201385   5.6778378  47.2658539   5.7829249
   6.8692059  47.6325655   4.9243474  76.2819875  49.4134304  30.1809999
  76.0955156  48.4790871  30.0890013  75.7520498  49.8313961  29.5022484
  52.7183628  38.6462235   7.5655317  52.2388458  39.0121603   6.8223035
  52.6919317  37.6997590   7.4250484  28.3062691  34.6863651  12.3455477
  29.0960640  34.7607207  12.8812087  28.0890316  33.7543941  12.3672152
  59.3164015  30.6251979   1.6600820  59.0995169  29.6937895   1.6191873
  60.1643038  30.6931734   1.2211417  74.4384969  70.9763989  53.6841962
  73.6891998  70.7300958  53.1418702  75.1936258  70.8916697  53.1020996
  65.1660681  42.2528744  19.2755139  65.3172684  43.1799889  19.0916049
  66.0113716  41.9295645  19.5872188  33.0796007   1.7053996  64.7458468
  32.2885517   1.3213287  64.3677388  33.0633358   1.4326797  65.6632295
   6.3679989  62.8179679  54.0212580   7.1406515  63.3738670  54.1223308
   6.4197262  62.4973736  53.1208274   6.5755505  39.7158432   2.9394099
   6.3208908  39.9497318   3.8319778   6.5243286  40.5383110   2.4524219
   6.6877121  34.1747522   1.3467641   6.8608612  34.1372228   2.2874252
   6.4926189  33.2699466   1.1028531  30.7496953  19.1550183   3.0738032
  30.0131297  18.6339366   3.3934534  31.0360432  19.6579337   3.8362414
  43.1739143   4.6632705  56.2075218  43.5050157   4.8034559  57.0946243
  43.2031778   5.5294882  55.8012739  57.3821926  57.2925138   7.7126449
  57.3386097  56.3607121   7.9272872  56.6747618  57.6888084   8.2212925
  38.4256561  56.8062851  24.5390484  37.8467186  57.5286207  24.2955276
  39.2959507  57.2020910  24.5855543  47.4730635  48.3125162  23.7277699
  47.5767612  48.6339378  24.6234059  47.7486992  49.0452051  23.1769347
  17.6166290  24.5400620   5.8960354  17.4301476  24.7062683   4.9720064
  17.9714626  23.6512160   5.9126538  48.5820106  73.0498371  23.1371546
  48.5327343  72.1038254  23.2745051  48.0755190  73.2027455  22.3394561
  59.9958897  39.8781037  25.5632854  60.7050323  39.5540237  26.1185503
  59.3764973  39.1498256  25.5163860  77.7456856  11.9326627  28.0715418
  77.8263330  12.8134453  27.7055502  77.0805025  11.5081429  27.5297379
  36.9182689  58.9556680  23.1352255  36.4332397  58.7832961  22.3282167
  36.4820011  59.7163043  23.5190555  36.7958546  48.0110502  11.5515721
  36.0939097  48.3611345  12.1001554  36.5240479  48.2138348  10.6564569
   2.1416420  58.0844927  18.4282458   1.6548962  58.9061785  18.3638620
   2.1230263  57.7249622  17.5413275   6.9209618  31.0835409  30.5099702
   6.6462273  31.9174504  30.1287222   7.7046150  31.2981415  31.0159922
  74.3261017  58.5792837  49.8594412  74.6430935  58.3514676  50.7334229
  73.7971939  57.8273067  49.5929453  68.9153866   7.8964792  61.3045305
  68.6952213   7.1007763  61.7889049  69.2087177   8.5122524  61.9761041
  30.4284787  12.5559998  55.3536272  30.0518656  12.0083880  54.6647739
  29.9155927  12.3457456  56.1339951  51.4526224  21.2776279   4.5757198
  51.7462683  21.8722391   3.8854724  52.2611666  20.9502959   4.9698561
  50.3583002   3.9648834  17.6578462  50.4985619   3.7198541  18.5724604
  50.1746130   3.1371546  17.2135997  53.9786819  19.3916784  62.4521613
  54.6228031  18.9975677  63.0403916  54.3357662  19.2487465  61.5756380
  31.1341484  67.8046713  59.8846939  31.3293464  67.6998362  58.9534911
  30.2026565  67.5972471  59.9589839  58.3447174  17.6302563  51.8179402
  58.9631847  18.2431684  52.2155115  57.7701382  17.3691784  52.5376102
  40.4142643  72.4054775  40.1918146  41.2392033  72.8489527  39.9942395
  40.2784957  72.5577173  41.1270258   5.9859413  42.8315163  39.4036698
   6.8693298  42.4657869  39.3577290   5.5085606  42.2331142  39.9783397
  11.3319977  43.6111567  59.2478421  11.1441047  43.7176130  60.1803627
  11.4270885  44.5050905  58.9190998  23.0585865  16.9395767  63.8775040
  22.7388815  16.7726694  62.9908469  23.3484844  17.8516517  63.8598513
  64.5200586  60.4974508  20.1889038  64.1290808  61.3598156  20.3292489
  64.1764545  59.9597073  20.9023476  24.7519882  64.5794902  63.5655087
  24.5711000  64.7503743  64.4897981  24.2015321  65.2048192  63.0941315
  23.4822372  24.8220907  61.9028207  23.9824919  24.7688518  62.7171591
  22.6073507  24.5135008  62.1385646  67.6528263  51.1860609  10.1597714
  68.3190823  51.5617990   9.5843047  66.8298244  51.5678644   9.8546100
  18.0856569  74.2253790  48.3661696  17.3941906  74.8083315  48.0526921
  18.8899572  74.5847997  47.9917988  65.5687908   2.6363073  44.5900747
  64.6150116   2.7029930  44.5441720  65.8639721   3.5322176  44.7526809
   7.5681074  64.4024238  49.2534277   7.8717668  64.1606364  48.3784649
   8.0855568  65.1746950  49.4816240  74.5037794  23.2024670   7.5150561
  74.8208857  22.9846334   6.6385722  74.5469046  22.3768210   7.9974264
  70.7500505  42.4512529  10.9431636  71.1231089  41.5714884  10.8877909
  70.9980583  42.8689289  10.1183772   2.4947603  73.6588344  54.4814285
   2.7546175  73.0438599  53.7954888   1.5758999  73.4524021  54.6526369
  25.3262758  46.4258242  17.0079899  25.4716516  46.8795538  17.8381884
  25.5236363  47.0813704  16.3390052  48.9477777  58.7395239  23.7222815
  49.8478079  58.4142971  23.7423253  48.9797401  59.4968891  23.1378102
  65.9466362  40.9739351  26.5910125  66.8750811  40.8626842  26.7955756
  65.9045029  41.8012714  26.1114573   4.5294422  16.3694131  26.8870974
   3.6953205  16.4846230  27.3422933   4.7109360  17.2255313  26.4993453
  73.0796255  51.8134389  30.6417271  73.1528629  51.9517658  29.6974107
  73.1913627  50.8695445  30.7549068  28.3771080  68.7608862  44.5113420
  29.2648548  68.8477755  44.8585844  27.8265995  68.6494303  45.2864218
  31.1931280  63.2803785   2.6530364  30.7690147  63.0513762   3.4800297
  30.6013731  63.9143442   2.2478904  14.6631855  55.3184509   6.3153499
  15.0750870  55.4907274   5.4686540  14.4957203  54.3760204   6.3128978
   3.4511227  42.8019619  38.2183051   2.8019566  42.6773119  38.9106059
   4.2941612  42.7549696  38.6691976  24.4744543  11.0188757  61.3341987
  24.8230652  11.6398226  61.9738301  23.6470322  10.7231174  61.7138499
  50.3754749   3.4642721  36.3264561  49.5871105   2.9862095  36.0692406
  50.0960674   4.0084959  37.0626545  26.7763237   6.1896597  35.4898926
  27.3797087   6.7031465  34.9527785  26.9397262   6.4873014  36.3848445
  35.9549374  22.5153375  16.5309727  36.2886471  22.8358459  17.3689115
  36.6799015  22.0112419  16.1614621  50.7378057  59.2657029  20.8655977
  51.3964990  58.6519979  21.1907387  50.9808639  60.1060294  21.2541890
  68.4751368  16.1146653  11.1920083  68.9863396  16.9065070  11.0250151
  67.6445198  16.4354563  11.5432942  77.1465731  65.9149361  18.8783014
  77.5314856  65.2367830  18.3231580  77.0554018  65.4993391  19.7357404
  19.0183682  34.1265464  25.6283259  19.7822231  33.9990139  26.1909056
  18.4043259  34.6249866  26.1675310  12.5655468  64.4662342  42.9765197
  12.6379783  65.0364909  43.7418911  13.1190403  64.8815450  42.3151609
  62.1201754  36.4997125   0.8339027  61.5570068  36.3189101   0.0813174
  62.8079367  37.0681262   0.4873177   5.5679853  57.5121424  65.4740781
   5.7707699  58.4463773  65.4259796   5.7667692  57.1785519  64.5991874
   8.5043247  56.6044531  30.1191208   8.8595875  55.7968435  29.7479245
   7.7436788  56.8044767  29.5735571   0.8879036  34.3029499   5.5614209
   0.1073593  34.3116212   6.1154181   1.4523167  34.9813271   5.9321922
  62.5295305  38.1551456  17.9707193  62.1424198  38.2324076  17.0987034
  63.3209419  38.6920142  17.9298687  30.8887056   8.5041557  55.0572058
  30.6737141   8.4291445  54.1274831  30.1397089   8.9608703  55.4401466
  68.4461887  52.6120541  58.3587923  68.6519344  53.2544551  59.0379271
  67.6512058  52.9476914  57.9445705  68.4901527  16.5344034  37.7737018
  68.5220150  15.6345878  38.0985781  69.3400959  16.6678129  37.3541567
  64.6223927  53.5636950  46.8955088  65.5192757  53.8405704  47.0830441
  64.6117210  52.6294088  47.1034241  10.3461784  14.5304203  14.7618020
  11.0347218  14.1364574  15.2974641   9.7265667  13.8176453  14.6060383
  34.7038311  51.0536242   3.5738280  34.0944523  50.3425884   3.7721273
  35.5558056  50.6242657   3.4962648  48.6477379  27.7980457  63.0004115
  49.5058254  28.1374775  63.2547796  48.0742124  28.5643230  63.0113247
  72.9887009  44.8347569  40.0074530  73.1731653  45.4853439  39.3300033
  72.7933025  44.0329027  39.5226002  54.2061424   8.9041305  14.3917930
  54.5148754   9.4316310  15.1284468  53.6033726   8.2730782  14.7850764
  70.9800781  55.1516912  44.3191263  70.6619610  55.8471093  43.7434313
  71.9253792  55.1310549  44.1700765   8.6729950  41.4465284  15.9164453
   8.7093586  41.9754934  15.1195097   7.7575249  41.4916849  16.1923146
  21.6272695  58.7074194  34.4641730  21.8641813  58.4035835  33.5879347
  20.8979662  58.1444607  34.7238347  18.3916134  39.4544029  13.1212664
  18.5787052  38.5185456  13.0477917  18.6537785  39.6817517  14.0133488
  67.0612478  54.2879105  38.2618403  66.7695236  53.8170338  39.0424824
  68.0152416  54.3087816  38.3372545  34.0534357  17.7317177  53.0756125
  34.0094332  17.7705370  52.1202120  34.3374304  18.6073242  53.3380768
   1.5774006  46.2470341   2.5738713   1.4672607  46.1753845   1.6257325
   1.7397923  47.1779346   2.7264628  25.9825233   4.1067348  25.8445617
  25.4186491   3.6552416  25.2165243  25.4671720   4.1368948  26.6506240
  60.3959846  55.9049606   4.6261391  60.4800320  55.7897663   5.5726576
  60.9534693  56.6568661   4.4259316   6.8199200  56.6069269   3.2106084
   7.5212330  56.5476131   2.5618601   7.1734089  57.1762609   3.8940799
   9.1593975  61.3155556  23.8934994   8.2485622  61.1584425  23.6446381
   9.3401283  60.6599808  24.5671415  75.3420929  41.3240658  51.6923091
  75.3006271  41.7684923  50.8455512  75.2433399  42.0255361  52.3360655
  36.7377384  61.9914565  61.6066259  36.9056614  61.1187253  61.9621172
  35.7951458  62.0051489  61.4405739  57.0789917  63.8530550  64.2788391
  57.0654495  64.7266540  64.6698268  56.5160187  63.3275018  64.8472399
  74.3348424  35.0825777  17.8363970  74.5669572  35.7378283  17.1783713
  74.4532172  35.5314198  18.6735133  42.9542085   1.4462877  44.4111347
  43.5510846   2.0148779  43.9246416  43.4369751   0.6264998  44.5165634
  78.2481637  55.4119968  59.9580526  78.1790386  54.4657898  59.8309565
  77.4936554  55.6362534  60.5027151  15.5649829  59.8280907  16.8089223
  16.1697483  59.7587395  16.0702205  14.8561168  60.3847742  16.4866769
  15.1446342  65.8094358  54.1811895  15.9926629  66.0812426  53.8301897
  15.2393281  65.8955097  55.1297951  69.2490273  67.2441149  44.7138786
  69.0228742  66.9891310  43.8194132  68.7759357  66.6224575  45.2670145
  71.7015576  63.6730242  10.4214895  71.6903394  62.7770662  10.0847936
  70.8969879  63.7460566  10.9348762  27.6203790   7.5276066  53.2580900
  26.8466528   6.9939209  53.4390640  27.2716566   8.3336807  52.8774548
  13.3559664   9.5029808  29.9712157  14.1890558   9.9199844  30.1910019
  13.3683487   9.4315125  29.0167689  24.6048094  69.7302546   5.0079945
  23.9213913  70.3551068   5.2503374  24.4904072  69.0016069   5.6180933
  73.5530154   3.2645455   1.3364485  73.0020420   3.6452618   2.0203474
  74.1650526   3.9632788   1.1053303  54.7902804  47.7480698  50.3220367
  54.2848831  47.1687365  50.8922815  55.0839001  48.4542418  50.8976555
   6.7373925  53.8021755  42.9197073   7.5285447  53.9551592  42.4030781
   6.6184789  52.8525925  42.9001808  68.2103793  41.5079632   8.8388470
  67.8139643  41.6356316   7.9769924  68.1380217  42.3621693   9.2646721
  50.2047491  62.2217417   2.9545748  49.8620462  62.7951479   3.6401325
  49.9132395  62.6252031   2.1369746  36.4940052  44.9321881  22.5375250
  36.6927712  44.2067089  21.9455794  35.5403428  45.0095787  22.5097540
  10.3719234  46.8723202  59.9343777   9.9991465  46.5971708  59.0967846
   9.7518146  47.5187731  60.2717161   1.3345729  38.2782068   3.3686093
   1.7900025  39.0522471   3.6997727   0.8235132  37.9636612   4.1143349
  62.4381338  51.0911217   9.4100502  61.7644660  50.4283753   9.2578343
  62.1606599  51.5350476  10.2114037   8.2423896  66.9692421  45.0980043
   8.3750981  66.1121321  44.6930504   8.8938969  67.0067501  45.7982635
  32.2492671  65.7018709  41.7672586  31.4308786  65.2814436  41.5032339
  31.9817376  66.3749123  42.3930979  39.3301766  56.7014923   0.8009604
  38.7752335  57.4796143   0.7479552  40.1109116  56.9292870   0.2961853
  21.7761447  16.4210773  52.6243401  21.4806088  15.5266834  52.7945185
  22.6183196  16.4848305  53.0747938   7.2403938  62.3273897  51.1606884
   7.7866393  61.5423393  51.1213684   7.2479939  62.6694822  50.2667379
  18.1123474   8.8926769  24.1047478  17.1795829   8.7066055  23.9972329
  18.5538062   8.1597591  23.6755800  18.8993502  69.6517897  28.4945703
  18.8095868  69.2849827  27.6150107  18.6551106  68.9344025  29.0793228
   8.8323802  47.8514004  36.7312980   9.5296764  47.9654789  37.3770475
   9.0337151  48.4888887  36.0462403   7.0335992  27.3308445  48.0586958
   7.2443529  28.2586456  48.1635571   7.2032126  27.1496941  47.1342182
  19.3079126  43.8347673  10.9155595  18.7352288  44.3330097  11.4986730
  19.1460168  42.9197454  11.1452353  67.9661322  49.3931580  53.0419397
  68.9189291  49.4608641  53.1037760  67.6415873  50.1885843  53.4640741
  65.7783219  46.7468764   2.7537325  65.9794708  46.3414820   3.5971907
  66.1623403  46.1557116   2.1062067  57.4414354  49.7961187  44.2477179
  56.5885192  49.3617249  44.2392492  57.5322395  50.1281834  45.1408672
  73.8623863  49.1190624  15.2719438  74.4699269  48.9240789  15.9854615
  73.9214337  50.0678158  15.1596236  19.1253448  27.9356670  17.2333360
  18.2847846  27.5712824  17.5106680  19.4757485  27.2897148  16.6199899
  62.2290760  47.3653793  12.5154781  61.8533903  48.0003262  13.1253409
  63.1475323  47.2972298  12.7762938  22.9431517  68.7831864  44.8369881
  23.3258147  69.5985636  44.5130083  23.6919228  68.2737551  45.1469132
   2.7083153  65.6339312  50.5724478   2.2354585  66.2833929  50.0520277
   3.5752514  65.5889750  50.1691723  56.8670231  41.0430336  54.5288754
  57.7836328  41.1319447  54.7899389  56.8186456  41.4719105  53.6745024
   0.8509699  30.2288723  54.0161324   0.8197040  29.2807078  53.8887024
  -0.0598609  30.4800963  54.1694450  38.5204178  17.4318492  45.3088617
  38.3252865  16.9430196  44.5093584  37.8936583  17.0997787  45.9516191
  24.3168640  64.1836071  30.3938103  24.1049409  64.9263573  30.9591818
  23.5574532  64.0968609  29.8176146  25.7783715  65.4583539   3.4762553
  26.0421720  65.2584399   4.3744067  26.2438975  66.2674369   3.2643536
   4.8919609  56.8466425  40.6594849   4.7360078  56.5693998  41.5622854
   4.3165681  56.2896967  40.1351118   5.2675575  63.4647226  46.3268995
   4.5783672  63.3396435  45.6745148   6.0266250  63.7545109  45.8208656
  71.0049264  34.6124640   9.8058728  70.5450504  33.7729922   9.8113898
  71.4412467  34.6521416  10.6569222  23.0159559  16.3611580  45.7797289
  22.4016931  16.6901375  46.4359951  23.5258537  15.6954742  46.2413597
   2.0810620  49.7491693  22.9588652   2.0151584  50.6972504  22.8446913
   2.8150845  49.6309805  23.5617518   5.2922434  70.2670145  31.6996408
   4.7017241  70.9493446  31.3803554   5.1271743  70.2289963  32.6417351
   7.3102432   6.8137580  33.4604168   6.8929249   5.9557408  33.3837128
   7.0612770   7.1242213  34.3309689   3.6300251  55.5293989  51.7792130
   3.8024902  55.3693962  50.8513737   3.7571463  54.6775389  52.1968365
  30.7789207  49.5147657  40.0755405  30.9431815  49.0836859  39.2368388
  31.4831233  49.2058945  40.6455660  43.4960600   7.9496075  26.3463092
  44.2102154   7.6323963  26.8991160  42.7265998   7.9317356  26.9153810
  64.6263009  61.0747385  34.1273808  63.7062639  61.1936665  33.8915396
  65.0460285  61.8978024  33.8771296  27.0991826  36.2388730  23.8611269
  26.8435717  36.6644478  24.6795297  27.1295547  35.3064466  24.0753484
   0.1264148  36.1859107  42.0760870   1.0107823  36.3720298  42.3915005
  -0.4464046  36.6751981  42.6666021  13.4057474  25.3460193  23.2060242
  12.5676990  25.3916645  22.7457833  13.6972845  26.2559271  23.2635355
  10.3987706  63.2219219  42.1504354  11.1840630  63.6672926  42.4685431
  10.5824864  63.0417395  41.2284708   6.2762868  33.7223935  48.7271881
   7.0271665  34.0091419  48.2073927   5.8858925  33.0149412  48.2140255
   9.1303772  55.5372715   8.9059579   8.4023345  55.2737904   9.4687766
   9.4827479  54.7136068   8.5688376  31.3427067  15.5463004  54.3411970
  32.2487640  15.3307295  54.5621490  30.8567333  15.3988433  55.1525688
  23.0578661  36.3123679  23.5823917  22.9443264  35.3709149  23.7128043
  23.5215974  36.3843942  22.7481270   3.9385863  18.0315662  45.2052116
   4.3365260  18.0719162  44.3355846   4.5633575  18.4794880  45.7755232
  37.0463090   7.9763308  24.0852335  37.1270447   7.0255127  24.1604498
  36.7122285   8.1190243  23.1996516  14.5868218  61.3653231  58.0063343
  14.9079823  60.4675102  58.0901146  13.6505389  61.2694836  57.8319168
  64.9626200  17.9845276  16.5020445  65.9004645  18.0687084  16.3300112
  64.7588055  17.0762291  16.2791422  61.8083101  24.2647958  30.9268904
  62.0252222  24.0282631  31.8286848  60.9348136  23.8992333  30.7868862
  35.3472376  58.5016441  20.5583525  35.7777786  57.9024839  19.9485338
  35.6571150  59.3697166  20.3001809   8.0178219  36.1534357  35.8202314
   7.3843938  35.4717016  36.0443759   7.4815822  36.9106364  35.5850244
  51.8102893  31.4269104  13.5910967  50.8966069  31.6268578  13.7946585
  52.1963021  32.2734061  13.3659962  10.8120704  24.7479224  28.6783957
  10.3024089  24.9656749  27.8979731  10.1859069  24.3184781  29.2612576
   0.4393917  65.9797716  41.3733768   0.0463808  65.1463366  41.6325188
   0.6809153  66.3979340  42.1998405   6.3531923  61.9758320  29.0828061
   6.3899070  62.0673847  28.1307030   5.7886660  61.2167406  29.2288375
  71.5569001  42.9326296  50.7398033  70.8869129  42.2489977  50.7412434
  71.8756479  42.9537010  49.8374796   5.6614316  60.9152794  32.5065923
   5.1268345  60.9194756  31.7126036   5.9762704  61.8155384  32.5881100
   0.8310565  68.2039595  60.8825731   1.6116309  67.7125454  61.1383963
   1.0460673  69.1153383  61.0810518  60.9305292  46.1319208  29.2795348
  61.3813966  45.4522848  28.7784934  61.0481769  45.8734131  30.1936245
  33.0642869  56.8976428   0.4975251  32.6493021  56.0710062   0.2511719
  32.3420616  57.5242438   0.5421856  43.8593625  43.6563149   6.0649374
  43.3748232  44.4445648   5.8197478  43.3236311  43.2476177   6.7447832
   2.5169185  44.7663403  31.5108299   2.4864408  44.0507364  30.8758402
   2.2773230  45.5440807  31.0069013   2.4258299  57.7771187  29.9861813
   3.1137419  57.2957039  29.5265651   1.7806542  57.9785347  29.3083811
  11.2606180  52.9027319  10.7435203  10.7340384  53.0282879   9.9541026
  10.6686735  52.4721432  11.3603103  57.9132772   7.0792328  51.3251659
  58.7833611   6.9086300  51.6858336  57.7018437   6.2901293  50.8263215
  76.9414693  32.5845790  25.7950997  76.4464968  31.7659497  25.8279657
  76.5532303  33.0701542  25.0672817  64.5579022  35.2862811  63.3170033
  63.6475903  35.5504894  63.1837463  64.9814862  36.0626483  63.6831474
   9.0404113   3.7033869  59.9372721   8.4204575   4.1830994  59.3879414
   9.6561059   4.3699957  60.2418852  47.6351741  17.9314552  52.0545348
  47.5807307  17.2331177  51.4021596  46.8523804  17.8173242  52.5934598
  35.5558896  24.4394946   1.4663127  35.9847355  24.2051530   0.6432653
  35.9952712  23.9033937   2.1264426  55.7348425  72.3424613  53.3019257
  56.1771924  72.0255752  52.5144339  56.2196565  71.9450658  54.0252924
  44.9192715  66.6511154  14.8720121  44.3171120  65.9237432  15.0287569
  45.3385496  66.8017721  15.7192075  16.2838495  52.2605705  60.0440884
  15.9540951  51.7634392  59.2955208  15.9026670  53.1323242  59.9393320
  46.1548731  33.8649736  52.7211246  47.1100471  33.8080917  52.6958379
  45.8619288  32.9549633  52.7690336  77.9764300  48.2578659  26.0518861
  77.1341222  48.3053493  26.5040970  78.1309786  47.3209715  25.9311581
  29.2969832  18.6333261  50.9466168  29.8145685  17.8282152  50.9579596
  29.9453196  19.3338762  50.8750269   5.2600002  65.8508682  49.4967508
   6.0383964  65.4447699  49.8780870   5.5455476  66.1531591  48.6345959
  25.0079775  57.2871637  37.3542523  25.5406380  58.0573702  37.5524473
  25.1290154  57.1474743  36.4150667  70.8009743  51.4499521  14.7540331
  69.9277413  51.7534256  15.0022304  70.6449860  50.8240080  14.0468621
  13.0322989  12.1668316  35.0061011  12.9311999  12.1557404  35.9578824
  12.2379228  11.7470718  34.6759534  27.6630110  20.1633335  18.2076871
  28.1911581  20.1895882  19.0055621  27.5046963  21.0830475  17.9948759
   8.7702352  47.8284788   7.4285281   9.1588145  47.1912241   6.8292451
   7.8311211  47.6461554   7.3960340  18.5136521  54.5974255  23.7325668
  17.8986037  54.1919041  23.1214213  18.3543444  55.5371571  23.6444759
   2.2987118  66.3349199  53.1883669   1.6119209  65.7595778  53.5253143
   2.4265003  66.0507917  52.2832823  22.2174703   6.7997814  47.2532225
  22.0947041   7.5839497  47.7882433  22.9897469   6.9913651  46.7211342
  14.6075642  66.3430023  22.2350001  14.2553091  67.2125483  22.4248171
  14.6725762  65.9188986  23.0906534   6.9467419  46.9760323  51.1773014
   6.7280537  47.7308846  51.7237473   7.3390782  46.3473749  51.7831802
  52.5605389  27.5092960   5.5518824  52.1483060  27.5759865   4.6905765
  52.3513218  26.6239716   5.8496398  20.9943631  21.4294983  50.8939314
  21.3084509  21.9104744  51.6595984  21.7340758  20.8790947  50.6368208
   4.9354705  50.6986141  53.1106615   5.4272294  49.9345112  52.8097486
   5.6020397  51.3695574  53.2581472  74.8115477  11.9512735  51.5683874
  75.6471953  12.2705828  51.9089266  74.6930489  11.0981212  51.9859060
  74.6798801  47.4501467  60.7381058  74.5820576  46.8834209  61.5032721
  74.6685672  48.3383083  61.0948563  74.0121156  24.3308234  43.6775160
  73.7218952  23.5768843  44.1909170  74.8239839  24.6104288  44.1005039
   1.6180645  53.3175373  57.3973465   1.4271244  52.8520012  56.5830708
   2.1076299  54.0923119  57.1211481  58.7750607  58.6838961  39.9398088
  58.5218769  58.8847637  39.0388179  58.6552745  59.5080566  40.4116583
  19.5774007  22.0568776  29.1127706  19.3494070  22.9748535  29.2596292
  19.8095787  22.0131922  28.1851840   5.0791618  18.5587002  42.7494717
   5.8694693  18.2945324  42.2784519   4.6783515  19.2242981  42.1903992
  21.8300653  74.7096109  55.6808329  21.0817885  75.0908184  56.1401796
  21.5789342  73.7985563  55.5287075  67.3298995  26.3313523   6.7100361
  67.1052973  25.5689278   7.2434166  66.5525584  26.4854660   6.1731747
  17.4693561  47.9164791   5.8096892  17.7179837  48.8404465   5.7833195
  16.5660596  47.9204559   6.1263448  17.4165165  45.2106142  12.8509521
  17.0794463  44.8511505  13.6715615  17.3152125  46.1577940  12.9448724
   0.7339249  69.7658873  50.4566622   0.0088626  70.2667904  50.0830126
   1.5155655  70.1289606  50.0401926  16.9496012  72.9438353  60.7758045
  16.4803946  72.7117872  59.9744081  16.3331413  72.7447033  61.4804697
  59.2366617  19.1718235  13.0027512  58.8454662  19.3779888  12.1538142
  59.7104512  19.9667063  13.2475212  74.1604513  45.0734377  11.7593217
  74.0207809  44.4317007  12.4556673  74.5042819  44.5614910  11.0272539
  13.6146709  35.2132679  65.0814676  13.3371826  35.6636024  64.2837000
  12.9018577  34.6037174  65.2726936  70.1142450   4.4243217  32.5490594
  70.7526203   4.3083216  33.2528019  69.7055050   3.5642029  32.4522924
  12.1950233  45.1596308  29.9472332  12.6770401  44.4305372  30.3375053
  11.3898826  45.2171659  30.4616952  46.6576429   3.9487673  17.4935722
  47.2578331   4.2749907  18.1640804  46.4469858   3.0580164  17.7735984
  34.4387879   5.1381947  42.1035433  34.7003367   6.0515572  42.2201967
  35.1917061   4.7256351  41.6802931   8.0672610  33.2428360  50.7503605
   7.2929561  33.2505131  50.1876688   8.1807756  34.1559696  51.0140514
  39.1928363  23.6147380  61.4668703  39.0219092  22.7048588  61.2236834
  40.1248217  23.6335063  61.6843224  19.6478331  65.8880091  38.0280876
  19.5305598  66.7695904  38.3820534  20.5046487  65.9129715  37.6020885
  39.2623591  59.6894503  26.9333482  39.3168068  60.2529526  26.1615109
  38.9891672  60.2756119  27.6390505   8.5094857  60.3578043  56.3472605
   7.5986880  60.6307507  56.4576244   8.8786578  60.9964132  55.7372427
  54.0969928  20.8735743   5.3141192  54.0998634  21.1137190   6.2407044
  54.9070002  21.2474957   4.9672774   7.8763771  68.3870840   9.1472679
   8.5727185  68.7146473   9.7165143   7.1019840  68.8879156   9.4036192
  72.7750790  59.5845795  24.9776173  72.1529698  60.0988913  24.4631338
  73.5547691  60.1370955  25.0327706  32.7870431   0.1897408  62.1799898
  31.9329884   0.4872013  61.8663979  33.3752527   0.9246040  62.0061731
  65.0412266  60.7034626   3.3083561  65.1947253  60.8556690   4.2408255
  65.0679843  61.5759888   2.9156617  42.0692545  71.4393044  10.4798973
  41.1600691  71.4719725  10.1823270  42.2671491  72.3377180  10.7443309
  30.8289766  63.1081772  25.8091187  31.3362741  62.3069286  25.9390640
  30.2466702  63.1486654  26.5677428  77.8357026  20.4355001  64.1292667
  77.6328291  21.3705587  64.1020441  78.6822688  20.3611660  63.6887789
  11.2472641  49.7878551  36.2953830  11.4907384  48.9250994  35.9598088
  11.3621688  50.3762531  35.5491829  12.4325371   9.5140159  50.3871918
  13.0886018   9.8798031  49.7938824  12.5530410   8.5666198  50.3227615
  48.9304143  28.8665462  58.2121944  49.1606003  29.2771316  57.3787308
  48.0258423  29.1365981  58.3704758  17.9751335  37.2529879   2.5132397
  18.2542502  38.1390133   2.2824171  17.9061018  36.7974129   1.6742400
  16.7235281  74.9455466   8.5983351  16.1437877  74.8001899   7.8506735
  16.1568495  75.3233422   9.2709282   5.0652617  62.7054310  20.7016850
   5.4950005  61.9084930  20.3911281   5.3248519  63.3783293  20.0723600
  47.4328647  23.6657844  61.2693813  46.7388133  23.5769258  61.9225493
  48.1476281  24.0981613  61.7367083  79.1421579  62.2132778  14.5584512
  79.4818748  62.2509289  13.6643553  78.1936264  62.1420479  14.4514680
  75.4129031  41.8602610  46.7018461  75.2302634  40.9313154  46.5606403
  74.8924824  42.3105145  46.0365152  35.5177634  44.4107094   2.1474818
  35.6487446  43.8634339   1.3731602  34.6722977  44.8348465   2.0007780
   9.0144676  63.1923151  29.8770380   9.5580417  63.9711475  29.9961066
   8.8176250  63.1785297  28.9403987  52.1974703   5.0530411  54.0715742
  52.1660539   5.4139401  54.9575758  52.6689502   5.7115055  53.5613203
  15.4825115  28.5115719  12.8591979  15.7415295  28.0758357  12.0472407
  16.2470138  28.4297419  13.4293473  38.8225039   1.3431431  49.6466112
  38.6791595   1.4490772  48.7061501  39.3621596   2.0944191  49.8927546
  56.9198757  53.0516958  59.2760229  57.3809534  53.4917688  59.9901485
  57.5049430  53.1389284  58.5234833   5.9134293  36.7965817   6.2009805
   6.2407720  37.1613050   5.3787547   6.5561795  36.1285448   6.4393723
  10.3756440  74.5842361  42.1139336  10.4972601  75.1362562  42.8864050
  10.5504727  75.1657963  41.3740301  54.6529283   6.6166439   3.4585789
  55.1611634   5.9791270   2.9570797  55.2572642   6.9279471   4.1324499
   9.1722918  43.6171865  13.3833492   8.5028493  43.3854485  12.7396297
   9.9450743  43.1203270  13.1147063  46.0221760  44.0934124   7.7272013
  45.4151486  44.0152111   6.9912413  46.4671491  44.9285355   7.5829581
  64.3883734  50.0903740   4.2873314  63.9988010  49.6630421   5.0501231
  64.4549780  49.3960419   3.6318138  17.5648654  53.5785627  26.6139364
  16.8572116  53.1440163  27.0899892  17.5578070  53.1695843  25.7485366
  53.4130335  63.2179546  38.2586503  53.5782766  62.8860950  39.1411448
  53.5572338  62.4631023  37.6880050   5.2599925  59.9337149  40.8160257
   4.4894308  60.3892803  40.4770184   4.9034575  59.2441034  41.3759804
  46.9044548  32.9750419  57.9546785  46.1723596  33.5905099  57.9163837
  47.0758706  32.7495456  57.0403481   1.0916283  71.9985628  64.2629623
   1.5116972  71.6177511  65.0341654   0.1552463  71.9634199  64.4583750
  45.7014275  65.8237648  54.0699339  45.1136971  66.5785408  54.1034412
  45.8538389  65.6801653  53.1359196  76.5819618  34.3542075  20.5018139
  77.2905889  34.0835738  19.9180019  76.4161166  33.5865784  21.0490537
  17.5881386  50.3761578  48.5472107  17.0126569  50.5924749  49.2808723
  17.7146518  51.2069798  48.0889940  13.1978592  55.5109908   2.5905636
  12.8856465  54.9156357   3.2719639  13.7356111  56.1497416   3.0585936
  16.4276397  60.5466795  24.2484593  15.9408748  61.2554026  23.8277364
  17.1102083  60.9906960  24.7516298  29.8598766  66.7542267  35.2195978
  29.5464897  65.9126949  34.8881650  30.3704190  66.5301037  35.9976387
  12.1231314   2.0008207  10.3932142  12.9903313   1.7750526  10.7297063
  11.7669829   1.1718393  10.0735474  54.3884331  34.0080490   2.2671202
  54.2278766  34.5104447   3.0658987  54.1428738  33.1113234   2.4947480
  37.8531572   7.3012234  47.4693584  36.9149002   7.3994328  47.3073053
  38.1675955   6.7671562  46.7398834  12.6541030  48.9189482  28.6767387
  12.7858806  48.7932539  29.6164560  12.9075313  49.8283911  28.5188723
  42.5445144  29.2196980  12.0353726  43.4804361  29.2389574  12.2351530
  42.4002318  28.3568421  11.6469220  22.6286464  49.4192852   3.1523684
  21.8614557  48.8706161   3.3155039  22.3198240  50.3130676   3.3007410
  53.5482865  43.5783815  60.9917879  54.4267469  43.9576054  60.9648705
  53.2853514  43.5177231  60.0734091  64.2730254  44.1955137  30.3236914
  64.4580942  45.1018953  30.5695629  64.0200692  43.7717438  31.1438513
  12.8201115  57.8657913  43.2317209  12.0859909  58.1417751  42.6829624
  12.8375757  56.9125319  43.1467247  45.4172468  56.3293123  26.7802596
  45.2368689  56.8954754  26.0298204  46.3422441  56.1000776  26.6904759
  56.8230244   6.3650871  33.6689425  56.7166897   5.7762695  34.4160795
  57.4741598   7.0041824  33.9584351  49.1266938   3.5950209  23.3380747
  49.9133130   4.0870071  23.5734701  48.4028026   4.1821028  23.5561347
  15.2890062  52.5679588  47.7123260  15.0871217  51.6480732  47.8834534
  16.2383544  52.5863361  47.5913715  27.1862984  43.6990547  30.8948374
  26.4942312  43.2408285  30.4180741  26.8763638  43.7256098  31.8000817
  58.0740935  33.9776312  59.4866881  57.7342466  34.2077957  58.6219570
  57.3470146  34.1526542  60.0841459  73.4061658  48.5729027  56.5419102
  72.6691597  47.9776144  56.4052153  73.1981986  49.0281487  57.3578358
   4.4903418   0.5452848  13.7940943   3.6948916   0.9173180  13.4131956
   4.8220774  -0.0499271  13.1218529  68.8839620  71.1887217  52.4547100
  68.3153254  70.9532022  53.1877947  69.7459966  70.8551884  52.7034760
  36.1157775  69.0993643  45.7945108  36.4895678  68.2679510  45.5025053
  36.8033862  69.4965315  46.3290024  79.7986479  57.5802851  59.6113443
  80.5876372  57.0470190  59.7080708  79.0862279  56.9443274  59.5461798
  65.6907626  30.0564743  49.1377449  65.1248141  29.4444634  49.6082449
  65.3530332  30.0548435  48.2421064  23.3466952   0.6208445  52.7768946
  22.8174498   0.2519203  53.4840202  23.7978842  -0.1330637  52.3970461
  15.8720966   4.7420956  50.2915573  16.0168871   4.0644861  50.9519434
  14.9368819   4.6887327  50.0946856  18.0301114  13.4254433  30.7626796
  18.1494489  13.6182285  31.6926384  18.7757858  12.8698803  30.5356312
  70.8567520  11.0838104  51.5806293  71.3842817  10.3449703  51.2772131
  71.2813612  11.3643528  52.3913240  30.8734918  38.4475398  39.7905684
  30.0218439  38.0120754  39.7545052  30.8246541  39.0052271  40.5669880
  28.8349982   9.4902302  45.2580643  29.5218962   8.9919354  45.7009029
  29.1635420  10.3891350  45.2422237  32.2245312  49.5971584  11.4769650
  32.0878291  48.8602304  10.8815837  31.4222622  50.1144218  11.4059997
  44.7091719  13.8344551  32.3753166  44.7565182  13.4647156  31.4936781
  45.3939148  14.5030952  32.3917198  21.5032220  63.5001898  57.0615816
  22.4428940  63.3246422  57.0122337  21.1138368  62.6568699  57.2927237
  21.8147898  70.5869150   1.0280702  21.9016933  70.2229881   1.9091138
  21.7452526  69.8209095   0.4583064  51.7303630  13.9167477   2.9814240
  50.8620974  14.1622139   2.6619056  51.8779012  13.0407120   2.6250100
  70.8430570  46.7690945  40.6990767  71.6667914  46.2833834  40.7412529
  71.1056471  47.6700783  40.5106497  51.9771858  59.9796425  44.7136280
  52.6589928  60.3893696  45.2460763  52.3061004  60.0384270  43.8166377
  25.7903290  45.5050325  22.6765823  25.2787995  45.7002592  23.4617305
  25.9774280  44.5684004  22.7393723  68.3475117  23.9434233  11.6438225
  68.0603699  24.6830645  12.1792820  67.5367145  23.5027018  11.3896492
  63.3064490  26.1488295  29.3454146  62.6208943  26.2093973  28.6801481
  62.8604418  25.8019376  30.1180553  62.3245572  24.5976868   4.5029620
  62.8596298  23.8081160   4.4223240  62.7190356  25.2179899   3.8899020
  68.3512430  45.6142559   0.3292111  68.7362664  44.7643891   0.1154164
  68.9899139  46.0271397   0.9104756  78.2339090  52.7371454  60.0933838
  79.0429508  52.2277021  60.1397610  77.5710605  52.1704245  60.4879618
  61.7326995  33.6703850  47.1940374  61.0373946  34.2647244  46.9120026
  62.1285196  34.1059185  47.9489279   1.1961992  59.2020369  44.4320965
   0.6219697  58.5195208  44.7794676   1.6586666  58.7802649  43.7079000
  41.1152363  73.5830784  64.7446918  41.6094112  73.0219364  64.1470718
  41.4145613  74.4696951  64.5433283  30.0460779   8.4791161  62.8340912
  30.4737531   8.4410645  61.9785929  29.9524405   7.5632263  63.0960131
  72.2494118   8.3536806   3.2040575  71.5791337   8.1905594   3.8676480
  71.7962186   8.8506403   2.5229719  40.5436023   0.5016018  55.6997538
  40.9364780   0.7140137  56.5463686  41.2903031   0.3432251  55.1221848
  14.0779054  63.9579105  46.5844059  14.6302295  63.8329601  47.3561335
  13.1924784  63.7589502  46.8888187  78.8170757  32.9979396  22.5703621
  77.9362443  33.0871558  22.9342413  79.3097416  33.7228060  22.9551721
  60.6585165  19.3201901  52.7415991  60.8787652  19.0606285  53.6362219
  60.0625106  20.0617100  52.8472090  53.3979293  15.9563900  11.9759190
  53.2364365  16.3411404  12.8373814  52.5252696  15.7714821  11.6287780
  74.7312969  68.5274982  49.0613747  75.3763213  68.1092024  48.4911060
  74.0613210  68.8581848  48.4630346  19.8132952  12.0127464  26.5513158
  19.1323193  11.9698216  25.8800030  20.5183735  12.5170208  26.1453533
  41.6929531  53.4207964  26.9034410  41.4642286  54.3499804  26.9265604
  42.6237726  53.3976650  27.1254015  49.7388007  13.6938181   6.7765978
  49.3757348  13.8743534   7.6436737  49.0207817  13.2798472   6.2977341
   5.9821767  63.1001854  33.8114500   5.6336319  63.9665747  33.6014032
   5.2322459  62.6184893  34.1604495   2.6747382  44.0902615  41.9350386
   3.1315097  43.3210468  42.2754860   3.3743462  44.7003174  41.7013597
  71.0281354  41.1839199  44.3525839  70.6310576  41.7114353  43.6595583
  71.9470328  41.4518547  44.3608522  13.0865896  48.0125999  38.3047533
  12.1658218  48.2221889  38.4612465  13.0988240  47.0632267  38.1832314
  73.4951966  38.6319771  21.2085036  72.9371862  37.8542748  21.2027815
  72.9219215  39.3358698  21.5120200  79.3589260   0.2985788  47.9990292
  79.6748950   0.1511694  47.1075869  79.8516729   1.0600544  48.3049440
  55.3677082  62.2896528  21.8362236  55.6989527  61.7326498  22.5406790
  55.4181194  61.7411518  21.0533834  50.3033110  13.4865452  38.8154221
  49.3596049  13.3347012  38.7645054  50.6601783  13.0348946  38.0506372
  43.1682309   4.5330835  38.1353307  43.8590320   3.8749672  38.0584407
  42.6705166   4.4540859  37.3215294  49.2852484  27.4615755   3.9276341
  49.4851740  26.6051426   4.3054989  49.8971011  27.5496569   3.1968096
  74.7233292   5.7625557  45.3194523  74.3214937   5.2543713  44.6148205
  75.5009075   6.1525799  44.9200916  51.1983257  62.7617598  41.5378666
  51.3209921  63.6185169  41.1290216  51.3546020  62.9163599  42.4694824
   5.1478192  28.0422474  44.0583706   4.9777194  27.1002842  44.0555334
   5.3043028  28.2601429  43.1395340  26.5422821  70.5939960  35.4748464
  27.4773836  70.6393242  35.6742477  26.1675835  70.0895882  36.1969328
  65.0046830  37.4144593   0.4759816  65.9270446  37.2001305   0.3361777
  64.7542469  36.9040671   1.2460545  79.9640760  45.7180630  53.5918960
  79.9223480  46.0967480  52.7137789  79.4416842  46.3100467  54.1330930
  11.5843201  56.4593744  20.9827757  12.1918976  55.7343435  20.8364582
  12.1133578  57.1325397  21.4107943  22.6882839  61.1763334  34.2960858
  23.0442691  61.4572763  33.4531307  22.6283550  60.2236414  34.2252302
  11.7992771  65.8097410  34.0876865  12.7262115  65.5710220  34.0816116
  11.3631439  65.0660563  34.5035648  14.3037879  54.3928957  35.2572131
  14.8741913  53.7922049  35.7368350  14.5475769  55.2614880  35.5771279
  33.3096608   1.5554262  26.7415261  32.7869990   1.1728359  27.4462819
  33.3090659   2.4947430  26.9257092  50.3949314  69.5844603   4.7483164
  49.4439846  69.6085978   4.6417782  50.5579620  70.0723219   5.5555618
  66.7315489  47.3608780  33.0081582  66.6958147  48.3041906  32.8496838
  67.0112091  46.9879770  32.1721125  44.6768447   2.5615288  42.9135609
  45.2538582   1.8831516  42.5627184  45.1100382   3.3847023  42.6878071
  75.2622740  49.9199715   3.8940361  75.5695193  49.8091927   4.7937897
  75.1368992  50.8640805   3.7982825  61.7846304  38.2829380  27.1642303
  61.7665094  38.3121872  28.1208134  62.7004486  38.4437895  26.9369960
   1.0075705  37.7352905  23.3183861   0.1659520  38.0904078  23.6043954
   1.1287944  38.0872393  22.4365306  35.9540915  67.9398203  52.4202633
  35.4620099  67.1224308  52.4974680  36.7897487  67.7578259  52.8501320
   8.3921355  64.2544127  43.7479258   7.7405548  63.5545444  43.7047911
   9.0973783  63.9609623  43.1710815  57.3980113   6.1946655   8.5946989
  58.2654210   6.3675476   8.9606822  57.0108076   7.0620037   8.4762526
  22.3452282  74.4846964  63.2795095  21.4143300  74.3377829  63.4470606
  22.6717997  73.6357975  62.9812670  18.4712863  74.6719122  59.1777992
  17.9121673  74.0803051  59.6814013  18.2024753  75.5482244  59.4535685
  15.0748621  10.4333058  15.8996085  15.3219448  10.2820292  14.9873045
  15.5062710  11.2557402  16.1313799  13.9707049  31.3634754  18.8894200
  13.8746890  30.5595375  18.3788490  13.9375039  32.0653893  18.2394588
  42.1062183  71.2581921  20.3110957  42.0310450  71.1945581  19.3589771
  41.7847300  72.1355820  20.5186296  10.7190069   3.4805418  57.5914383
  10.6169637   4.2887808  57.0888710  10.5206641   3.7326218  58.4932947
  12.5503838  39.0971971  45.0709677  13.0859947  39.8428512  44.8001289
  11.7277372  39.2074728  44.5941830  55.5668717  54.1330051  40.9714794
  56.1716372  54.3863964  41.6688204  55.0224262  54.9080563  40.8332539
  14.2248617  56.2696591   0.1252011  14.3130242  55.5881253  -0.5411121
  13.8850390  55.8109226   0.8935240  12.3271426  19.6690727  24.1593814
  11.9852551  19.1145969  24.8607421  12.8216644  20.3515697  24.6131206
  36.9326448  62.8444815   3.4419069  37.6414013  62.8341246   4.0851688
  36.2598181  63.3998203   3.8357797  28.2200789  62.2468138   8.5455197
  28.6150503  61.8392944   7.7747035  27.4232507  62.6618052   8.2152456
  56.5475644  68.4516868  15.0540659  56.6764225  68.5925278  15.9920379
  56.3258709  69.3170295  14.7101661  16.3406217  53.6551952  22.2427225
  16.5900028  53.8292027  21.3351083  15.3927839  53.5257053  22.2100616
  31.9097372  16.4236427  11.6564596  31.6167607  15.5849148  11.3001859
  32.7457210  16.5899731  11.2209189  67.6420733   8.5588528  58.9879322
  67.9685780   8.3194901  59.8553038  68.4312245   8.6786533  58.4596157
  71.5645027  49.4478369  40.6743860  71.7648476  50.1867867  40.0998878
  72.3814094  49.2818832  41.1448717  50.5604410  72.7313185  61.5951061
  50.6706953  73.0442286  62.4929714  51.2179041  73.2114840  61.0916948
  49.8421007  73.1385660  47.9024982  49.5799786  74.0546513  47.8113317
  50.2075582  72.9078770  47.0484161  76.7906564  72.4661922  44.5294809
  76.9763279  71.5345478  44.6469355  77.2916120  72.8992510  45.2206659
  53.8301434  18.8002625   3.1741455  54.4164597  19.3525400   3.6913040
  54.3109022  18.6340370   2.3632983  65.0221306  62.4992323  47.0314693
  65.4768663  63.1275797  46.4705563  64.3858987  62.0785475  46.4531422
  74.6577422  60.4829731  13.5753372  74.6216194  60.8074131  12.6755265
  74.5138876  59.5399800  13.4958866  37.0950194   5.6044460  51.8993092
  36.1418112   5.5602909  51.9746494  37.2622105   6.4384914  51.4604044
  64.0749114  65.6738234  53.2513189  64.2321390  65.2188349  52.4239731
  64.6775466  65.2610588  53.8699389   6.1433470  33.1351352  18.6955512
   6.5864545  33.0597711  19.5406604   5.7572097  34.0109444  18.7048328
  46.0257026   0.3402926  11.0078228  46.4244398   1.2031342  10.8949327
  46.7011973  -0.1807808  11.4419007  62.3478704  68.3010435   8.9025009
  62.5355214  68.1387329   7.9780149  62.0130640  67.4659157   9.2291516
  41.1720821  22.6287628  43.9390659  42.0121237  22.9695393  43.6317682
  41.3786181  22.1920467  44.7654152  56.9405744  59.2703758  61.4595979
  57.0695878  59.4199405  62.3961970  56.1157117  59.7121368  61.2578964
  27.0473443  25.0050903  52.1815872  26.3521524  24.6566750  52.7397537
  27.7786686  25.1611401  52.7791214  57.6519891  32.7797676  14.0135837
  56.8609806  33.2978703  13.8648832  57.4718162  31.9405819  13.5898769
   2.2088872  61.5913868  62.1947861   2.9385224  61.0061407  61.9914341
   2.4205035  62.4056053  61.7381668  42.3373183   0.7680679  23.4950185
  42.7499529   0.4682137  22.6850486  43.0494496   0.7855440  24.1343880
  73.2520324  13.6871850  15.7215285  73.9470499  13.1841528  16.1459601
  72.4466562  13.2232261  15.9503126  54.3723532   6.1206413  15.1205385
  53.6505028   5.7237698  15.6080365  54.9510809   6.4749504  15.7956445
  45.1212835  61.6500235  60.0174618  45.2759790  60.7055998  60.0366259
  44.2663288  61.7442083  59.5974493  54.3225857  21.7726875   7.8399891
  55.0622603  21.7656303   8.4474951  53.5832568  22.0769859   8.3663189
  40.8214808  58.0321836  46.0446501  40.8929348  58.4090805  46.9216204
  41.4546442  58.5229349  45.5207253  28.9391422  68.9216089  51.8065977
  29.4475722  69.6521044  52.1588850  29.5635223  68.1978989  51.7553663
  62.7665697  25.7192888  12.1822575  62.5085639  24.8516693  11.8709687
  62.4527572  26.3195219  11.5058878  61.5841692  75.0839949  51.1572647
  60.9194523  74.5979309  50.6692791  61.2440520  75.1233912  52.0511293
  69.0822655  58.0008793  22.9736543  68.8285142  58.9221048  22.9172325
  69.2115181  57.8449154  23.9091778  59.9584004  10.4198242  13.2193875
  60.8379336  10.2799583  12.8685451  59.9669334   9.9800659  14.0695488
  68.7695213  10.3147579  33.0909967  69.4021555  10.9793259  32.8182983
  68.5647293   9.8353172  32.2882318  46.8351074  26.7269779  25.9245515
  47.2537895  25.9064938  26.1848307  47.5016280  27.3960281  26.0806155
  64.2693052  20.6362234  46.3022741  64.5270655  21.4414058  46.7511377
  64.4017849  20.8267723  45.3736338  72.8781914  61.1773920  15.3835690
  73.6557126  61.1565876  14.8256624  72.2324168  61.6690922  14.8761868
  24.3783355  73.4832859  18.6916661  24.2136908  74.0927029  17.9721284
  25.2867675  73.6496162  18.9432967  25.4907775  59.8275375  38.6820173
  24.5725274  59.5923090  38.8151169  25.4892516  60.7837677  38.6389470
  20.2570629  68.6459255  58.0071926  19.8669577  68.1841946  57.2650003
  20.8666897  68.0142117  58.3886623  10.1968515  69.3810320  40.9301043
  10.0271893  70.1069403  41.5305233   9.3280113  69.0484667  40.7048368
  60.8433104  73.2648182  14.8152614  61.1084175  73.6758423  13.9924550
  60.6551647  73.9989328  15.3999913  16.6034532  68.5328007  41.9197941
  15.7961524  68.7424898  41.4501858  17.0036471  67.8308725  41.4065933
  17.6970541  75.0283003  40.1389837  17.4612451  74.4255352  40.8441782
  17.0754325  74.8318529  39.4381070  13.9898288  55.9575844  56.1100292
  13.0682290  56.1861753  56.2309933  14.0094578  55.4693508  55.2869415
   3.0826658  58.8179684  61.4486122   3.1368339  58.1276941  60.7876873
   2.7271563  58.3811378  62.2225809  48.6309719  70.3311920  61.0822916
  49.3447065  70.8474684  61.4568281  49.0693378  69.6667147  60.5507469
  73.7016993  53.4393406  44.5564699  73.0879712  52.7505255  44.8116302
  73.8115746  53.3246136  43.6125422  42.8998470  65.2780819  35.6305552
  43.4678316  64.8298359  36.2572145  42.5628138  66.0342312  36.1110568
  35.1304325   7.1960522  38.7757349  34.8973336   8.1212593  38.8524437
  34.3186178   6.7660118  38.5069299  33.9362478  73.7344742   3.9946187
  34.2306471  73.5457897   3.1035757  33.4452629  74.5524359   3.9164808
  19.6336246  72.2609520  63.6754608  19.9153113  72.1204424  62.7715015
  19.1652238  71.4591599  63.9077520  66.7460867   5.2090336  45.3265619
  66.5569755   6.1374260  45.4627895  67.6140352   5.1980949  44.9231100
   2.4845938  65.8159685  46.1922359   3.3392584  65.4115629  46.0431147
   2.6839122  66.7308712  46.3908720  29.7211075  71.8764257  63.0355549
  28.9656353  71.9771099  63.6146545  30.4130745  72.3892307  63.4532166
  34.1875315  55.4298973  31.6062069  33.2718873  55.3526831  31.8742824
  34.1618133  55.3855371  30.6503797  55.2919203  73.7117672   4.5223486
  55.7277184  74.2439747   5.1879811  54.9339896  72.9679585   5.0069791
  41.4170571  15.5176617   1.4204422  41.0293218  16.3803078   1.5678464
  40.9903725  14.9503876   2.0626050  67.7947642  10.6509090  26.0727930
  67.7546479  11.5596939  25.7749104  67.1457817  10.1944805  25.5373287
  30.9493113  44.1578770  21.3344884  31.0972691  44.0523243  20.3947020
  31.3614488  43.3896017  21.7296147  48.5217953  57.8407907  20.4278398
  49.3362045  58.3022213  20.6279540  47.9287577  58.5251427  20.1176763
  12.5304659   4.0665508  50.4411888  13.0117282   3.4811665  51.0259485
  12.1593758   3.4878040  49.7751713  75.6210848  13.2970978  17.3618197
  76.0474917  14.0470959  16.9471967  75.0666376  13.6819054  18.0406022
  60.2648612  10.7805992  29.2577171  60.7171770   9.9395252  29.1925907
  60.9225222  11.3794781  29.6113563  68.7611529  10.9499622  13.8055861
  69.1559025  11.7816521  14.0676582  68.7360760  10.9874893  12.8494513
  44.8094484  22.9183842  31.8229842  45.1347800  23.0150867  30.9279752
  44.8661228  21.9790817  31.9982553  14.4043624  37.3873997  46.2182045
  13.9399529  36.5699697  46.3981056  13.8339019  37.8582549  45.6106663
  76.2331625  13.6923672  30.6400061  76.9533392  13.6625839  31.2698388
  76.6628119  13.6909367  29.7846532  63.3755159  47.6096249  52.8072977
  63.9859104  46.8821335  52.9273319  63.7660217  48.3332634  53.2972813
  61.3952109   6.6171528  23.0246115  60.5024835   6.9617821  23.0022430
  61.3045546   5.7002331  22.7652407  23.9355397  69.6199369  10.5435920
  24.2453909  68.7746191  10.2185380  23.1363893  69.4120598  11.0277200
  25.8356547  47.2740412  27.2884917  26.4445400  47.9417515  26.9728136
  26.3913751  46.6345167  27.7339292  64.6860075  71.6665125  40.9753799
  65.4991770  71.2311745  40.7195044  64.9708700  72.4760008  41.3994217
  35.5576905  18.0616165  40.7074833  34.7561678  17.9436661  41.2172699
  35.7290616  19.0026070  40.7449389   8.8208860  51.7739153  48.3286285
   9.4166154  51.3945150  48.9746857   9.0191060  52.7102852  48.3408785
  70.3238150   1.1865021  43.0470610  70.1597925   0.3042437  43.3801508
  71.0321041   1.5221239  43.5965300  20.9784174  32.2998619  14.6311045
  20.7636571  31.3776422  14.4910324  20.8191037  32.7143526  13.7831378
  28.8946748  67.8044844  22.0718908  29.3614078  68.0866432  22.8585172
  28.1797194  68.4340954  21.9788170  65.6791544  65.8270168  26.6009808
  64.7735596  66.1368799  26.5906906  65.6711006  65.0452614  26.0486913
  63.8145596   4.5177087  53.0104494  64.7667926   4.4216374  52.9944801
  63.6213940   4.8433220  53.8895941  11.8821979   7.8473032   0.8893671
  12.4392498   7.0851159   0.7312677  12.1872175   8.5014391   0.2606376
   4.4114575  54.5245075   0.7700305   5.1128650  54.3972826   0.1312240
   3.9654967  53.6783791   0.8077677  12.6145589  32.8054118  39.2099428
  13.2928550  32.8303599  39.8848677  11.8847203  32.3420477  39.6208692
  71.2873316  34.5348978  33.2454491  71.8927592  34.1385078  32.6188993
  70.6544596  35.0048876  32.7024817  50.3945053  74.3040631  27.2556496
  50.7203111  75.0928074  27.6891994  50.0971535  74.6076715  26.3979578
  73.2391655  58.8282394   7.7454752  72.8632265  58.0981731   8.2373148
  73.8981813  58.4231234   7.1817279  67.0797354  23.8308167  15.8910871
  67.5518745  24.2682290  16.5995967  66.5104657  24.5092869  15.5279887
  26.9452429  29.6066976  44.5086241  26.0280037  29.7013831  44.2518330
  26.9364953  29.6873021  45.4623842  71.4051097  19.7557831  22.9273295
  71.8709933  18.9467609  22.7159858  71.6310441  19.9306118  23.8409066
  18.7481093  19.3184543  15.6821632  18.0798137  18.6646366  15.4768944
  18.9489961  19.7279704  14.8406327  64.6836905  10.3448286   4.3851927
  64.2707221   9.4822111   4.4248894  65.5654471  10.1732578   4.0545872
  33.5646367  27.5268221  41.3631582  33.2844424  27.3310137  40.4690742
  33.4593391  28.4746885  41.4449883   5.4214996  34.6505690  23.3364201
   4.9676055  35.2124810  22.7083540   6.0718220  34.1825294  22.8127289
  21.1650133  25.2219224  30.8854771  21.1711311  25.4308581  31.8195772
  20.4046416  24.6515489  30.7726026  53.2412177  65.9343338  29.3434072
  53.8272744  65.9660196  28.5872555  53.5819989  66.6019630  29.9386978
  68.9307186  28.2674347  52.2364446  68.5212443  29.0846620  51.9523617
  68.2033644  27.7335773  52.5561103  21.5045881  49.8243999  31.7985368
  21.4950585  49.1233778  31.1468363  22.0605421  49.4897270  32.5021982
  23.4685755  44.6807289  35.0780201  23.1453586  45.5092573  34.7240376
  24.2801166  44.5155573  34.5980692  24.7750020  16.3840699  18.0726767
  25.1948452  15.7890058  17.4514973  23.8747311  16.0655904  18.1383634
  73.7880192   2.8500353  52.7328226  73.5593614   1.9572340  52.4742600
  72.9625747   3.2317529  53.0314216  30.4623747  13.5064662  22.9708433
  31.0866070  13.1807518  22.3224044  31.0000944  13.7263715  23.7315869
   0.3360076   8.1922668   2.0957904   0.7937403   8.7274855   2.7440602
  -0.1680816   8.8208705   1.5790865  55.7421142  63.5344696  28.9017987
  55.9893781  64.4590616  28.9169145  56.5669971  63.0639458  29.0218210
  69.6492618  12.2395194  40.5838346  70.0191456  11.3711536  40.7430744
  68.7882703  12.2133374  41.0012531  63.1713829  73.8705390  32.8159475
  63.7115035  74.4584562  33.3440137  62.6012591  74.4540702  32.3152661
  34.3012404  20.1851678  34.7301149  33.9943242  19.3826425  35.1519990
  35.0078106  19.8968673  34.1523004  30.1823187  40.3612947  17.2155380
  30.0897527  39.4085860  17.2184408  30.0164485  40.6152868  16.3076782
   3.1167820  55.8858395  19.5968461   2.7503440  56.5381622  18.9998305
   2.4500951  55.7811499  20.2756691  67.0214230  53.0990791  23.0765867
  66.8033701  54.0299511  23.1230783  66.6768962  52.7314425  23.8904500
  69.2069953  23.6623836  17.9297137  69.7408610  23.3728170  18.6695588
  69.3534296  22.9996276  17.2547758  54.9442607  22.7672577  48.2102919
  55.4614311  22.7829432  49.0155983  54.9307781  23.6781621  47.9165220
   3.4308642  13.8645232  27.3750663   3.9319554  13.1177795  27.0471716
   3.8954413  14.6309161  27.0388508  32.2038078  15.2844858  29.0604329
  31.2991309  15.5864215  29.1418219  32.4275303  14.9603486  29.9328518
   1.7274147  51.2635994  12.1757364   0.7789042  51.2166071  12.0559394
   1.8601589  52.0256710  12.7395248  78.8441847  26.2553358  39.1838002
  79.4894203  25.7449698  38.6944866  78.5244168  25.6547689  39.8570752
   2.2134881  25.5287910  15.4481626   3.1265634  25.2552843  15.3603029
   2.2389124  26.2498260  16.0772061  49.6538732  75.3779181  16.6846657
  50.1956904  74.7319551  16.2314570  48.8074804  74.9449105  16.7958224
  17.6193929  37.6542044  62.8350496  18.2555032  38.1972003  63.3006191
  17.9268312  37.6490450  61.9285822  61.8026215  32.4049449  21.5819287
  61.0576123  32.4615598  20.9836078  62.4637848  32.9796886  21.1962271
  11.9292653  26.5232110  31.9081473  11.8465400  27.4759817  31.8679428
  11.4955926  26.2794399  32.7259111  70.9961217  55.9794712   3.7558681
  70.6773424  55.7563829   2.8813148  71.9390702  56.0997915   3.6436114
  69.3765264  33.4641123  45.8072805  69.9303722  32.7121282  45.5975056
  68.9303988  33.6695957  44.9857092  16.6925752  26.4172554  35.7564569
  16.2029469  27.2339988  35.8535337  16.0455954  25.7861638  35.4412222
  71.8532623  51.2575326  64.1771474  71.9798292  51.0194144  63.2587182
  72.2746528  52.1126733  64.2631327  14.1903043  16.6522121  36.4538884
  13.3283043  16.9024110  36.7864347  14.0040195  16.0384047  35.7434154
  60.3341559  69.1033601  14.1205001  61.1587528  68.6437648  14.2787540
  59.6788088  68.4077780  14.0664756  64.1755885  38.4136033  32.7006888
  63.4673685  38.7421370  33.2545137  63.8360435  37.5955129  32.3378277
  12.0296776  55.6351137  14.9211717  11.1446750  55.2704287  14.9239564
  12.3040831  55.5908537  14.0052164  11.3481911  28.3686043  44.5183039
  11.1590680  27.4321819  44.4584942  11.0491475  28.7272049  43.6827135
  63.6022001  45.1615143  25.9534812  63.0239707  44.4215584  25.7681608
  63.3711010  45.4291677  26.8429685  45.6047583  26.8827367  37.9444718
  46.1560440  26.2041354  37.5548363  45.0254011  26.4078069  38.5403109
  38.6569309   6.2971914  29.8872185  39.0462828   6.1230808  29.0302920
  38.2379484   7.1523857  29.7906303  19.6073198  22.1314144  40.1116419
  20.0386262  21.3394189  40.4325008  19.3656850  22.6104426  40.9043407
  31.0088968  35.0971174  13.6659670  31.8573976  34.6927881  13.4848607
  30.8526635  34.9207187  14.5937097  10.0191450  69.8997498  45.4273701
   9.5622575  69.8034525  46.2629604  10.4773426  69.0679073  45.3076696
  67.9026919  35.6616664  26.8704534  67.3124367  36.3849640  27.0818090
  68.1050020  35.2625370  27.7166200   1.1589763  42.8321171  29.7938824
   1.0936430  43.7187481  29.4391394   0.2737650  42.6293516  30.0964046
  67.8731602  56.1543941  32.3304629  68.6929255  56.3321877  32.7915549
  67.6349765  55.2670097  32.5988865  25.6568670  48.8661671  15.7461965
  25.5212283  49.6085930  15.1574385  26.5810657  48.9192772  15.9896505
  55.9493357  26.2018085  17.8633785  55.0020772  26.3243151  17.9260302
  56.1404639  26.2859821  16.9292390  30.6552148  43.2864571  26.8834019
  31.2727618  43.7838268  27.4195838  30.4585791  43.8644266  26.1461639
  14.3485487   7.6373976  54.1810465  15.0945961   7.0523697  54.0491867
  14.7002292   8.5134500  54.0226603  33.1390667  61.0846186  45.2263212
  33.0668736  60.3873062  44.5745707  32.6592541  61.8197346  44.8447227
  41.1172443  47.5363779   0.3093641  40.2844316  47.3345852  -0.1171745
  41.2424832  46.8258905   0.9384548  79.1920130  24.1133690  12.1374273
  79.8445018  24.8136044  12.1247172  79.3595388  23.6447001  12.9550552
  23.5856462  40.9000683  39.1488957  22.8710985  41.3314819  39.6174431
  23.8657284  41.5416002  38.4960389  71.3955897  36.7551589  20.9950137
  71.0405624  36.4272428  21.8212438  71.4002192  35.9923601  20.4167843
  72.4789069   8.4758745  48.2774076  72.2760866   9.3958650  48.4468624
  73.0220327   8.4915624  47.4893710  70.2961760  19.4379628  49.9018955
  70.1441341  18.9233279  49.1092634  71.2237125  19.6710050  49.8619080
   6.7549754  51.9713650  28.6474177   7.1961595  52.4483750  29.3503043
   5.9014810  51.7401240  29.0138957  31.7715430  27.2172594  19.6594191
  32.0521522  27.9208612  19.0742409  32.4484110  27.1836805  20.3354025
  17.4964619  71.4543819  48.6604357  17.6343679  72.3240376  48.2850504
  17.0375407  70.9679270  47.9756069  66.8742484  56.4923334  18.9806962
  67.0547753  56.5861416  19.9160254  66.3172692  57.2411680  18.7679791
  23.6283612  29.0935421  29.2511535  22.8828859  29.6829963  29.1369462
  23.3595252  28.2814121  28.8217306   1.5406922  61.3710832  26.8155646
   1.0890416  61.5962993  26.0022235   2.3355345  61.9042944  26.8037105
  67.2881430  39.4411922   5.9826565  66.7066365  38.6924148   6.1146164
  68.0965918  39.0592933   5.6409001  24.3782045  38.5884308  61.6924465
  25.3170859  38.7293143  61.8144500  23.9633868  39.2855867  62.2005132
  11.4825583  60.2023172  25.5278301  10.7503533  59.6291256  25.7548928
  12.2203445  59.6071529  25.3948522  66.8616706  24.2230105  20.0686979
  67.2718769  24.3342638  19.2110348  66.5770179  25.1033521  20.3140569
  49.1946035  52.1193886  16.4780390  48.6390072  52.6603317  15.9168553
  50.0215178  52.0499325  16.0009432  32.3985228  68.2602703  57.4501705
  33.2809648  68.5545306  57.6758623  32.4101767  68.1775652  56.4966202
   6.6881412  44.2821169  37.1668291   6.6455132  45.1622009  37.5408268
   6.6893047  43.6990738  37.9259682  54.2440110  39.6740627   9.6325254
  53.8971549  39.6282649   8.7415570  53.4670406  39.7057414  10.1906896
  11.5604235  49.3796429  60.8741608  11.6240312  48.8378141  60.0876453
  12.2869147  49.0882883  61.4251181  71.8595540  30.8120704  18.2324839
  70.9818983  31.1730099  18.1072819  71.9556695  30.1674366  17.5314558
  67.3435718  21.6247582  47.0197439  67.1855348  20.9747910  47.7044296
  66.9580704  22.4314189  47.3616791  21.5525317  38.6254168  24.0721083
  20.8371735  37.9902720  24.1050553  22.3298550  38.1009150  23.8800073
  32.3352059  11.2322117  38.5541391  31.6937008  11.6747833  37.9984117
  31.9347718  11.2254406  39.4235301  66.6894239  29.5969677  27.7620053
  66.1484641  30.3126478  28.0957651  66.7194313  28.9645243  28.4798837
  62.0428071  14.8585258  56.9961694  62.7744791  15.1291071  56.4414856
  62.3242572  14.0254722  57.3743716  21.5668941  19.2124557   5.4517180
  22.0265150  18.8612986   4.6890455  20.6598234  18.9295161   5.3359532
   7.5169901  41.4388786  45.5420956   7.7316359  41.0060154  46.3684055
   7.1277384  42.2735296  45.8029923   7.2941071  66.6832781  17.7365232
   6.6261297  66.1592340  17.2944641   6.8773812  67.5334835  17.8769541
  60.8513826  48.6825991  14.9931109  61.5609699  49.2977142  14.8077750
  60.9306639  48.5005617  15.9294915   5.1163208  28.9198065  11.9605184
   4.2942545  28.8915539  12.4500489   5.6890965  28.3046913  12.4185503
  65.1224321  19.3202031  19.5706987  64.3956524  19.6486986  20.0999570
  64.7032732  18.8028026  18.8830686  11.9880450  56.6989136  47.0080519
  12.5349271  57.3001957  46.5024710  12.0517004  57.0169640  47.9086208
   8.8176268   6.3602662  10.2716660   9.6494657   5.9708118  10.0022197
   8.8538170   7.2568333   9.9383646  65.3331929  51.3167953  42.3427963
  65.6448132  50.5212164  41.9113159  64.6250647  51.0181332  42.9133987
  66.7409807  43.1879902  29.4897485  65.9068686  43.2550192  29.9545002
  67.2319132  42.5236654  29.9733686   7.3943257  20.1811576  40.2364635
   7.9198146  20.3196907  41.0244370   6.6703117  20.8017898  40.3192377
  66.1819404  49.9589348  11.9939017  66.8770021  50.1416731  11.3616621
  65.7475871  50.8021259  12.1227205   0.9297953  41.8578196  50.5889988
   0.5585992  42.7033281  50.3368902   0.7193802  41.2764120  49.8582983
  64.7804675   5.8716713  57.7006236  64.8885045   6.7984854  57.4871209
  65.6737575   5.5309950  57.7475831  63.3844465  14.4407415  18.8589907
  63.3631998  14.7912121  17.9685128  62.6599782  14.8784220  19.3059945
  14.3094254  65.8785200  19.4400239  13.8457859  65.0418043  19.4742918
  14.3883753  66.1462688  20.3556156   8.1961948  51.0742426  45.6686449
   8.6148411  51.0518360  46.5291500   8.5720664  51.8427944  45.2393675
   3.7416543  42.0066247  56.6542044   4.2376984  42.0906455  55.8398863
   3.8320960  41.0848213  56.8957224  71.7997688  61.1503077   9.1196704
  71.1368054  60.5299234   9.4227123  72.5105303  60.5997944   8.7910616
  40.4390383  20.9709024  34.2844820  40.6528378  21.5921545  33.5883737
  40.3817225  21.5074611  35.0750828  78.6541790  30.0378728  21.9118905
  78.7456707  30.9300351  22.2464228  77.7161976  29.9380946  21.7492032
   4.0550126  65.1143441  32.9840776   3.3566583  65.4917917  33.5189292
   3.5989107  64.5588121  32.3519489  69.1185933  35.7979488  16.4099002
  69.2489797  35.1548195  15.7130396  68.3166748  36.2588549  16.1634791
  73.0206322  13.4478116  50.0736237  72.7103835  14.1189229  50.6815624
  73.6349594  12.9241836  50.5880642  60.6001299  51.6553974  25.8996463
  60.5677575  52.6108694  25.9472036  61.2989825  51.4089727  26.5055418
  26.6315198  37.8238893  30.3255343  26.1188316  37.0909238  30.6663322
  26.1921573  38.6027479  30.6669641  48.6115087  72.0549640  52.7517733
  47.6904191  72.2497115  52.9246899  48.8571895  72.6606426  52.0524701
  32.0039296  50.0639009  23.6250091  31.4945817  50.2563906  22.8377700
  31.4360571  50.3290987  24.3484879  56.3431793  38.1316257  12.4307895
  56.8617731  38.2095194  11.6300237  56.3938147  37.2035575  12.6596057
  72.0205545  55.3653622  27.3402262  72.2793269  55.4072905  28.2608294
  72.6989257  55.8577728  26.8780828  38.2059151   0.7725886  59.6707773
  37.4768454   0.5902703  60.2636099  38.8046795   0.0360060  59.7938967
  43.0177927  19.9401259  30.8919811  43.3212137  19.8006439  31.7890382
  42.9218435  19.0584898  30.5317807  66.1823135  58.1959581  14.6117508
  66.5002948  57.8128242  13.7942374  66.0880774  57.4505901  15.2048564
  12.0290506   8.4472150  25.9759521  12.1946108   9.3121934  25.6009412
  11.4230347   8.0320853  25.3622365  20.1734829  14.9729264  42.8306437
  19.6158159  15.2094221  42.0894909  19.6470118  14.3562424  43.3393288
  69.6322268  18.2396913  56.0235596  70.4703259  18.7002599  55.9823513
  69.3045574  18.2577312  55.1243687  21.2247920  57.9937649  31.7707920
  21.0404968  57.1172285  31.4332199  20.9153724  58.5847473  31.0843301
  75.1725083  27.1970415  12.3085296  75.7084185  26.4523602  12.5814474
  74.4221800  26.8021441  11.8643498  48.7688364  60.1521215  57.0813134
  49.2973961  59.7185335  56.4113435  49.2023028  60.9941110  57.2205689
  74.5777464  37.7337742   1.7020902  75.2997845  37.1855426   1.3949518
  74.1112655  37.9843211   0.9046854  21.9527960  46.0544538  25.3566813
  21.2974215  45.5253839  25.8114386  21.4481926  46.7490578  24.9334431
  50.3835786  73.3054799  36.1198878  51.2676061  73.0906733  35.8222556
  49.8174942  72.6918589  35.6516480  69.1863817  36.3791609  52.3188734
  69.2673021  36.6448855  51.4028645  69.9700910  36.7315412  52.7406120
  25.0705290  65.4315472  21.7580700  24.4318700  64.7380447  21.5925431
  25.0549412  65.9659863  20.9641147  60.9105187  47.8115511  17.6142836
  61.2159878  47.1582794  18.2436955  60.0352424  48.0485439  17.9208064
  38.4480271  70.7797151   1.1845246  38.1212244  71.3536065   1.8774034
  37.8297767  70.8986645   0.4635184  76.2640455  44.1838503   6.7976451
  75.4149067  43.8209105   6.5457153  76.8384233  43.4215498   6.8699020
  74.2243504  24.8495150  33.1016660  74.0492564  25.1010776  32.1948647
  73.7034613  25.4592943  33.6242318  27.9333901  32.5751567  26.6474819
  28.6013627  31.9358349  26.3998699  28.0277729  32.6650977  27.5957608
  32.1980667  58.9572239  35.6263018  31.3432026  59.3398046  35.8239698
  32.3733592  59.2169666  34.7218466  33.5421991  29.4655538   6.4180112
  34.1978669  30.1627946   6.4317584  32.7894688  29.8533916   5.9716785
   9.5762509  43.2491446  31.8028378   9.5066130  43.2236576  30.8485150
   8.9723724  43.9426327  32.0686150  37.9843066  11.4325510  59.4401583
  37.6481137  10.5720650  59.6906957  38.6921391  11.6033302  60.0614783
  54.1108900  58.7223339  21.7941523  53.4753567  58.0792475  21.4798737
  54.1529709  58.5754538  22.7390814  37.5051713  28.8266277  40.1819277
  36.7782688  28.6610937  39.5815587  37.7970815  29.7123265  39.9661565
  62.8302570  62.7242221   6.6837767  63.2401820  61.8613686   6.6231659
  62.9242059  63.0961575   5.8068112  75.3331163   2.0105305  54.7448921
  74.7097009   2.3994860  54.1314602  75.6511733   1.2260816  54.2980003
  62.7412714  37.3871335  55.3227159  62.8968180  37.3367646  56.2658486
  61.7911566  37.3139463  55.2324208  32.3243785   9.8245740  20.4998660
  32.0014620   8.9273649  20.4163647  31.5331125  10.3577948  20.5760741
  50.0183524  66.3048515  63.5257052  50.6684602  66.4141354  62.8316966
  49.8042191  65.3720674  63.5085779   1.3157126   6.7608429   7.6151156
   1.0236021   7.4221397   8.2424742   1.8604394   6.1659027   8.1304389
  67.6696831  28.2450247  32.9065251  67.5105971  28.7675548  33.6925817
  67.9156130  27.3816109  33.2385898  73.6485803  25.4665971  36.8724871
  73.0380267  26.1394477  37.1736979  73.4748924  24.7147250  37.4388409
  15.0296128  32.0922685   0.0707774  15.8176768  31.6160822  -0.1908204
  15.3550148  32.8248596   0.5939006  73.1224841  19.3835104  30.3323627
  73.9445656  19.7983003  30.0709009  72.4831277  20.0958633  30.3290510
  66.0381776  34.4561243  -0.2456644  65.8833641  34.7177815   0.6619695
  66.4497953  33.5944700  -0.1796444   8.3510512  55.4837751  38.9517903
   7.8794444  54.7337627  39.3141532   8.5745525  55.2179575  38.0598140
  39.9652232  70.1632294  56.0162017  39.0270866  70.2205477  55.8349702
  40.3640093  70.7935343  55.4162708  62.7247649  36.2337017  10.4428720
  61.8687957  35.8869386  10.1912689  62.5703102  37.1661115  10.5944800
  15.8205760  27.3330951  62.6953316  16.1584413  27.3644948  63.5903692
  16.4563036  27.8313828  62.1817255  45.9259144  69.9008434  44.6174097
  46.2891195  69.5667105  43.7972450  46.3150725  69.3475800  45.2946758
  61.9028908  11.7236185  59.1670179  61.8932718  11.3611126  58.2811689
  61.8143993  10.9610939  59.7388172  22.7927780  27.8521490  34.4784927
  23.6564827  27.7233887  34.8704982  22.9460287  28.4610295  33.7559915
  31.5665030  38.8484645  34.8716640  31.6588092  38.1129217  35.4772115
  32.4157953  38.9063931  34.4339657  19.1940618  44.9029398  34.7437978
  19.7537172  44.1268635  34.7707343  18.3035660  44.5546484  34.6996927
  55.7158490  61.9723667   1.3877085  55.4288717  61.4983739   2.1682289
  54.9242564  62.4022903   1.0640171  76.3131758  50.4804468  44.5786524
  76.5462634  49.9556208  43.8128424  75.5182159  50.0691557  44.9179316
  24.8658165   4.4713236  13.7640202  25.1400092   5.2671791  14.2197144
  23.9733907   4.6577192  13.4723604   2.5081557  25.0660348  40.8691216
   3.2819498  24.6487403  41.2477255   1.7858982  24.4790387  41.0927534
  15.2595913  66.4973497  43.7156010  14.9963236  67.0576096  44.4456911
  15.5976760  67.1046400  43.0574751  10.5875051  39.4935393  43.4017229
  10.8509994  39.5848417  42.4860477   9.6307093  39.5084596  43.3782578
  31.0491204  48.3243418  37.3113179  31.8912339  48.0547810  36.9446921
  30.5053997  47.5378656  37.2660160   9.7240531  50.2954245   4.4751495
   8.8568032  50.3784275   4.8716587  10.1702940  49.6391773   5.0103551
  12.6057947  39.6504807  40.7884932  11.8620956  39.2554832  40.3333902
  13.3724952  39.3485260  40.3014374  24.1754031  44.8604488  40.0452662
  23.9074230  45.6681204  39.6069932  24.2158532  44.2097235  39.3444419
  13.8944697  61.4275742  33.6784530  14.8482442  61.4436769  33.7577391
  13.6298859  60.6273603  34.1321993  76.9971925  63.6749411   5.1930231
  76.4266613  63.3970070   4.4764501  77.3738077  62.8614569   5.5286318
  14.5071352  61.9852304  44.6548414  14.8417711  62.5356627  43.9468336
  14.4922304  62.5610876  45.4193020  17.3835719  39.3591976  37.1799016
  16.5373778  39.7426009  37.4105310  17.8913438  39.3942809  37.9905605
  15.2424681  51.2608480  24.0354061  15.3136361  52.1401215  23.6638641
  15.7634866  51.2968969  24.8375726  18.5468006  52.2004986  31.0792375
  18.5892320  51.3669586  31.5478945  18.1388211  52.8039360  31.7002439
  26.9895778   3.3396755  54.3347928  26.8467245   2.5753246  54.8929974
  27.2838030   4.0238033  54.9361548   3.7717274   2.3545788  55.9868288
   3.0092865   2.8267327  55.6521845   3.4046447   1.6868532  56.5661621
   4.1069674  17.8091061  31.0804558   3.7568957  17.4348581  31.8889236
   4.0625107  17.0934510  30.4463482  10.2911866  46.9335604  51.5944529
  10.7980752  47.6474857  51.2076616   9.9486530  47.2978401  52.4106646
  76.0985503  25.0212131  45.2062055  76.3574085  25.9414039  45.2558622
  76.7537651  24.5595156  45.7294282   3.8579321  62.1729088  56.8957901
   4.4435966  61.4192724  56.9683313   4.3576491  62.9010057  57.2651100
  19.7345412   4.7887769  38.2289410  18.8766396   4.3794781  38.1161928
  19.6273816   5.6712753  37.8740525  13.0056381  46.4289570  59.9638891
  12.0867360  46.2785149  60.1857376  13.0097687  46.5229273  59.0113211
  73.1808632  36.6450119  41.3016176  72.5937277  37.0665860  41.9291353
  74.0590954  36.8877053  41.5949392  25.0925970  34.2024302  19.4668567
  25.0537419  33.8963389  20.3729630  25.9388089  33.8915634  19.1451120
  51.2875196   6.8554951  39.1173863  51.9494697   7.5305534  38.9678860
  51.7730399   6.1244274  39.4995260  16.8940520  64.7832108  29.4113541
  17.6067185  64.1814518  29.1963530  16.4346099  64.3607759  30.1370907
   6.1506861  65.7340813  13.4108210   5.5387563  66.1595726  12.8102124
   5.8027947  64.8490477  13.5199952  58.9139871  13.2177057   4.3660525
  59.7206907  13.1566754   3.8544491  58.7120293  14.1531840   4.3841294
  18.1859481  41.4578724  11.3250983  18.1843233  40.8060217  12.0260406
  17.2600448  41.6011572  11.1291289  70.9366864  35.6202817  27.8449035
  71.7728042  35.3484678  28.2233953  70.3517598  34.8783207  27.9984927
   6.0717237  53.7905741  21.8474722   6.0680646  54.3106222  22.6510715
   5.7530910  52.9294586  22.1179986  79.1390479  73.5002565  27.4281502
  78.5011759  73.2547522  28.0982852  79.3693157  74.4055939  27.6368904
  23.1299090  33.6734152  24.4497538  23.7985110  33.9013100  25.0957155
  22.7039528  32.8956461  24.8101211   9.7853895  45.5959542   6.0588196
  10.0781640  45.2807804   6.9139126  10.2559599  45.0504829   5.4285363
  73.2025641  74.2515945  20.2889419  73.2752490  73.6494446  21.0294557
  73.9833516  74.8019171  20.3502011  11.1840498  41.5285635  28.6532474
  11.4345706  42.3251104  28.1852961  10.2279770  41.5152979  28.6087561
  15.0392258  23.6841655  52.9487944  14.8890865  24.6293807  52.9647732
  15.5588651  23.5375214  52.1584129  52.4077988  66.2957621  42.5996256
  51.9015121  65.5140400  42.8205633  51.8552256  67.0258141  42.8787708
   6.2072605  13.4580708  49.7235441   5.9348893  14.2660689  49.2885923
   6.0659200  12.7742493  49.0688372  33.1081605  38.9913487  13.1099570
  32.3638487  38.4916019  13.4453475  33.8653970  38.4270167  13.2660067
  50.2896734   5.0204922  42.5134897  51.0064860   5.1953865  43.1232643
  49.9014374   5.8795334  42.3475075  42.4210072   9.4561887  44.8505068
  43.3711004   9.4839215  44.9635792  42.0773649   9.9632537  45.5860519
  30.7842662  12.4474598  27.8488564  31.0686501  13.2510735  28.2842445
  31.1716541  12.4985100  26.9750381  64.0146391  54.7581139  17.8805903
  63.5384290  55.5057278  18.2418803  63.3741622  54.0467968  17.8737524
  29.0184971   1.7546440  10.4685915  29.3059062   1.0012890  10.9844244
  28.8574991   1.3990952   9.5945799  10.9611750  47.6715469  55.7269907
  11.5847671  47.0871830  55.2958441  10.5090702  47.1141338  56.3603354
  21.3350058  34.3299222  27.3251557  22.1066308  33.8390279  27.6077294
  21.0422516  34.7897077  28.1119990   4.5421019  17.0782352  34.6245599
   4.9864617  16.6339947  35.3466606   3.6942902  16.6388393  34.5584655
  25.8711100  38.5161042  47.5343180  26.4114952  39.2786169  47.7411747
  25.9226036  38.4373593  46.5817499  79.0630438  10.5336643  47.4494219
  79.0417554  11.4864803  47.3603439  79.7329213  10.2498604  46.8273640
  76.9142407  45.9205389  32.1760488  76.8989145  46.8361664  32.4546599
  77.2084897  45.4396868  32.9496312   1.5207661  63.2441840  58.3257225
   2.1463336  62.5704059  58.0594078   0.9227885  63.3230314  57.5824615
   5.9510666  11.9112539  22.5725269   5.9258306  12.2660255  21.6838598
   5.7249647  10.9870362  22.4679685   5.5048996  23.9597917   4.5529073
   5.7745790  24.4840336   5.3070134   4.7294000  23.4869266   4.8549494
  17.4100089  38.1503725  41.0622787  17.9142439  37.3463297  41.1867571
  17.9931068  38.7242603  40.5654049  31.0994673  23.9282584  17.6083148
  31.8398619  23.3499742  17.4249160  31.4871168  24.8012161  17.6707935
  43.9659452  20.6993651  21.2867355  44.3152142  20.2183390  20.5364966
  44.7413588  21.0105252  21.7537999   1.1491802  33.0807948  24.5325637
   1.7433551  32.5357056  24.0167475   0.5291674  32.4613571  24.9174166
  15.5313075  68.7134838  55.9795189  15.3700876  68.9265680  55.0603676
  14.8744011  68.0499697  56.1903477  47.2975206  48.6460924  19.4526362
  48.0651855  48.2004833  19.0943754  47.0664310  49.2960262  18.7889957
  24.5703149  51.0159683  28.1571984  24.4077635  50.0868797  28.3203197
  24.1779184  51.1808538  27.2998381   3.5250387  32.4992633  15.7637465
   3.6832356  32.2909021  14.8429906   4.3985805  32.6248169  16.1344123
  75.2987173  65.3527832  13.2770419  75.7647270  65.6989479  14.0381169
  75.3933415  66.0317802  12.6090324  33.6431802  50.9245929  63.9029562
  34.2803825  50.8078096  64.6076312  34.1721619  50.9671817  63.1063404
   9.5520717  28.5521698  23.4185219   8.6375910  28.6338282  23.1478047
   9.9180049  29.4277644  23.2933855  11.4517617  60.1760101  46.3678360
  12.3104131  59.8221207  46.1360788  10.8483934  59.7655249  45.7484150
  10.4737389  29.8465705  27.2036052  10.4156005  29.2903304  27.9804254
  11.3309336  30.2667642  27.2735119  73.3342653  37.6588058  34.3348646
  73.0194610  38.3035731  33.7012982  74.2544466  37.8852129  34.4699144
  40.6893349  67.6054573  30.7797122  39.8080993  67.9322910  30.9609294
  41.0503531  68.2275867  30.1481652  55.0382807  29.8468004  60.4225966
  55.9415675  30.1542793  60.4984975  55.0724981  29.1667305  59.7498682
   7.1127057  54.9841976  25.0543022   6.1819392  54.9749804  24.8310971
   7.2742915  54.1245747  25.4431105  39.4437647  69.9330759  35.8579993
  38.6101770  69.9224997  35.3876209  39.2048359  69.7804546  36.7722487
  47.1711506  57.1103725  55.1679691  48.0900134  57.0672557  55.4326597
  47.1804250  57.6087591  54.3508050   7.8257710  64.2465734  24.7481704
   8.1654197  65.0017405  24.2679715   7.0351207  63.9950609  24.2708397
  60.4081412  60.1215591   6.4498404  61.3295146  60.1579608   6.1929825
  59.9288388  60.3634395   5.6573799   6.6044456   8.7673700  18.5362160
   5.7836539   9.2453098  18.4174502   6.6692978   8.6340481  19.4818652
  25.8243500  10.4045940   5.7825911  26.1755451  10.8614136   6.5469271
  26.5633984   9.8980022   5.4458451   0.2603344  52.9264832  15.1223648
   1.1445352  52.9122591  14.7560060   0.3535552  53.3890486  15.9551752
  18.3321273  66.6024828  24.7048283  18.3594000  66.8425989  23.7786365
  17.4064267  66.6628790  24.9407578  17.4775565  27.4376893  14.2307591
  18.3870816  27.2086334  14.0396309  17.5243235  27.9515743  15.0369644
  27.9555464  26.5862393  21.3358545  28.5309315  27.2141695  21.7727399
  28.5504842  26.0088491  20.8574224  10.1495743  67.3595476  14.2306006
   9.2563379  67.5359488  13.9352322  10.5280125  66.8173218  13.5384977
  34.1024661  31.2778449  22.0229912  33.4540129  31.9062948  22.3404646
  34.1833949  31.4686227  21.0884953  14.8360439   1.0738779  10.7138038
  15.6516656   1.0396648  10.2139819  14.6970388   0.1734520  11.0072958
  22.1299124  20.2115726  10.2061641  21.7457795  19.4568241   9.7600389
  22.4799180  20.7546544   9.4999111  32.7037605  74.8010577   1.2627199
  32.7576884  73.8561072   1.1199311  32.8942498  75.1839461   0.4063633
  69.7260660  38.8960075  20.3890896  69.4905025  39.3992853  21.1684823
  70.3040009  38.2061195  20.7150936  30.0738767   8.4945951  52.4967012
  29.3721537   7.8590761  52.3555109  30.6723026   8.3577381  51.7622730
  36.5414810  35.2034330  39.3192720  36.5671325  34.3756652  38.8393021
  37.0908380  35.7953715  38.8054156  12.3049366  64.1049337  29.4471598
  11.9891047  63.4547520  30.0746489  12.1063590  63.7271357  28.5903835
  45.4067979   6.0751854  46.6830596  45.7567010   6.9231783  46.9563827
  45.4751501   5.5250965  47.4634227  32.7096057  52.8547239  16.3225198
  33.2822371  52.1802282  15.9573102  32.3190308  53.2772303  15.5575538
  16.1541494   1.4741398  29.9305272  15.3548702   1.1233927  30.3234148
  16.0986491   1.2218309  29.0088487  70.8208034   6.8555437  64.0398676
  71.3145051   7.1242319  63.2650792  70.1439378   6.2695251  63.7012397
  55.8448821  65.7754421   2.3501013  56.4868837  65.0793648   2.2103065
  55.6162530  65.7077599   3.2771289   9.5035084   9.5169045  52.5129175
   9.7324570   9.8365761  51.6402054  10.3451618   9.3216301  52.9248857
  43.6082085  66.7518510   3.7400273  43.8758787  66.0448875   4.3272093
  42.8085645  66.4286055   3.3249214  15.0066900  62.6581049  23.1134033
  14.2103040  62.4235773  22.6369619  15.5716264  63.0591106  22.4528933
  61.2716632  17.6431885  13.6945084  61.4737324  16.8132868  13.2624605
  60.4300462  17.9078284  13.3231858  67.8811789  62.7110195   0.1438206
  68.3784628  62.0113945  -0.2798139  67.9077864  62.4934244   1.0755809
  74.1716867  21.4983630  39.6762681  73.5445690  22.1576095  39.3790293
  73.8587290  20.6795430  39.2917919  62.0350104  66.5431690   6.3648146
  61.6950327  65.6623745   6.5224391  62.8922802  66.4007473   5.9635222
   0.8169737  33.4956741  30.3959036   0.5560432  33.1218433  31.2375665
   0.0105958  33.8677764  30.0387931  64.1511315  31.6225815   6.5055621
  64.3759185  32.3938608   5.9851462  63.4771138  31.9305778   7.1114254
  32.9028940  24.6564269  36.9426394  33.1698942  24.0994096  36.2114239
  31.9995832  24.9002361  36.7406058  38.3954366  10.6096817  26.1870623
  38.2416996  11.3026691  26.8292165  37.9576274  10.9172131  25.3933501
  14.7861767  51.7676497   0.5181473  15.4601526  52.4473333   0.5139507
  15.1309013  51.0921192   1.1021478  36.2249708  47.6091480  25.8039784
  36.9691467  47.5487471  25.2049923  36.6119647  47.5280905  26.6756988
  72.1459703  41.1329832   2.6003483  72.8367476  41.7135420   2.2809628
  72.3001544  41.0733071   3.5431650  21.3816929  15.7144272  34.9712491
  21.6620946  14.8027539  35.0516081  20.4349399  15.6869006  35.1095748
   9.7081387  26.6218615   6.5319508   9.1787678  26.6680884   7.3281050
   9.3344176  25.8921742   6.0378665  33.1169438  41.6030312  14.1725409
  34.0405798  41.8413544  14.0929699  33.0239320  40.8202410  13.6295700
  35.2993774  14.9645901   3.8783795  35.3787947  15.8917379   4.1027072
  34.7705770  14.9556482   3.0805564  21.8874621  39.2585373  28.0790472
  20.9785342  39.2250490  27.7807903  22.4053907  39.1457891  27.2820091
  30.2826810  51.1416245  10.4071093  30.0992513  50.3111219   9.9679613
  31.0677385  51.4743090   9.9720925  35.6488585  45.5993271  19.4007075
  35.3431058  45.6026936  20.3077555  34.8533583  45.7072687  18.8793993
  74.9216941  22.4080873   5.0125605  74.3696195  22.6050210   4.2558157
  75.7868978  22.7381134   4.7702020  75.6649241  54.1663265  34.5458364
  75.9223014  53.3188820  34.9089217  76.2415641  54.7968483  34.9772978
   4.6311098  35.5466890  38.6809015   4.9646804  34.6809053  38.9162302
   3.9627531  35.3737640  38.0178571  21.9460654  31.7901802  46.2578773
  22.0240736  32.5415277  46.8457747  21.3762116  32.0962763  45.5523300
  46.9423251  27.2168675   2.0013836  47.7648096  26.7732516   2.2086409
  46.4246570  27.1487036   2.8036335  31.9397831  35.3215194  41.3363361
  31.3154793  35.8387995  41.8451548  32.3674560  34.7591925  41.9821835
  20.2433171   5.4300571  51.2779140  20.1909068   4.5026804  51.5091276
  19.3728878   5.7757545  51.4756012  34.8076367  15.4970574  28.0063725
  33.8521862  15.4569423  28.0481029  34.9947405  16.3516748  27.6179743
  19.2778718  57.9147053  60.2906275  19.7286630  58.5488892  60.8481455
  19.3152916  58.2972527  59.4139957  25.2453494  26.7845631  31.2382317
  25.3638220  26.3147664  32.0637536  24.6709561  26.2195778  30.7214189
  48.9068013  61.4606047  14.9478590  49.3396932  62.2286081  14.5750237
  48.0371362  61.7732954  15.1971304   8.7059110  23.5329747  30.4323697
   8.4690654  22.8631115  29.7909498   7.8854454  23.7344551  30.8823395
  25.6416178  63.2626343  13.2567358  25.4998803  63.7196112  14.0857816
  24.9655461  62.5852823  13.2379758  68.1917757  56.0714197  29.4515657
  68.2452756  56.3848352  30.3544188  68.9399951  56.4762259  29.0127778
  56.6764551  44.9165106  17.2792709  57.2950107  45.5030537  16.8438578
  56.1069447  44.6042728  16.5761364  34.7101415  65.2445206  53.1334600
  33.9926053  65.8778081  53.1514260  34.2918004  64.4150505  52.9028067
  11.9421005  37.1597457  25.4524207  11.5388358  37.0307374  24.5939517
  11.6052389  38.0045819  25.7507610  68.0888492  60.5926466  23.1757045
  67.6335579  61.2947464  23.6404634  67.8946942  60.7516718  22.2519898
  73.7564558  40.3646564  39.6438193  74.6514570  40.5677319  39.3718553
  73.2293814  40.5052996  38.8572788  67.1932155  65.3225517  55.0324059
  66.9038731  65.9302902  55.7129717  67.3575455  64.5024014  55.4977942
   3.9587718  48.2130957  38.3473730   4.8656806  47.9287815  38.4610105
   3.4383500  47.5253963  38.7626600   6.1855859  53.0824947  45.9406710
   6.7830139  53.5392380  45.3484774   6.5879303  52.2238636  46.0714722
  76.1553886  20.7104611  36.6073036  75.4607379  20.3738427  37.1733236
  75.9838202  21.6504598  36.5507364  22.3629117  15.3605628  23.4513545
  22.4487734  14.4637764  23.7748265  21.5147567  15.6547952  23.7834573
  77.4421286  50.7743549  17.8945899  77.4755685  51.7041445  18.1195319
  77.5138277  50.7560825  16.9402540   0.4041146  38.2016253  39.8554277
  -0.1889871  38.2338166  39.1048098  -0.0197832  37.6027107  40.4701138
  29.9092460  25.0918174   5.2402818  29.4616866  24.8620176   4.4259638
  29.2298937  25.4936409   5.7818073  64.8794180  32.5153399  50.1324606
  64.2309350  32.1455550  50.7315922  65.3609687  31.7566347  49.8027468
  21.1352634  19.5183086  13.2701290  21.6742682  19.3408549  14.0409827
  21.3935876  18.8478029  12.6377344  76.9530022  46.1039162  20.6023169
  77.2462997  46.9631720  20.2991891  77.7615525  45.6141043  20.7525301
  41.2121643  61.9745931  64.1763945  41.0889424  62.8874621  64.4366214
  42.0613314  61.9639644  63.7347680  13.1543362  40.2436686  23.0805707
  13.7045908  39.6383858  22.5834942  13.7281382  40.9848928  23.2744002
  27.0227338  13.9612175  19.4160140  26.7255307  13.2227112  18.8845050
  27.4475419  14.5497871  18.7920260  41.7737517  24.4043194  56.0120734
  42.7220497  24.4159637  56.1417892  41.5937719  25.1863275  55.4902461
  73.1049382  61.2061119  47.3462152  72.5087231  61.9509268  47.2687101
  73.1923777  60.8752728  46.4522743  11.0204053  55.9700155  24.6922708
  11.2720287  56.6242647  25.3440952  10.1290667  56.2124348  24.4413114
  71.1601621  57.0375967  38.9612198  70.4462391  57.6617002  39.0917611
  70.8050233  56.2011147  39.2618871  16.5448654  26.1720896  39.3982410
  17.3333919  26.6835141  39.2168474  16.6799664  25.8287811  40.2814865
  27.1118021  30.5077004  51.0458422  26.1662793  30.4246902  50.9220409
  27.2684503  31.4517283  51.0683250   9.4864058  30.1912498  38.6435270
   9.3974131  30.5490541  37.7601886  10.3454149  29.7689581  38.6454701
   2.7523491  38.7752485  34.4241571   3.4089160  39.3003798  34.8817492
   2.9478976  38.9030457  33.4959006  78.4139746  19.8274052  38.4650207
  77.5718838  19.7398162  38.0184293  79.0377953  20.0185084  37.7646208
   3.0106223  53.5710430  32.9070568   2.6693723  53.7890100  33.7743926
   2.8345606  52.6353407  32.8086042  16.1361992  45.3674412  31.6899109
  15.9626532  44.7574186  30.9729815  15.4085946  45.2358627  32.2977829
  76.7373261  24.1702019  60.5741587  76.9023046  23.3512817  61.0414752
  77.5891075  24.6060215  60.5465880  74.4446230  32.7563620  41.5154076
  73.5245234  33.0202413  41.5112925  74.8207187  33.2106757  42.2693157
  15.0481808  48.2464075  33.1544685  15.5953562  47.4767780  33.3110094
  14.8687756  48.5944033  34.0279365  16.6206956  54.3645763  13.5252333
  17.0161426  54.5113468  12.6659822  17.0255494  55.0222683  14.0907121
  14.2422533  47.8771353  15.6959999  14.7516000  48.1228971  16.4682686
  13.4648514  48.4342623  15.7345700  40.7425737  20.2036881  19.0919530
  41.2471867  19.8806942  18.3454442  41.2294817  20.9692812  19.3969440
   3.1304964  74.6491146   6.6226649   2.7232978  74.5174932   5.7664537
   3.6950299  75.4130363   6.5045106  38.3052278  38.6871338  46.7425203
  38.3997130  39.5032144  47.2337580  37.3979259  38.4212637  46.8920135
  11.6661692  32.2275949  45.8552408  12.3629534  31.9430184  45.2638531
  11.7899847  31.6986179  46.6433287  12.1389842  46.0785580  15.1553714
  11.5534842  46.8276119  15.0442970  12.9617620  46.4608622  15.4605091
  22.4643159  24.0006852  24.7445750  22.0606661  24.6574998  24.1772199
  21.8222404  23.2919240  24.7849560  22.1458578  30.2093983  49.6865606
  22.3219967  30.2669787  48.7474680  21.2924528  29.7797513  49.7442770
  16.8842697  67.2795963  36.5775752  17.4545908  67.5801182  37.2851419
  17.0188165  67.9155922  35.8749843  31.8552208  52.0569372  32.9055810
  31.2292409  52.6163149  33.3654475  31.7417502  51.1934996  33.3028650
   2.9591030  61.9401026  11.3397288   3.1098095  61.2084675  11.9382501
   3.8312656  62.2986269  11.1753356   7.2707427  60.4236889  60.3057766
   6.4304924  60.8024597  60.5641222   7.5862402  59.9809551  61.0936069
  27.4816799  39.4100595  42.6712894  27.6944375  38.8309050  41.9394779
  26.9061232  40.0740671  42.2917366  48.8600600   3.2683025  62.0175260
  49.2612175   2.5008951  62.4254387  49.3943233   3.4333835  61.2406462
  23.2734251  11.0097134  35.8256650  22.8123188  11.7463946  36.2268043
  22.6493764  10.6516826  35.1943111  25.2366805  36.3181424  48.7066984
  25.5070019  35.6089592  48.1234169  25.4940248  37.1174335  48.2472038
  63.3232397  52.5982046  23.2532406  63.4511023  51.6697073  23.4476089
  63.7122255  52.7173090  22.3867917   8.5710287  31.6799116  36.4150620
   7.9479104  31.8369985  35.7056403   9.3703032  31.3938427  35.9728432
  70.7742529  24.4449082   1.5956286  70.6851010  25.0472489   0.8570698
  71.3944845  23.7825384   1.2909725  58.7690065  21.1387525  53.8273927
  58.1663734  21.4292465  53.1427917  58.7796841  21.8585335  54.4582948
  37.0717216  52.8160095  16.8123078  37.0445299  51.9967079  17.3065102
  37.8978872  53.2244158  17.0709324  43.9301822  22.7874981  63.8185566
  44.4932124  23.4554945  64.2097258  43.5054848  22.3650585  64.5651533
  45.8725691  21.4537477  51.7759657  46.7506409  21.3091564  52.1285582
  46.0085535  21.5729666  50.8360052  20.6928563  69.9045420  34.6252775
  19.9910057  70.2844810  35.1537514  21.1025023  69.2581272  35.2002287
  13.2047486  11.6063821   7.5863254  14.0540993  11.3346767   7.2384572
  12.7199006  10.7889330   7.7000445  10.6218517  51.3252115  22.5248790
  10.2316070  52.1990490  22.5062323  11.1560619  51.3183689  23.3191109
  57.5004965  35.5533671  54.5423698  56.7064196  35.3573728  54.0451145
  57.5483256  36.5093398  54.5502424  24.0298601   6.5789677   9.6266109
  24.1745155   7.5013615   9.8375386  24.8952844   6.2503887   9.3830800
  60.1218878  19.7704783  25.5540255  60.9974437  20.1572981  25.5526617
  59.7726505  19.9713316  26.4223078  47.3950807  71.5986626   7.8584433
  47.1495399  72.3033332   8.4579271  47.1111271  70.7984506   8.3003283
  35.4332447  30.9496593  47.1119404  34.8830748  30.6857204  46.3744593
  36.3225532  30.9537792  46.7579031  23.5106969  37.3250747  26.1530566
  23.2419300  36.6791558  25.4997683  24.3645096  37.6326108  25.8486605
  66.0159522  67.1733332  15.5687785  66.2392944  66.5818787  14.8500741
  66.5591186  67.9472589  15.4196632  70.4292690  54.3654442  30.1762414
  69.7164029  55.0041819  30.1845527  71.2220806  54.8898792  30.2887297
  17.2325158  71.9318342  10.7110727  17.6250720  72.3833466  11.4582467
  16.3318658  72.2546911  10.6823289   4.8652136  56.2409163  43.3647823
   3.9710793  55.9237957  43.2375431   5.3590304  55.4650545  43.6301422
  62.9339663   5.0954042  59.5992234  62.9772994   5.5068289  60.4624039
  63.7808535   5.2905832  59.1980776  45.3373718  18.2237136  15.0313389
  45.1786423  17.5170636  15.6571853  45.4021072  17.7831697  14.1840124
   8.9657187  66.3571072  23.2552290   9.7160757  66.6578054  23.7678456
   8.4077555  67.1303082  23.1711650  10.8810937  22.9842281  11.8592930
  11.5524364  23.6660719  11.8841517  10.6311500  22.8607011  12.7749896
  34.6515824  57.4667058  63.4795126  35.5500932  57.2930751  63.1988664
  34.1111000  56.9358358  62.8944593   6.2131363  55.8660030  53.8522243
   5.2937669  55.9196377  53.5912371   6.4556903  54.9545574  53.6889172
  29.1327381  21.8856764  31.6347575  28.8008451  22.5451159  31.0254788
  29.3615174  22.3802495  32.4217057  71.1872110  22.3140322  54.0489349
  70.5339942  22.3242651  53.3493385  71.0530255  23.1398283  54.5140073
   2.9405665  38.5259604  31.2196994   3.7242579  37.9792953  31.1629891
   2.3530361  38.1723475  30.5518699   3.1998864  28.4310484  14.2117655
   2.5000501  27.8535032  14.5165634   2.7764806  29.2822480  14.1003168
  19.9587822  26.7525578  45.8260250  20.8207059  26.3892221  46.0292625
  19.3630922  26.3076329  46.4288759  30.0825858  37.4322748  33.2219768
  30.0073981  37.9656315  32.4307084  30.6081510  37.9636955  33.8199806
  27.1528959  29.6722674  17.4256396  26.5804625  29.1917419  18.0236757
  27.0894456  29.1952014  16.5982246  43.4864889  15.0585737   3.7613848
  44.2025410  15.6714430   3.9283970  43.3112465  15.1446047   2.8243044
  20.6866002  74.2354679  43.0380821  21.2611008  74.8100090  43.5441303
  20.5429530  74.7041893  42.2159529  41.6818810  61.5921259  40.3576660
  42.2819567  62.2996378  40.5933905  41.0620070  61.9961548  39.7504187
  15.2732933  58.1580639  33.8489723  15.4231524  58.6935043  33.0698228
  14.7923541  57.3957300  33.5268283  30.7829523  50.4280043  21.2575293
  30.5507755  51.3566208  21.2572265  30.9096456  50.2124977  20.3335500
   1.3085833   2.3648764  51.7843294   1.6366520   2.3355032  50.8855867
   0.3772965   2.1579004  51.7062330  16.7614698  58.1913519  27.9719257
  17.3784697  57.7356386  28.5445237  17.2372293  58.9677382  27.6767898
  16.6761556  14.3973423  28.0615520  15.9957858  15.0173927  28.3239794
  17.4319323  14.6283127  28.6016297  33.1110430  59.8505020  28.2194543
  32.8709388  59.1878700  28.8671422  33.8889790  59.4947624  27.7899265
  31.0538888  60.5479050  31.2090230  30.7344794  61.2109327  30.5969739
  31.4774251  61.0493183  31.9057512  14.0595162  46.1818218  26.2356734
  13.2224405  46.5978575  26.0296321  13.9946854  45.9603977  27.1646500
  50.7909640  19.9052654  52.4993905  50.6239421  18.9807783  52.6828763
  51.7242083  19.9430834  52.2899708  67.2049185  32.7909542  47.8416348
  68.1352516  32.7049614  47.6334858  66.7697188  32.1747280  47.2524881
  37.1862364  17.4153769  32.6772046  37.9825687  17.5415313  32.1612859
  37.3604870  17.8695357  33.5015893  79.5816568  53.0659819  33.2004142
  79.8716963  53.6863375  33.8691950  79.5362319  52.2257566  33.6566973
  42.2183450   5.8899857  35.7044911  42.6462468   6.4428307  35.0506616
  41.8282827   5.1778008  35.1976681  26.2472367  40.8345366  40.7899618
  25.4088283  40.4280186  40.5707741  26.8359494  40.5643082  40.0852489
   2.5031271  15.1035000  31.2044454   2.0848694  14.3347050  31.5920711
   1.7742005  15.6554867  30.9212470  66.7899558  19.7274051  48.9785299
  66.5652010  20.4322134  49.5859524  67.5784860  19.3326793  49.3508777
  11.8533162   0.9319554  59.1563174  11.6044501   1.0483394  58.2393923
  12.7507571   1.2613545  59.2045829  56.4270878  48.6296749   9.2514312
  56.8649673  47.8771210   9.6491146  57.0845890  49.0086079   8.6680502
  19.5288718   8.0983794  37.5296569  19.2415607   8.4879369  36.7038655
  19.3586898   8.7745374  38.1854630  33.8139248  34.9683928  36.6946244
  34.5679426  35.5567384  36.7338181  33.7818909  34.5620799  37.5607181
   5.4609388  66.8331051  11.1056936   5.2867663  66.9555616  10.1724732
   4.9735019  67.5364256  11.5346229  37.4311161  61.2460470  13.3899665
  38.0891705  61.0533476  12.7220893  36.7210555  60.6294394  13.2115257
  74.3282267  12.2970177  59.0668344  73.6347529  12.7142979  59.5779181
  74.6006771  11.5491558  59.5985365  43.4238529  26.8266463  13.3908188
  44.2519140  27.2647738  13.1943774  42.8439093  27.5301623  13.6823034
   3.9842528  74.7233105  15.9397948   3.9850163  73.9651680  15.3554595
   4.5028767  74.4445562  16.6944849  69.7793957  10.6845165  47.3324013
  70.6184240  10.9933067  47.6743221  70.0154635  10.0730396  46.6348362
  13.4083712  52.9578352  19.2302144  13.2495475  52.0359564  19.4330621
  14.0207160  52.9391956  18.4947431  20.2558637  53.5297203  36.5191340
  19.6354139  53.2116365  35.8633161  21.0225987  52.9659128  36.4167833
  64.1655418  12.1477963  38.5915709  64.4197866  12.7858997  37.9249263
  64.9803802  11.9429661  39.0501738  18.7880898  36.3852382  15.9510338
  18.9963496  35.5507374  16.3711131  17.8315294  36.4201474  15.9488535
  68.4503489  73.3537436  28.2246470  67.6946693  73.8303566  28.5681891
  68.5829907  72.6363611  28.8443232  56.2763425  26.1899925  14.9378896
  56.6101190  26.9968773  14.5457804  55.3248426  26.2635017  14.8639131
  13.8647401  25.2865243  39.3645167  14.7837687  25.4252553  39.1356683
  13.4039056  25.3031182  38.5257149  23.5539675  75.2157784  25.5201077
  23.6041832  74.2607832  25.4790115  24.2370415  75.5175304  24.9212861
  76.0350510   5.7847382   9.0468079  75.9194180   6.7306210   8.9564854
  76.3974234   5.6705547   9.9253744  64.2525249  66.1575794  49.0252781
  64.9561649  66.5323877  48.4955215  63.7512785  65.6201077  48.4119987
  78.3092238  56.2912083  46.9753885  78.5701835  57.0152521  47.5445032
  77.5997159  55.8576012  47.4495363  22.2492743  53.2969904  15.7774282
  23.1935239  53.3400059  15.6265211  22.0149446  52.3918486  15.5723774
  50.4288960  70.5663109  49.6825886  49.9487877  71.1072874  49.0556335
  50.7995939  71.1923599  50.3045845  17.2081935  72.3124552  26.0624123
  17.0715928  71.3767910  26.2110806  16.3276958  72.6877451  26.0732150
  45.6509372  16.8578411  60.8600760  45.0066694  16.7085243  60.1680851
  46.1125072  16.0232712  60.9417343  63.8067146  30.1637150  21.0630393
  63.7388917  29.9931503  20.1236057  62.9897376  30.6104065  21.2849569
  20.2721882  65.9239626  14.9858510  19.7552824  65.8340788  14.1852498
  19.6855342  65.6323433  15.6837237   4.9587193  45.3998756  40.2090740
   5.5984503  45.8682489  40.7453632   5.4137063  44.6039200  39.9339914
  29.1259766  38.0058336  18.3492291  28.3014226  38.4458089  18.5560226
  29.3300128  37.4980307  19.1345537  32.0049539  35.7237221  10.7357907
  31.5260553  36.3323189  11.2983716  32.2282853  34.9915291  11.3104653
  40.1656576  13.7324120  24.4003367  39.4245680  13.2346512  24.0550184
  40.5969020  14.0895344  23.6239815  75.2851879  43.4162951  25.4508948
  75.9989968  43.8403177  24.9745417  74.5396298  43.4579229  24.8520279
  37.6545835  72.7921295   2.6074323  37.9751968  73.5665846   3.0696580
  37.1210551  73.1426620   1.8941958   9.7346628  60.7035875  31.2730408
   9.1866004  61.3159800  30.7822895  10.2027178  61.2523842  31.9023108
  69.5075712  21.2198053  52.0127484  70.1138780  20.7222353  51.4640710
  68.8503227  21.5532289  51.4019415  38.0013919  71.0651445  23.6765409
  37.6279831  70.4700947  24.3267059  38.1619525  70.5133057  22.9110813
  79.1865982  66.6450081  62.9661581  79.9333156  67.2125706  62.7750617
  79.5708812  65.7770738  63.0896643  27.9002476  45.1700115  27.5353646
  28.4985089  45.8138275  27.1561313  28.4365869  44.3863583  27.6556087
  20.7335138  60.2851486  30.1080823  21.4928889  60.7642937  29.7764158
  20.5168152  59.6669769  29.4101286  39.7064897  15.2786995  11.1972058
  39.6356782  15.5572487  12.1102393  39.2264291  15.9450890  10.7055748
  53.6644894  64.0665007  17.4563718  54.2523581  63.4571934  17.9029024
  53.5261947  63.6767149  16.5931380  19.1011643  42.3001862  32.8843260
  18.8678086  41.4323473  32.5547338  18.7942266  42.3025608  33.7909770
  59.6996546  50.5468464  34.3412519  59.9923944  50.1026726  35.1370168
  59.8611021  51.4748049  34.5117211  32.2248149  40.4602718  25.0435138
  31.4390039  40.5147028  25.5873585  32.8846478  40.9588432  25.5254650
  40.2341338   2.3082186  21.1734009  40.7118567   3.1278826  21.3005519
  40.5982836   1.7144371  21.8299437   4.4108572   1.5644766  24.9254298
   5.3379765   1.7514397  24.7780252   4.0273991   1.5484072  24.0485430
   5.4476738  67.2339344  32.1826982   6.1887562  66.8884754  31.6850185
   5.1116431  66.4795399  32.6666403  19.3003237  36.6692901  24.8762727
  19.4670331  35.7320523  24.9764061  18.5707438  36.7181349  24.2585659
  40.5671215  65.2254963  32.2313690  40.2481413  65.7334089  32.9773617
  40.8460283  65.8839035  31.5950227  30.7796645  48.1377459  27.7235031
  30.4735279  48.6416197  28.4775734  31.6688538  47.8720617  27.9579949
  40.6263304  65.5419874  19.3736935  40.8603907  66.4648819  19.4722486
  39.7517323  65.4744768  19.7567749  22.6748061   8.3811307  42.9739380
  21.8744469   8.3949101  42.4490881  23.2236409   9.0659499  42.5917912
   1.6478962  66.6949987   3.6911744   1.7087692  66.7380190   2.7368814
   1.1958164  65.8694601   3.8653597  26.9950298  39.4473730  62.4308902
  27.2894434  40.3025995  62.1176177  27.6252798  39.2117201  63.1116885
  68.0000704  65.7087851  46.3453436  68.1637805  64.9801254  46.9440842
  67.6851922  65.2931070  45.5426598  76.9959509  62.4821711  34.5992398
  76.8588587  62.3291016  33.6643577  77.4730552  63.3110476  34.6387959
  25.9250633  25.2354565   6.0419682  26.5463846  25.9247437   6.2766531
  25.0692956  25.5943003   6.2767533  20.9563565  67.2786808  21.4442968
  20.1419449  67.2464848  20.9423733  21.5935183  67.6635551  20.8425283
   4.8176006  26.4656959  60.3373894   4.0921120  26.9439874  59.9359712
   4.8368291  25.6276689  59.8752484  24.5258784  45.8434200  25.2539635
  24.9030566  46.6745615  25.5423474  23.5870647  45.9377050  25.4151106
  47.8642368  53.6515856  23.3565378  47.1920395  52.9865885  23.5054278
  47.3729467  54.4588423  23.2042074  35.9524179  42.9547405  33.8355041
  36.2035441  43.1044197  34.7469664  35.7005477  43.8194513  33.5113668
  65.3101338  71.6123423  57.9334393  65.1981486  72.1864042  58.6911633
  64.6227874  70.9530315  58.0287936  51.5755697   2.8556705  60.9304428
  51.0961004   2.1661688  61.3897133  52.3422452   3.0206181  61.4792824
  12.6379180  58.4313345  32.9168415  12.1013784  58.0609989  32.2159791
  13.4415925  58.7130642  32.4798417  25.6968789   0.7201172  22.4821305
  25.4988518   0.6025578  21.5530467  25.7283627  -0.1692270  22.8347087
  21.9245768   8.5501999  12.3252547  21.5161467   8.5699570  13.1907189
  22.7744508   8.1345910  12.4709141  35.0011542   1.6194654   4.0581089
  35.5868270   1.0406376   3.5700718  34.1425642   1.2012793   3.9934915
  11.5017581  42.3298645   3.5370812  10.6709409  42.1376038   3.9718348
  11.9299912  41.4780951   3.4514242  24.4762182  10.8826138   8.7205523
  25.0212324  10.0993706   8.7962329  24.0002393  10.9242512   9.5499754
  19.4099832  54.3727684  15.6785703  20.0196934  54.0232706  15.0286949
  19.3326867  53.6780119  16.3324606  17.5036752  53.0371428  19.6966112
  18.4305239  52.8965855  19.8900723  17.2046530  52.2018623  19.3372786
  26.8033099  63.0505705  29.4019532  26.2909007  63.7651110  29.7802401
  27.1073651  62.5477362  30.1575565  37.8328177   3.9536882  44.5804930
  37.2984179   4.1052176  45.3600359  38.3603128   4.7476936  44.4936705
  23.8365746  50.0575447  36.2852454  22.9012465  50.2422523  36.1999536
  23.9117312  49.1185188  36.1155105  14.0839231  74.4714689  38.5641265
  15.0123096  74.2385912  38.5741210  13.6722291  73.8399935  39.1540265
  15.3579143  61.1821590  64.6907786  16.0241608  60.9812103  64.0335355
  15.2294926  60.3585087  65.1612468  32.9094720  46.4890242  36.5828657
  32.5768590  45.6520033  36.9068980  33.7702775  46.2803650  36.2199473
  14.3561494  66.6550732  12.1626818  14.2933834  65.7037115  12.0778489
  14.6148360  66.7978048  13.0731440  39.8279929  26.7689228  37.0539808
  39.2615676  27.5404048  37.0395994  40.3728151  26.8571830  36.2719274
  49.3639851  75.4381704  43.3713579  48.8701963  75.7171917  44.1424322
  49.3183041  74.4822550  43.3906841  17.8966083   2.4892355  25.0936413
  18.2741275   2.5681091  25.9697056  18.2205745   1.6494728  24.7679496
  26.6478276  67.4353790  17.6352477  26.4974761  67.1849537  16.7237031
  27.2291994  66.7562962  17.9774225  61.9440413  63.3878183  63.6088562
  62.7552605  63.7046862  64.0060282  61.2824440  64.0272379  63.8727903
  14.0912195   3.5679842  52.6268721  14.6781894   4.0170074  53.2352114
  13.2304712   3.6196018  53.0424213  24.9924207  72.8457022  27.2142839
  24.8718834  73.5327101  27.8698158  25.0042295  73.3117533  26.3782907
  42.3574349   4.3780781  31.0200119  42.8620430   4.9335075  30.4257870
  41.8676623   4.9936844  31.5653372   7.9344994  59.3331718  32.9821801
   8.6053824  59.6129894  32.3594046   7.1071577  59.5867491  32.5729895
  25.2517486  47.7596760  12.8377330  24.8950982  47.8639364  13.7198687
  26.1759639  47.5524521  12.9759955  72.8506943  35.8423210  38.6544728
  71.9264885  36.0556484  38.5257673  73.1066700  36.3436867  39.4286466
  66.5011136  61.0207501  31.7353991  67.3342495  61.4169350  31.9906500
  66.5463643  60.1273957  32.0761469  47.0038128  50.8883142  17.8432667
  47.6521873  51.1203671  17.1784413  47.2863007  51.3584900  18.6277211
  71.9934261  29.5302844  24.1137552  72.2523617  29.6939683  23.2068968
  71.7684555  30.3945160  24.4583154  36.9409585  42.7494097  20.6609011
  36.4129233  42.5013685  21.4197707  36.3102221  42.8261471  19.9449992
  22.5991368  73.3210468  32.4740052  22.8474760  73.3344078  31.5496778
  23.1701088  72.6602507  32.8658843  19.6653807  29.5024014  20.3744531
  20.2694941  29.0760922  19.7665536  19.6979415  28.9613342  21.1633873
  34.2977476  39.1132045  34.5069718  34.7988629  38.5979342  35.1391220
  34.6690702  38.8765597  33.6570597  75.5517640  51.8504715  36.3578439
  74.8404467  51.2442684  36.5646720  75.9966507  51.9917536  37.1935153
  24.7184992  74.8440075  29.1085696  24.4954371  75.7574844  28.9295793
  24.0374160  74.5447397  29.7108936  43.1878471  73.3577776  46.9217348
  44.1135836  73.5909462  46.8518925  42.8908730  73.7929535  47.7208948
  60.8900067   8.5498310  41.4155436  60.0152942   8.4014202  41.0562658
  61.3891956   8.9177013  40.6863546  65.0313835  52.3531475  13.4713581
  65.4182760  53.1442585  13.0962637  65.4119937  52.2926464  14.3475464
  43.0806446  68.3240747  60.9029388  43.3762455  67.6195908  61.4796162
  43.1844902  67.9700661  60.0196934  23.8917828  75.2470255  35.8425069
  23.1811118  75.6739092  36.3209963  24.4515204  74.8767757  36.5250301
  23.5936379  30.7054758  23.4225607  24.4933033  31.0206437  23.5091853
  23.5946774  30.1981878  22.6108408  72.2435719  38.0743861  43.5787439
  72.6254350  38.8308787  43.1336212  71.7291909  38.4510779  44.2927122
  23.0596548   5.7913471  42.5272131  22.7833595   6.7057682  42.4661827
  23.2760408   5.5459763  41.6276550  55.1673418  47.7757692  14.6315908
  54.7199756  47.1469927  14.0652585  55.7662707  48.2405758  14.0472353
  69.3724966  54.7373104  60.2500153  68.9510155  55.3436613  60.8590460
  69.7988558  54.0906763  60.8124352  78.9890190  23.5147549  32.6244831
  78.1777187  23.3532024  33.1060696  78.7052914  23.6765457  31.7247295
   7.3248762  46.9184113  40.8848858   7.6463139  46.1826658  41.4060259
   7.8869534  47.6520491  41.1340332  20.2865267  28.0147958  49.2449570
  19.8611689  27.8876591  48.3969402  20.4621148  27.1282005  49.5601559
  66.8977532  55.6633125  63.9525270  67.7944419  55.4897438  64.2389807
  66.9976613  56.1544071  63.1370070  21.9318700  52.8679752  30.9683704
  21.6793656  52.2544241  30.2784204  22.3013711  52.3152256  31.6569710
  37.7022743  53.7503290  31.1222315  37.6945305  53.5169792  30.1939416
  37.9813576  54.6658278  31.1367393  73.5847613   3.7789036  31.0202336
  73.2422110   4.5855404  31.4052391  73.1488653   3.0781294  31.5051508
  77.8567670  48.5809326  22.8395724  76.9322240  48.4949350  22.6070714
  77.9115775  48.2419586  23.7330627  31.4784002  52.1112490  39.1803622
  30.6214571  52.4795437  38.9653325  31.2801266  51.2881184  39.6268725
  37.9173255  65.2436447   9.1594797  37.8410268  64.3842888   9.5741057
  38.4110618  65.0789928   8.3561450  57.5260693  65.0177431  21.6816211
  57.8924209  64.4772243  20.9817243  56.6271001  65.1928711  21.4033818
  17.5827789  45.4695940  17.3093617  18.2986450  44.8349380  17.3407090
  16.8720317  45.0071955  16.8652236  79.1737397  47.5112200  38.6116052
  78.6099237  48.2778692  38.5087085  79.6411879  47.4442005  37.7789998
  15.9161532  58.0670404  14.0170479  16.6523325  57.4781370  14.1827762
  15.2299845  57.7662277  14.6127951  44.4332790  69.4359159   3.2852155
  44.3624687  68.5218859   3.5604683  44.4735956  69.3958759   2.3297036
  17.7791929   5.6423151  12.4581826  17.7561605   4.6854749  12.4455881
  17.4694002   5.9007990  11.5901697  16.2510610  33.3163834  21.6536832
  17.0859730  33.3497691  22.1206284  16.4749968  32.9787993  20.7864332
  45.1863146  73.5181236  22.6643658  45.4266262  72.8138876  23.2664752
  45.3900719  74.3219566  23.1424546  50.8424088   5.4481388  59.6203804
  50.9497377   4.6048666  60.0603914  51.5948197   5.9655453  59.9074268
  71.4535662   4.5253874   3.0735803  71.0503574   4.8150230   3.8919717
  71.0912558   5.1101471   2.4079850   7.9991657  56.3460970  44.1361380
   7.3973459  55.7105064  43.7487459   7.9990536  57.0808411  43.5226345
  42.2354603  42.4233389  11.5761173  41.6591883  42.6818275  10.8568645
  41.6796064  41.8975306  12.1512532   0.7797980  62.2361422   1.6186427
   0.4586172  62.7660418   0.8890636   0.8174270  61.3456631   1.2695561
  26.9989133  69.4878531  13.9994860  26.2557411  69.9147892  13.5732782
  26.6057467  68.7910557  14.5249617  74.9304805  16.4267288  58.9328691
  75.2767382  15.7676397  59.5344791  74.1707597  16.7904840  59.3875590
  77.0010787  55.9230232   5.6929976  77.1398824  56.0997391   6.6234469
  77.8623366  55.6607246   5.3679353  56.1473557   4.9191643  50.7614708
  56.7276879   4.1774298  50.9325600  55.3026816   4.5195318  50.5539942
  25.0390458  74.6020460  46.9234753  25.2592015  74.4709682  47.8457451
  25.2628541  73.7715626  46.5034342  68.3440065  63.3785200  47.8756380
  68.5097742  63.2567167  48.8104725  69.1057205  62.9907036  47.4447966
  64.6809578  51.5846062  50.4074144  65.3644466  51.0221863  50.0430489
  63.8699961  51.2606144  50.0154924  68.9899441  39.0146900  53.6857224
  69.2718931  38.9803673  54.5998096  68.1319281  38.5903812  53.6836338
  14.6664751  60.2666712  42.6179838  13.8040745  59.8515987  42.6326084
  14.7183478  60.7404852  43.4480667  78.2137125  38.2830262  23.8675475
  77.7946253  39.1381359  23.7706804  77.8207142  37.7445030  23.1806874
  46.7422819  59.2992020  25.9337354  47.0941162  59.9823618  25.3630042
  47.4198246  59.1689539  26.5972114  52.9618692  69.7009850  62.6287270
  53.8150311  70.0291586  62.3447371  52.3716450  69.9103594  61.9048309
  52.1696373   5.9036518  44.5195150  52.2704073   6.7904545  44.1735935
  51.9385787   6.0303379  45.4397297  72.8985274  74.1786480  27.9530501
  72.7279770  74.2272091  28.8936806  73.8092458  74.4582319  27.8600121
  61.9786626  38.0521798  15.1843393  61.2694663  38.5511684  14.7790194
  62.2932011  37.4747443  14.4887352  33.1355214  28.3591342  15.7864535
  32.8375006  28.6176753  14.9143469  34.0125275  28.7353134  15.8611596
  70.8628940  35.0332117  18.3900428  70.0679564  35.3939962  17.9974353
  70.7703978  34.0857005  18.2905579  27.5384855  49.2232990   0.6987520
  26.8109083  48.6930084   1.0238010  27.1234441  49.8885822   0.1497820
  37.1365809  48.0170298  15.0692081  36.6682458  47.3617792  14.5519626
  37.9988408  48.0754471  14.6577144  14.0676188  25.5724931  20.5747962
  13.8195288  24.7233629  20.2091956  14.2988634  25.3833771  21.4841866
   6.7552267  36.1951056   9.9195698   6.0689985  35.7417383   9.4299010
   7.5177966  35.6206408   9.8509720  44.5537663  63.2179642   7.9631048
  43.6458158  63.1778097   8.2635117  44.9116087  63.9986563   8.3858377
  54.6755838  56.2425804  35.2714586  54.6850061  55.6211185  34.5434999
  55.4010582  55.9664583  35.8315182  67.8273278   6.3243639  14.5681548
  68.2634419   7.1756381  14.5311463  67.3254162   6.2768078  13.7544870
  25.5783497  25.7761135   2.1577671  26.2804257  25.1255360   2.1494225
  24.8184286  25.3040734   2.4982479  16.7840278  58.6040449  36.5169477
  16.5316224  59.5273590  36.5203738  16.1941469  58.1968403  35.8825517
  63.2548114   3.4917904  63.1075525  63.2760545   2.9266811  62.3352623
  62.5672980   3.1181742  63.6588860  78.3226725   9.5981003  32.9082370
  77.7806612   8.8806702  32.5799870  78.4731575  10.1538445  32.1435547
  23.4293052   8.8528515  20.6355333  23.1178301   9.7522427  20.5340052
  22.6937657   8.3109737  20.3499103  44.5481873  62.3968458  30.7769060
  44.2143250  62.5538301  31.6601515  44.2924833  63.1754446  30.2822995
  61.0953283  53.3928776  55.7544947  60.7701397  53.2887030  54.8602772
  61.7602825  52.7108049  55.8485222  20.0759315  21.2262416  26.2940335
  19.7461879  20.9756017  25.4310846  20.3505898  20.4012966  26.6943574
  46.5754005  13.1264759  26.8200445  46.4106794  14.0155388  26.5059137
  45.7047101  12.7392365  26.9104552  53.4757608  26.5136038  64.8325916
  52.7505638  27.1298967  64.7300903  53.2812381  25.8097730  64.2137092
  68.0568030   3.8904406  19.5025945  68.9185240   4.0332581  19.8940945
  67.7738669   4.7608353  19.2222440  36.4371967  15.1160491  38.2598329
  37.1782017  14.5161593  38.3451319  36.6819978  15.8757365  38.7882066
  37.9835558  62.9014969  10.4644215  37.0612454  62.7410316  10.6639814
  38.4323025  62.1055222  10.7495320  52.0403719  56.1900187  35.6511045
  52.9847002  56.2362146  35.5016422  51.7528009  57.1029997  35.6502581
   6.6282072   1.5442873  38.2095838   5.8216372   1.0430170  38.0895686
   6.9156923   1.3267685  39.0963006  51.2436348  65.8773232  23.7061071
  52.0438510  65.8831310  23.1808901  51.0488730  64.9491358  23.8356090
  12.3716402  54.8117018  30.3335977  13.0608475  54.7825241  29.6699905
  11.9008076  53.9852238  30.2264142  28.1914258  57.3879051  22.1209049
  27.4243712  57.9525471  22.0258260  28.8748407  57.8246880  21.6125774
   6.1048746  65.8733034  21.7830420   6.8381310  65.6581020  21.2066269
   6.4483416  66.5517426  22.3644042  31.7964721  74.3100166  22.3154140
  30.8595037  74.4669056  22.4324989  32.0225906  73.6850500  23.0042696
   5.1194229  19.0364338   0.8204811   5.4479637  19.8718811   1.1526102
   5.8671179  18.4422947   0.8851127   1.4398388  29.1705023  50.9434482
   1.4461402  30.0855146  50.6624767   1.9269494  28.7073265  50.2619609
  11.8676782  50.8343601  20.0780463  11.4529717  50.9077215  20.9376192
  11.6667783  49.9437761  19.7904134  25.9260654  38.1804824  14.1937304
  26.2433767  39.0221262  14.5211136  24.9724579  38.2502222  14.2384326
  29.5024252  70.9696198   6.6375577  29.1155219  71.7553091   6.2512577
  30.1730061  71.3015556   7.2345263   2.2047857  54.9318443  42.8021022
   2.6558689  54.0907989  42.8755924   1.2875084  54.7284447  42.9850384
  68.1338497   0.1324106  28.2207251  68.0823609   1.0012270  28.6191440
  69.0232798  -0.1659273  28.4108162  62.2933718  13.0743004  29.2669415
  63.1398054  13.5192181  29.2241621  62.3859235  12.3262192  28.6769986
   6.7310542  50.9390116   8.8974601   7.1753591  51.2378931   9.6908689
   6.4916790  50.0312948   9.0844905  27.7814507  41.8524075  35.7445598
  27.5311422  42.5921822  35.1911116  28.6263633  41.5677786  35.3962207
  64.5670018  63.6056934  64.3406760  64.9128053  64.2739616  63.7490031
  65.1586017  62.8609787  64.2327958  39.2038417  56.2243748  44.2590952
  38.6993527  55.7462788  44.9172306  39.6581006  56.9061089  44.7541952
  76.9550326  72.8427124  25.2376938  77.3790136  73.1289387  26.0467339
  76.1755106  73.3938074  25.1678658  51.0937568  17.7157951  18.2613158
  50.7143446  18.4561897  18.7347102  50.8476468  17.8638531  17.3482215
  45.8311701  72.0551205  12.1028638  45.3545046  72.3674726  12.8719258
  45.3483963  72.4156523  11.3591051  79.9497553   6.9024540   5.3473234
  80.2102753   7.0200134   6.2608546  78.9932629   6.9347836   5.3649741
   0.3628646  30.0878563   8.7506131  -0.5140604  30.3713646   9.0091780
   0.2194344  29.5381870   7.9802063  68.8821129  15.7858454  62.8623995
  69.3111042  16.4819561  63.3600241  68.7116722  16.1747824  62.0045480
  71.9887686  56.3973904   8.8675690  71.8909836  55.7989454   8.1269366
  71.9240952  55.8354187   9.6397346  23.7575626  39.6724868  16.8464160
  23.9396834  40.6043196  16.7249763  23.6480451  39.3321443  15.9584951
  79.9115606  16.9013954  18.8841367  79.4690939  16.0526062  18.8863122
  80.1855322  17.0310093  19.7920859  60.7997962  14.8535515  30.6652880
  61.3829418  15.6071163  30.7564497  61.3219830  14.2018105  30.1975346
  46.4504862  66.1407757  26.1517477  47.3309612  66.0912800  26.5239644
  46.3059139  67.0750713  26.0020232  34.5204258  61.5900850  29.8954439
  34.2850399  61.1162376  30.6931257  34.0492558  61.1340618  29.1981101
  78.2900187   9.5400597  22.8534245  79.1543623   9.2986370  23.1863856
  77.6801010   9.2278744  23.5218334  17.3157727  44.5449677   1.5850666
  16.9633614  44.7494450   0.7189110  18.2606827  44.6680584   1.4943579
  28.0876255  65.7745171  31.8048263  27.4765587  65.6973743  31.0721064
  28.2120514  64.8753691  32.1086121  66.4063597  65.5959749  31.2982750
  67.2363281  65.3353739  30.8989382  65.7625771  64.9916410  30.9287333
  49.5074316  24.1155125  31.0720468  48.6423298  24.2835213  31.4456749
  50.0104662  23.7372852  31.7932510  49.4299813  22.8888203  50.4122305
  50.3246947  22.5683952  50.5264568  49.2251249  23.3267857  51.2383318
  43.9195299  65.0962353  44.7920656  43.1954002  64.4760799  44.7067785
  43.7859488  65.7200384  44.0784407  66.4255806   6.2673450  19.8281848
  66.9624516   6.7908169  19.2332292  65.6114312   6.1180092  19.3474662
  16.9744396  54.5693445  29.2793727  17.1101391  54.2766714  30.1805711
  17.7114403  54.1989470  28.7937117   5.1176777   0.6204296  41.3296938
   5.3907623   0.9121014  40.4598761   4.2069950   0.3484131  41.2161398
  44.6452761  56.0096598  49.2634106  44.2326450  56.5721989  49.9187851
  45.1265049  55.3592348  49.7748756   7.4355221  68.5125637  23.3841395
   7.8837705  69.2349672  23.8239503   6.5419841  68.8296556  23.2527089
  30.0883055  60.9079838  19.0407693  30.4569507  60.1705456  18.5544431
  29.2272997  61.0482788  18.6467874  75.9022276  37.2263327   8.0033520
  76.3574426  37.5586310   8.7770394  75.9508984  37.9429283   7.3706177
  22.0685187   3.1685329  21.2172985  22.2602549   3.8929106  21.8129015
  21.1337605   3.2537199  21.0296869  65.6220671  26.7152668  55.9478283
  64.7864243  27.0210339  56.3005924  66.2808415  27.0953251  56.5290356
   7.8634099  39.3887935  57.6606795   8.6102179  39.9525247  57.4588892
   7.6324157  39.6109806  58.5626259  66.3996240  34.8336960   8.7439907
  67.0475432  35.4012085   9.1615665  66.7017170  34.7503258   7.8395462
  75.5732294  11.3177658  20.8061957  75.4933783  11.3834072  19.8545933
  76.4824101  11.0567547  20.9528160  36.8753600  69.9372673  26.1199379
  37.6589084  69.3919849  26.1903167  37.1537089  70.7980537  26.4326692
  72.9107758   0.9417845  64.1410732  72.1423432   0.7115103  63.6188507
  72.8146645   1.8793894  64.3080711   8.5701218   8.9694000   9.3425292
   8.5334101   9.7812439   9.8482990   8.4247437   9.2444016   8.4372807
  60.1217552   9.3290783  53.9933825  59.3469330   8.8048817  54.1961193
  60.6427642   8.7724758  53.4146070  61.7119741  53.2676029  18.0906641
  61.5353918  52.8647995  18.9408398  61.2235880  52.7317715  17.4656892
  31.4860001  39.8422791  21.1099792  32.0344677  39.0592361  21.0625005
  30.6397572  39.5233131  21.4235950  65.0262737  68.7153339  64.6469736
  65.8432674  69.2076540  64.5671082  65.2889585  67.8744745  65.0213861
  39.2983996  26.5847388   6.4178255  39.2244755  27.5324240   6.3053015
  40.0830685  26.3454619   5.9245995  32.1167924   0.7890011   5.7564771
  32.4611964  -0.0317787   5.4044360  32.0603564   1.3700129   4.9978769
  72.3038336  10.5628944  60.7307673  71.6878315  11.2062527  61.0812998
  72.8137299  10.2809788  61.4902115  48.5424995  59.6418142   7.3263949
  47.9013777  59.5398378   6.6229802  49.0632725  60.4020643   7.0674485
  43.2244968  67.8092766  40.5823374  43.4320259  68.3507967  39.8208165
  43.1688786  66.9189930  40.2351570  33.7959435  16.3145805  24.5914769
  34.1954418  15.4803444  24.3451405  34.5221331  16.8362690  24.9331212
  47.3329926  74.7152662  14.6144962  46.7470026  73.9599800  14.5655859
  47.8984880  74.6297741  13.8469434  35.7909969  64.9280105  60.2946031
  34.8352579  64.9498688  60.3428086  36.0762886  64.8996769  61.2078586
  78.2615801  13.1475330  47.1238232  78.0278155  13.3051182  46.2090826
  77.4216934  13.0455280  47.5715160  11.6092527  67.9026413  46.0961628
  11.1339116  67.1497107  46.4474058  12.0628417  68.2738161  46.8529463
  17.9709101  62.5101805  43.9578581  17.2201598  62.9112053  43.5199213
  18.4037948  62.0007563  43.2727814  14.0133035  58.4936380   7.8017217
  14.9502873  58.6731958   7.8795248  13.5899889  59.3078279   8.0740017
  31.2533593  67.6783752  31.4453673  31.4832306  68.5132027  31.8533564
  31.4853811  67.0198584  32.1001625   7.9253697  70.7284689  11.4756978
   8.1309044  71.5162897  10.9723806   8.7616241  70.4643726  11.8593168
  46.8570133   4.5854879  26.8251348  46.3287755   4.1382719  26.1639261
  46.7487618   4.0569616  27.6158166  30.4534010   5.0031935  46.9094690
  30.9975437   4.3356787  46.4916596  29.5798878   4.6132646  46.9435128
  10.6283593  74.8144865  25.0250816  10.9432280  75.2427340  25.8211303
  10.7303905  75.4760218  24.3408394  54.7299095  10.5453373  17.3437917
  54.9905892  11.1926533  16.6886151  54.2265960  11.0447193  17.9868507
  59.7873116  62.4363756  32.4978375  59.0016651  61.9806719  32.1956468
  60.2302456  62.7087545  31.6941881  55.0397205  59.6958542  25.9670305
  55.4635859  59.7651577  26.8224621  55.6893015  60.0325966  25.3498745
  63.8056012  12.9926277   3.7999630  64.4450494  13.7017799   3.8666332
  64.3271586  12.1927811   3.8666219   6.2205830  10.9713913   8.8068247
   6.8341389  11.5438343   9.2673522   6.5551319  10.9331585   7.9108071
  76.3561044  57.8218971  54.8768517  77.2359643  58.0717598  55.1590738
  76.0275516  58.5896622  54.4090745  19.2428243  41.7975235  26.8324900
  19.1560352  41.5307808  27.7476668  18.3578432  41.7212152  26.4758158
   8.5621333  44.7671652  19.6683300   8.2952678  45.5293274  20.1822615
   8.3818215  45.0147438  18.7614536  45.7101440  68.6341286  17.6695907
  46.4310741  69.0341759  18.1558502  45.9707308  67.7190876  17.5645697
  15.2522078  25.5884815  13.9559543  15.6952372  24.7571732  14.1259181
  15.9177675  26.2543179  14.1289198  39.4978651   5.6467320   5.7164621
  40.2512964   6.0547615   5.2897441  38.8363775   5.5855824   5.0273126
  54.8141098  58.5960722  37.1581149  54.6381950  57.9796505  36.4472651
  55.7690907  58.6385679  37.2074509  34.1974425  68.9316893  31.7579246
  34.7984433  69.3834209  31.1655021  34.3768644  68.0019283  31.6179705
  50.7481762  15.8249355  57.3522615  50.9864732  16.5383030  56.7601824
  51.4189740  15.8459450  58.0347729  80.0521942  52.5554253  24.1093349
  79.8895498  51.8931366  24.7810125  79.2296024  53.0409790  24.0475845
  24.1652799  67.9010057  35.9485865  24.0884113  68.4795380  36.7072845
  23.9871216  68.4665251  35.1971316  30.2282810  73.8458300  58.4204483
  29.6562314  73.0872774  58.5370302  31.0931826  73.4704351  58.2553434
  52.0604821  20.9313656  23.8061237  52.5797650  20.7137180  23.0320406
  51.5380999  21.6877342  23.5391951  75.1266893  51.0410738  28.1552482
  74.5933783  51.8024206  27.9268503  76.0174203  51.2898302  27.9083657
  59.7450110   7.1134258  18.6216068  60.6505414   7.0329834  18.9212334
  59.4848415   6.2186886  18.4025407  18.5959220  70.3988552  20.4398441
  18.1804919  70.6140423  21.2749147  18.3922040  71.1423016  19.8723817
  68.1799742  44.8431469  23.5847545  69.0093895  45.2691437  23.8011479
  67.5326201  45.5473496  23.6201954  39.5063305  55.9678984  12.3611712
  39.5999718  56.8163776  12.7942348  38.5666633  55.7875538  12.3882985
  28.5966244   3.3313871  25.3589463  27.7635899   3.6243464  25.7283616
  28.3490315   2.7252890  24.6606803  11.8057579  72.6349640  26.3374567
  11.4306683  73.2029009  25.6644106  11.0820812  72.4694490  26.9417214
  43.7449455  52.4839020  62.2402287  43.0822420  52.8594255  62.8199148
  43.2564449  51.8880844  61.6722488  72.6938343  75.1159143  42.1938372
  72.0230532  74.9047947  41.5444469  72.4650812  74.5840406  42.9560804
  57.0266056  60.3343868  24.0586710  57.1721125  59.5174885  23.5814500
  57.8995323  60.6033564  24.3448234  25.1310686   7.0480324  56.7165709
  24.5576585   7.5797344  57.2685862  25.2704717   7.5803352  55.9333420
  52.9880095  57.1339273  48.6574173  52.7274752  57.1642685  47.7368593
  52.2113276  57.4239445  49.1358376  77.5560995   9.9296928   8.4827375
  76.9849058  10.6497170   8.2152677  76.9746729   9.3176247   8.9338893
  14.6603636  41.9823204  59.1171279  14.5171551  41.4175735  59.8765901
  15.0668482  42.7702843  59.4778469  73.6035442  59.5723009  45.2264404
  74.2630482  59.0471649  44.7730970  73.3559084  59.0432501  45.9847355
   8.7768688  15.5992390  58.3489895   9.5951071  15.1027084  58.3354664
   8.3555927  15.3443886  59.1698456  54.5893737  11.8022991  43.8157368
  54.4433018  12.6438213  43.3836174  55.1602455  11.3212944  43.2165909
  73.5797640   3.4220387  12.1951175  74.1253706   2.7668453  12.6301682
  72.6817938   3.1487108  12.3826754  42.1308899  73.0560637  22.6993299
  41.3162136  73.3500147  23.1069160  42.7873707  73.6874390  22.9936600
  20.5988741  63.6418104  12.6321828  21.3523936  63.3862543  12.1000803
  20.2752423  64.4428253  12.2200346  14.6276629  58.8357067  30.7223248
  14.4892085  58.4544230  29.8553276  15.5095673  59.2057657  30.6831765
  57.7202896  12.7954851  60.8659550  57.2661439  12.2046076  61.4666632
  58.2602069  12.2188936  60.3253394  33.4514692  20.3851677  56.5106487
  32.8235706  20.1131607  55.8413315  33.3927455  21.3405205  56.5200138
  22.9207158  60.9743977  38.8773370  22.6459289  60.1570845  38.4617352
  23.0613923  61.5783739  38.1481910  33.5816717  45.5214262  21.4483213
  33.3971715  46.1529684  22.1435547  32.7214575  45.1880789  21.1930847
  53.6952591  71.6960335  47.0461464  54.6510220  71.7282104  47.0047522
  53.4734869  72.1810007  47.8410387  12.3418581  56.9507742  37.3265052
  13.2362080  56.8016005  37.6332903  11.7905676  56.7203951  38.0743265
  35.5911040  65.6923819  39.5078087  35.8324456  66.3275623  38.8336158
  35.1730037  66.2159157  40.1914310  43.0462655   7.8095127  51.2060070
  42.8086337   8.3738495  50.4702902  43.7839504   7.2923161  50.8826351
  50.9408017  10.2375866  63.5778046  50.6542631  10.2009083  64.4903708
  50.5853935  11.0629631  63.2481527  49.0085411  68.3877945  50.3848171
  48.7664700  68.5240364  51.3008261  49.5143032  69.1665173  50.1523733
   9.5759116  20.3031006   1.3204745   9.2238580  20.0441017   0.4688814
   9.1239678  21.1210289   1.5277651  21.7017269  52.1992540  27.9268885
  20.9741306  52.0884943  27.3148680  22.3406529  52.7258730  27.4465990
  65.7284880  68.4341288  44.6650934  65.3600693  68.3272457  43.7881184
  66.0701609  69.3282270  44.6740103  62.1277543   8.4451366   7.9216540
  61.8731400   9.2822052   7.5334138  61.4552423   7.8305222   7.6280540
  65.4934692  42.2691822  53.4295130  66.0790968  42.2066259  54.1840744
  64.8695946  41.5533876  53.5505390   7.5716391   2.9103018  43.0469084
   7.9166927   3.7979485  43.1430960   7.7097693   2.6983667  42.1237421
  62.1800709  67.4084330  18.3401358  63.0511951  67.0569897  18.1560993
  61.6884613  67.2657728  17.5313091   4.7529974  10.9824158  18.4028149
   4.5353117  11.3409115  17.5423896   4.9320355  11.7511917  18.9442694
  22.2413054  33.2903553  43.9431858  23.0946198  33.6586643  44.1721869
  22.4189510  32.3666931  43.7656546  29.6777630  63.5442972  22.9970551
  29.0170455  64.2286253  23.1037450  29.8979783  63.2825232  23.8910389
  39.9571657  65.9087658  38.0720663  39.1546297  65.6756735  37.6053357
  40.3793287  66.5602016  37.5120306   2.5613632   4.8094631  37.7582717
   2.8735628   4.8438908  36.8540716   3.3128491   4.4923664  38.2592201
  68.8135620   1.5583826  14.7240472  68.2999560   1.0824038  15.3766465
  68.7383124   2.4767233  14.9833179  53.6425066  67.6730585  51.9214725
  52.9890490  68.3685160  51.8468857  53.9703417  67.7475595  52.8176928
  25.7082820  44.0020561   6.5187830  24.8299766  44.3341017   6.7046714
  26.0113168  44.5276499   5.7784110  49.6274853  71.3595486  12.1202922
  49.8439217  71.1590433  11.2096977  50.4543066  71.6512537  12.5043583
  20.2769103  21.9419743  37.2369051  19.6508082  22.6564766  37.1198153
  20.1930472  21.6987110  38.1588697  53.4012699  68.7605715  23.7763882
  52.6519918  68.9823294  23.2235432  53.0397224  68.7112522  24.6613097
  76.2360710  57.4739504  27.3327231  76.7957929  57.0709276  27.9964375
  76.6244226  58.3359623  27.1832299  58.0089637   2.0387436  16.0205424
  57.5197908   2.4854208  16.7114973  57.3612662   1.4793468  15.5918229
  52.1577967  74.8471627  54.3727729  51.6404380  75.1654253  53.6329886
  52.4872650  73.9954791  54.0858623  48.4784957  25.7912804  55.3118372
  49.2720338  26.3137699  55.4281473  47.7640220  26.4262081  55.3630400
  49.1817713  74.7913456  39.1849804  48.5379887  75.4913473  39.2935133
  49.7243786  75.0768328  38.4499264  16.1677351   9.3519760   9.6539694
  15.7100048   9.6538139   8.8693613  16.3926687   8.4410740   9.4645226
  69.3861147  11.3960815   9.0935755  69.5475956  11.6373421   8.1814641
  69.0248867  10.5108906   9.0468323   4.1853752  17.9618336  20.6039047
   4.6550789  17.3729111  20.0133300   4.8417034  18.6043621  20.8733797
  41.1198997  68.9914560  14.2931843  41.5622330  69.8145247  14.0854919
  40.8197594  69.1018724  15.1953793  40.8088013   8.0885960  54.6987867
  40.8198043   9.0451313  54.7326231  40.1023372   7.8786446  54.0879965
   6.5144482  31.8838287  16.3262379   6.8466702  32.5081230  15.6811714
   6.5778103  32.3463226  17.1618879  35.1728320  58.0069494  30.1451206
  34.4708133  57.3693371  30.2749443  35.9737015  57.4827814  30.1354957
  65.7634830  63.4914255  33.3533120  66.6836071  63.3790779  33.1146026
  65.4322100  64.1396141  32.7317476  75.0237843  21.0173107  21.9004512
  75.6910368  21.5103222  21.4230132  74.2020413  21.2415958  21.4638042
   6.7205229  18.9035011  45.3540325   7.2228756  18.3120514  44.7936201
   7.0178356  18.7027813  46.2414742  36.8814874  56.1958170  15.7072294
  37.3038149  56.9706202  15.3363538  37.0820713  55.4941177  15.0878608
  16.6507712   0.3967548  27.2311831  16.3947573  -0.5251812  27.2580886
  17.5988188   0.3783489  27.1004224  40.6912123   3.1053725   4.3929318
  41.0753523   3.8720408   3.9676121  40.4244505   3.4193173   5.2569369
   0.9491673   8.0973793  23.9739251   1.2355938   8.5816074  23.1995130
   1.3901272   8.5312534  24.7043633  34.1363096  74.0984488  20.8062840
  34.7975874  74.0219116  21.4941001  33.3296299  74.3171072  21.2728548
  42.4289509  16.3371445  41.9557476  41.4852091  16.2702442  41.8104649
  42.7586898  15.4522491  41.7993307  66.2676287  73.3672857  48.9053583
  66.8206930  72.5952101  49.0247393  65.4316854  73.1272221  49.3051147
  22.7019906  62.2624016   5.3925145  23.4523535  62.0183945   5.9344101
  22.0271325  61.6211319   5.6151682  73.7315508  32.9406239   5.4188561
  72.7849909  32.9974152   5.5493361  74.0054604  32.2063709   5.9684777
  46.4856919  10.9347893  24.7349691  45.5562492  10.7340599  24.6250820
  46.5000399  11.6854359  25.3287363  44.8672915  63.7508821  25.9956670
  45.3423500  64.5817852  25.9832263  45.5433512  63.0907202  26.1485171
  30.4298881  20.4700981  63.3035904  30.5251316  20.6362472  62.3657447
  30.4566292  19.5164762  63.3818175  20.0523090  64.4611740  33.7299609
  19.1545320  64.6452570  34.0062618  19.9635327  64.1164970  32.8413963
  64.3295809   1.0233046  12.6177585  63.6759015   0.3283096  12.6946819
  64.0505453   1.5313078  11.8559825  44.1777849  70.5370092  57.7391005
  44.8215675  69.8287582  57.7515793  44.4378710  71.1098337  58.4605265
  74.0468212   8.9074589  18.6904562  73.5884853   9.1532970  19.4940245
  74.6157738   9.6536327  18.5013855  18.0842006  71.9448042  54.5639324
  17.4988747  72.5163746  55.0608587  17.7801895  72.0188475  53.6593151
  35.1900120  73.1431780  32.3440358  35.3562565  73.8796196  32.9324671
  34.3773944  73.3746824  31.8942687  58.4599777  19.3658615   9.8877966
  58.5118075  18.4101463   9.8755920  57.9950043  19.5908142   9.0819281
  77.8859326  18.8972641   5.4995334  77.1420714  19.3369461   5.9113312
  77.7487465  19.0231110   4.5606124   4.6698895  34.1934658  61.9963646
   4.7649183  33.3302380  62.3989058   5.4378452  34.2802311  61.4316082
  57.8848267  70.8053875  25.9446740  57.1137285  71.3632727  26.0466957
  57.6296806  70.1628494  25.2826500  76.9500061  22.9217983  21.1732745
  76.3533255  23.6498333  21.3469648  77.3318764  23.1236530  20.3190732
  16.0524164  34.7467604  18.4895495  16.7669617  35.3434410  18.7123278
  16.4211403  33.8728752  18.6183813  60.7492399  59.1996813  12.8551245
  61.0076237  60.0934315  12.6300085  61.5653229  58.7002134  12.8272390
  53.1189680  64.6788263  35.8851337  53.2091951  64.3165636  36.7665267
  53.6175346  65.4955673  35.9096766  65.7398510  62.3306370  10.5064106
  65.7955313  61.6693592   9.8165977  66.5602970  62.2407198  10.9911871
  40.1035738  58.2290554  16.8966544  40.9359074  58.2916832  17.3651922
  40.3078365  57.7193642  16.1126113  73.2006308  17.4146153  22.5857544
  73.9736601  17.6857353  22.0906234  73.4831616  17.4332882  23.5001159
  59.6638047  29.7145930  13.1611851  59.5214592  28.7692776  13.1127289
  58.8109719  30.0962010  12.9531363  13.0136686   9.0116346   3.2685733
  12.9351669   8.4332055   4.0271831  12.4417788   8.6198974   2.6084864
  75.6780931   3.7825108  21.7238283  76.5307134   3.7956536  22.1586823
  75.0609347   4.0666121  22.3980927  53.5860252  25.1117420  26.1621237
  53.1497335  24.9479985  25.3260207  54.0506363  25.9384394  26.0319805
   0.0582454  26.6771650  14.3563986   0.7675686  26.2392259  14.8268259
   0.3988233  26.8005562  13.4703887  36.0891936  61.3018989  26.4765525
  35.7982824  60.4100441  26.6668129  35.2873764  61.8243848  26.4947581
  30.2075434  40.0157690  43.0469894  30.0620365  39.9904013  43.9927244
  29.3281603  40.0446510  42.6700497  70.3465140  15.5566013  25.4545403
  70.1723653  15.8795381  26.3386321  69.8122436  16.1122215  24.8870277
  49.0779305   8.6072707  15.2449560  49.4852018   9.0110171  16.0113430
  48.8590336   7.7199697  15.5295825  58.1805116  39.5274663  13.8201094
  57.8896218  40.2921772  14.3169284  57.3755151  39.1557002  13.4595525
   4.2624441  23.5708189  23.4827471   4.8640388  23.3971834  24.2067409
   3.4158510  23.7173510  23.9046955  68.0571919  38.9264703   9.8964930
  68.5511869  38.3227849   9.3417287  67.9392892  39.7071195   9.3552732
  11.4653146  43.4822750  26.6176772  11.1253548  44.3553352  26.4216375
  11.4114451  43.0119038  25.7857609  37.4968677  12.3067486  23.5041499
  37.5499588  12.2765052  22.5488997  36.6912180  11.8345404  23.7143254
  34.6580935  16.6719306  11.6964340  35.2988768  16.9213843  12.3623192
  34.9572992  17.1104479  10.8999360  48.0586860  70.9729882  42.5087786
  47.4243084  71.2204309  41.8360424  48.8505450  70.7482873  42.0202065
  71.9262898  38.7263083  53.2095957  71.0028344  38.7018728  53.4603262
  72.3811280  39.0198135  53.9990330  67.4364294  64.7286138  63.4393494
  68.1084121  64.3668422  64.0170993  67.4269117  64.1396794  62.6848301
  43.7889291  30.8996657  65.0364323  43.2888402  31.6651938  65.3194674
  44.0030540  31.0785935  64.1208084  47.3105515  36.3743803  65.1821393
  47.3057283  35.6557498  64.5498588  46.7143048  37.0244340  64.8104483
  49.2860368  23.3759723  56.3354108  49.3621150  23.6611305  57.2459760
  48.8342768  24.0963064  55.8957931  30.6076717  26.6110873  63.6721516
  29.8829651  27.2346067  63.7196207  31.1001897  26.7543149  64.4803238
  51.9678582  43.9323685  63.1627871  52.4197782  43.8704679  62.3212597
  51.0547317  43.7293336  62.9597860  62.7535022  58.0255732  53.3971450
  63.4428776  57.9217276  54.0530488  62.6211227  58.9716348  53.3365306
  43.7919044  28.6190820  36.0615802  43.4679317  28.5002065  35.1687503
  44.5205879  28.0028725  36.1359930  24.8522449  41.4857292  13.5478032
  25.6401658  41.0265064  13.8385344  25.1745963  42.1579742  12.9474640
   4.5298441  55.6542120  61.0946315   4.1877134  54.7799644  61.2813577
   3.8939150  56.0361085  60.4896691   6.4125729  52.4326372   4.3371361
   6.6140860  51.8806028   5.0927061   7.0991951  52.2292471   3.7019861
  58.0320793  20.8535981  59.0510798  58.2575613  20.5534840  58.1705570
  57.1141201  20.6055737  59.1609192  64.8306387  39.4926023  30.0147629
  64.3181103  39.9309373  30.6940341  65.6922465  39.9071264  30.0598669
  65.6245070  11.7315805   8.2223809  66.1306470  12.5418544   8.2816166
  65.1886505  11.6588223   9.0714782  51.7006537   3.9756418   7.8848892
  51.6378327   3.7103964   8.8024575  51.7475840   4.9312283   7.9144812
   1.3021787  16.6098464  25.6739783   1.4244606  17.3930764  25.1374817
   1.7092344  16.8279028  26.5124226  69.9708602  10.3503357  64.9530030
  69.4934795  11.1421810  64.7053803  69.4226298   9.6317516  64.6378712
  50.7876092   5.2112174  20.5937147  51.7252952   5.0287461  20.6543803
  50.7390433   6.1279589  20.3226829  64.5746670  19.0514265  56.2086513
  65.1546011  19.5333324  56.7982927  64.0352044  19.7272049  55.7981178
  62.2565431  53.9666054  45.8054313  62.5006885  53.1526480  45.3648671
  63.0086250  54.1735861  46.3601920  48.1980828  60.0064575  47.3147917
  48.1575683  59.2787050  47.9352474  48.5774276  59.6252631  46.5229464
  11.1115968  10.7188761  10.5866134  10.3837025  10.8092129  11.2016261
  11.2534106  11.6042614  10.2516305  46.3373804  10.9026253  31.5295672
  46.5073299  10.7898462  32.4647832  46.8589926  10.2200830  31.1073279
  19.1448653  27.5266075  26.1564279  18.3240724  27.7049685  26.6154695
  18.8749492  27.1263361  25.3298950  68.6420876  20.7081532  10.8246338
  69.3141216  21.3894105  10.8467472  68.3190053  20.7195783   9.9236792
  36.7806506  26.4365458  18.9874744  35.9237051  26.0375023  18.8370025
  37.0893836  26.0407400  19.8024917  70.5967102  65.9934621  56.1866570
  71.4798198  65.7558649  56.4693165  70.0235734  65.6332027  56.8633842
  35.3673029  12.6846349  15.1875699  35.9188080  13.4195673  14.9193382
  35.7765627  11.9186616  14.7850478  48.8924551  23.7483573   3.1133613
  48.9341021  24.2310691   3.9388835  49.7604179  23.3553314   3.0216727
  29.4804481   5.2208458  54.6922311  29.4453291   5.9634147  54.0892479
  28.7220005   5.3403698  55.2638098  59.4855743  61.2631512  19.5637429
  58.9370852  62.0211983  19.3618619  59.6741730  61.3461208  20.4985046
  46.1249065   7.2747678  27.7838326  46.3991928   6.4208579  27.4494123
  46.2393475   7.8701109  27.0430875  75.7535675  10.9565485  12.1642578
  74.8459398  10.6817043  12.2942770  76.0702747  11.1610413  13.0440938
  62.7359006  73.0995936   5.3842872  62.8020314  72.1985303   5.7004249
  63.6332700  73.4311490   5.4163873  64.0843850  40.9110260  11.8069935
  64.1062242  40.9514809  12.7630889  63.3970576  41.5284491  11.5567803
  62.5596159  43.7270164  28.2557273  62.7523571  42.8068542  28.0757880
  63.1760555  43.9702225  28.9464402  78.8204399  37.9380250  37.5102305
  77.8647181  37.9412341  37.4571514  79.0524310  37.0133734  37.5964284
  77.3824191  19.2771065  22.6655722  76.5480152  19.6368527  22.3645997
  77.1426987  18.4819019  23.1414032  29.9124265  10.8694112   4.3785319
  29.4227266  11.6676342   4.1803765  29.3443489  10.3817439   4.9749377
  22.5595880  42.5284863  22.2865486  23.1596279  41.7889786  22.3830438
  21.9889379  42.2805595  21.5591407  62.8367895  51.1029291  28.2942224
  63.7281173  51.2303925  28.6190581  62.4977237  50.3690720  28.8067889
  40.2360020  68.6013251  23.5058904  40.8160076  69.3314742  23.7220097
  39.6979174  68.9281832  22.7848768  39.1090131   0.7019074  46.4949083
  39.5651889  -0.0567244  46.1307430  39.6136117   1.4550309  46.1876345
  51.8759478  58.1264934  64.3008412  52.0816148  57.4785111  64.9746734
  51.5667571  58.8896761  64.7888845  29.4160438  31.2045813  17.3311365
  28.5432744  30.8123565  17.3053050  29.9829006  30.5551434  16.9150400
  41.1959505  23.2848072  10.6031084  41.6699982  23.8485789  11.2143958
  40.7422924  23.8926888  10.0192368  48.5853014  41.5139603   6.7114496
  48.0301652  42.2597693   6.4837962  49.4778541  41.8244623   6.5592331
  25.9992045   6.3314987  15.2717113  26.5097425   6.9739319  15.7645190
  26.3832136   5.4874302  15.5090201   9.9748755  16.4474392   8.4498298
   9.3469882  17.1611679   8.3376652  10.0936103  16.3795614   9.3972087
   8.9975488  17.5153315  17.0018697   8.9941871  17.8708184  17.8906047
   9.5474184  16.7338824  17.0585608  32.4968481  31.1851716  29.6162748
  33.3959365  31.0738349  29.9252701  32.3884344  32.1323872  29.5310664
   3.2557801   0.9276162  65.0264983   2.9679898   1.6986261  64.5376696
   3.2761434   0.2255522  64.3761726  52.6835693  73.9920316  59.8044130
  53.3833278  74.4151482  59.3068740  52.2374119  73.4364710  59.1652515
  19.9896122  40.5232689  58.3161321  20.4692740  41.2055561  57.8464076
  19.0704824  40.7782340  58.2359770   1.1064058  23.0481553  46.7114735
   1.5377268  23.8982129  46.6243219   1.4433543  22.6917624  47.5334740
  55.8768858  34.6426288  61.0855466  55.7239379  35.5874166  61.0709122
  55.9188617  34.4211752  62.0158306   1.9579877  19.3181634  15.1193857
   1.3599479  19.3675232  15.8651352   1.7819625  20.1143813  14.6181023
  62.4084357  62.5773226  13.0802119  62.8203527  61.7657327  13.3766568
  61.8551025  62.3107969  12.3460329  21.7803669  39.2351413  37.6991343
  21.6769266  39.2831206  36.7487502  22.5240707  39.8072886  37.8883028
  60.1442799  16.6756998  55.9703257  60.7767317  16.0412966  56.3076207
  59.3103758  16.2057672  55.9703746  72.7770370  23.1426167  20.3192282
  73.4588229  23.7162232  20.6690502  72.3017245  23.6894011  19.6936584
  37.4947715   7.5833738   2.7003494  36.6812110   7.9068381   2.3134069
  37.5826383   8.0735123   3.5178310  32.1014342  68.7461113  26.3880491
  32.7173552  68.2478528  26.9252729  31.5939221  69.2579555  27.0178723
  53.2186322  73.9338422  40.3266430  52.6025764  73.4653387  39.7634268
  52.6813424  74.5817735  40.7824230  72.9108596  10.7988334  40.1342392
  73.2657945  10.9233284  39.2540383  72.1310740  10.2592158  40.0039387
  31.2548661   8.0766958  14.3337727  31.1320877   7.2970641  13.7921715
  31.4053130   7.7348244  15.2150905  74.3193638  41.7384291   8.4182382
  73.4900385  42.2123384   8.3560956  74.0963071  40.8349466   8.1942010
  22.3923945  59.8982811   7.3503590  23.0321240  59.1963577   7.4698573
  22.7253032  60.6192875   7.8847337  61.0755712   4.0359002  22.3865032
  61.2355834   3.2888424  21.8098474  60.6760078   3.6539745  23.1679845
  69.8521524   9.5150894  18.1562364  69.2277533  10.1879144  18.4276474
  70.5359012   9.5388347  18.8256812  79.9687705  47.6759386  30.0103998
  80.3945750  47.3509741  30.8036947  79.0524220  47.4167252  30.1070690
   3.6920756  27.0665193  19.3633175   3.0961525  27.5713277  19.9167407
   4.0581581  26.4031959  19.9483109   3.6808747  55.8724976  38.1152725
   2.9408425  55.2947187  38.3016968   3.9380598  55.6510973  37.2202468
  27.4127340  42.1143770   1.4152940  27.4978876  41.5027332   0.6839428
  26.4690423  42.1870327   1.5581246  27.2469258  27.7369738  37.7183676
  27.4630737  28.5023904  37.1857786  26.3027310  27.8032947  37.8609467
  57.8070265  73.3254952   6.6346496  57.4269319  74.1845292   6.8185532
  58.6046616  73.2984061   7.1631157  23.0234814  20.7109523  39.7678161
  22.4425220  20.1518917  39.2519021  23.8610053  20.6772542  39.3055940
  55.7451556  68.0512988  22.3860979  55.5460942  68.1771146  21.4583182
  54.9476025  68.3218407  22.8410125  36.9128418  26.1184716  26.9578242
  37.1489048  26.3365531  27.8594589  36.1192131  25.5895543  27.0392656
  50.9152461  72.8163522  16.2725663  50.9686880  72.0066010  15.7649457
  51.7292130  72.8377353  16.7757881  17.6485717  44.9301195  21.6084027
  16.9573593  45.5730438  21.7668438  18.3808720  45.4445267  21.2687683
   0.8227172  33.8681436  51.4259720   0.1820588  33.5139632  52.0426941
   0.3504492  34.5579863  50.9598064  77.4583850  68.0108224  17.3564517
  77.2670898  68.7358456  17.9514146  77.4065313  67.2293436  17.9067552
  65.0716656   8.9046252  20.8266997  64.8560577   7.9776990  20.9294271
  65.3888315   8.9784312  19.9265945  10.8629131  11.0080230  18.9152360
  11.4916050  11.0443759  19.6361077  11.3929164  10.8014762  18.1453884
  54.4883527  74.9593816  57.8727493  54.6145858  75.8649335  58.1560692
  55.2915133  74.7423444  57.3994019  39.2582035  20.0429511   9.6519130
  38.6147642  20.7303882   9.8241013  39.6915293  19.9041080  10.4940426
  42.6226641  59.5861110  44.7607514  42.7191414  59.9414525  43.8772031
  43.5202516  59.4843802  45.0773236  77.2541199  68.4057902  33.9629340
  76.3693414  68.5358380  33.6216283  77.8270302  68.7707513  33.2885408
   3.5189241   0.3334506   9.6634275   3.5478550   1.2148573  10.0356066
   2.6863542  -0.0277955   9.9676651  26.5603447  29.9151897  24.3816280
  26.7834091  29.9804616  25.3101826  27.1459460  29.2386627  24.0416050
  39.8199898  24.9612188  17.6345623  39.3450314  24.2138100  17.9979122
  39.1681391  25.6607747  17.5904953  18.8877106   6.7771417  55.5268240
  19.4206381   7.3478538  56.0804558  19.5178986   6.1846972  55.1168203
   1.2852649  31.9379078  49.6903416   1.2458209  32.6100622  50.3707000
   0.9732083  32.3785387  48.8999638  63.7709897  20.2969122   6.5042371
  63.9162665  21.1720324   6.1446673  63.7717682  19.7207415   5.7398677
  39.6811652   6.3494784  11.0683000  39.1812205   7.0397925  11.5039051
  39.3652201   6.3586855  10.1647925  22.3859668  -0.0775174  28.5156131
  23.0776691  -0.6457004  28.8546538  22.7590871   0.8031294  28.5540175
  67.7646527  26.2539230  53.9708051  68.5122392  25.7654606  54.3154105
  67.2773895  26.5261350  54.7484347  26.9543719  49.7470140  26.6080356
  27.2940254  50.4625177  26.0705233  26.0126472  49.9110365  26.6578245
   9.5557624  51.4029217  12.5234735   8.8195914  51.9510078  12.2516620
   9.2598152  50.9892654  13.3343601  69.8410807   3.5823618  64.0905362
  69.8340044   3.9827619  63.2211329  69.4303975   4.2347036  64.6580092
  13.9233412  49.7071574  48.8035294  14.5852233  49.9056980  49.4658920
  14.1616286  48.8385019  48.4796652   0.0612416  47.6430988  12.4340439
  -0.0508307  46.9311810  11.8040919   0.9407678  47.9791927  12.2616816
  79.8571286  73.9566181   7.7609283  79.5545492  74.5276189   8.4670699
  79.0844641  73.4467732   7.5174499   8.1614984  42.9895005  64.2646864
   8.2206143  42.0881084  64.5812771   7.6606954  43.4479717  64.9393949
   2.8902054  50.6997967  36.3957667   2.9777876  50.0906181  37.1288824
   3.5686594  50.4291916  35.7771349  67.2611373  13.8943553   8.3069688
  67.9796761  14.0441215   7.6925552  66.6434151  14.6039820   8.1306744
  10.2739191  16.0008562  11.0401046  10.0130987  16.6830468  11.6588295
  11.0549760  15.6090391  11.4308238   3.2310732  55.5832968  56.9280782
   4.1545589  55.8277950  56.8678704   2.7945335  56.1345360  56.2786165
  75.7430976  31.7340279  30.9096289  75.1172423  32.0107555  31.5789247
  75.3141629  31.0002494  30.4693818  17.8264606  31.4296603  13.9356303
  18.3640218  32.1613812  14.2386842  17.5896657  30.9592605  14.7349322
  29.0316758  14.2715154  64.8771640  29.9223027  14.6218048  64.8594488
  28.9758477  13.8010298  65.7088854  32.0652032  24.7778630  13.4952831
  32.9807091  24.7053194  13.7651312  31.6025853  25.0491714  14.2881322
  21.4249158  43.1021500  35.5669570  22.2638130  43.5260439  35.3858495
  21.1166120  43.5159063  36.3731766  77.1013456   1.7657809  23.4814787
  77.2105920   2.7074385  23.6140609  77.9451295   1.4728865  23.1372786
  77.1840967  45.7104728  56.5916958  76.7185940  46.3619951  57.1161547
  76.5545000  44.9980596  56.4807495  14.4280008  68.6273586  45.3340530
  13.7166027  68.4220313  45.9406710  14.0779690  69.3269395  44.7824240
  62.2426261  73.0224118  58.8873663  61.9307841  72.1447382  59.1079882
  61.7121614  73.2828173  58.1343546  12.5046861   3.5366035  25.3443766
  12.4333274   4.1489848  24.6121669  12.9036951   2.7540350  24.9640989
  10.5095768  10.1866972  38.0999637  10.7435083  11.0913658  38.3075285
  10.9554470   9.6649015  38.7671661  17.6246551  71.5221955  42.1181631
  17.0906309  70.7300531  42.0585299  18.5253195  71.2113275  42.0265007
  11.2825072  14.6006835  58.0471611  11.6498268  14.7404504  58.9199591
  11.9747639  14.8806703  57.4483109  32.9697275  11.0510147  29.8482370
  32.5651360  10.4760897  30.4978514  32.4063468  10.9759879  29.0780377
  42.7710177  29.1943017  61.9070095  41.9269074  29.5795176  62.1422079
  43.0142678  29.6306870  61.0905361  52.6925052  38.4419098  64.1489747
  52.5465573  39.1612408  64.7633797  52.4774445  38.8111507  63.2924461
   5.1476109  57.2208071   9.1092318   5.6164926  57.8263617   9.6834159
   5.5697709  57.3240042   8.2563764  58.7011183  71.3170657  50.2960202
  57.7614869  71.4207468  50.1457819  59.0066160  70.7972321  49.5525989
  52.7185917   1.7025219  16.6729021  51.8356419   1.3352571  16.7147541
  53.1388712   1.2341649  15.9516263  24.0590433  43.3527258  56.2784102
  24.3432502  43.3865109  57.1918198  24.2714673  44.2183081  55.9293046
  11.3002646  61.9317150  27.8366542  10.8944416  61.4383459  27.1238232
  11.2585330  61.3424921  28.5898495  17.2684109  28.7560606  41.6210747
  18.0355537  28.3575892  41.2100458  17.3304939  28.5013318  42.5416708
  52.9745461  61.7033826  19.3903613  52.1641247  61.5783810  18.8965762
  52.8442536  62.5272511  19.8599327   9.3290335  41.6181517  34.2309976
   9.4202459  41.8698645  33.3120012   9.2901325  42.4492645  34.7042489
   0.4094176  19.2703617  17.7056837   0.1004805  18.4260154  18.0341160
   0.1383643  19.9006772  18.3731151   7.7529758  18.6256719   7.5518215
   7.4417031  18.2401657   8.3708000   7.0320415  18.4942544   6.9360173
  27.2802067  49.7486925  11.6974747  27.3253250  48.8050842  11.5431774
  27.6791930  49.8698425  12.5590801  61.8224781  35.3070235  17.0008433
  61.2455493  36.0348582  16.7692363  62.6172477  35.4593325  16.4895940
  71.6021323  40.0329304  22.9721475  70.9579611  40.6452942  23.3275199
  71.6554975  39.3354821  23.6255598   6.0483956  33.3808732  28.6476684
   6.8484944  33.2169056  28.1484818   5.3472412  33.0306435  28.0981660
  76.6503725  67.5318109  14.6883190  77.4122104  66.9729125  14.5351362
  76.8580208  68.0040758  15.4945946  43.3352518   6.1548591   7.3142362
  42.8901434   6.3599867   8.1364501  43.3483410   6.9837499   6.8356967
   8.6290491  12.7418339   7.7409399   9.1341883  12.3568523   8.4570795
   8.4312248  12.0042419   7.1638304  77.5833950  37.3256050  55.1252290
  78.5186872  37.2924028  55.3261164  77.5278268  37.0791708  54.2019662
  72.6421600  19.6833384  12.9306901  72.4904960  20.6272078  12.9790604
  73.5859477  19.5990443  12.7950728   8.8756641   6.4209057   5.7423353
   9.4771596   7.1058250   6.0344303   8.0048140   6.7992855   5.8634907
  62.6434237  14.9705923  39.0178776  62.7959186  14.5635867  38.1650448
  62.1505147  14.3150735  39.5114040  50.6030130  14.7146249  16.5610397
  51.5037203  14.6188498  16.2515473  50.4862499  15.6584167  16.6699231
  78.5660253   2.4384879   4.6583652  78.6407391   3.2004440   5.2328849
  79.3828540   2.4337578   4.1593659  19.3415595  61.7036614  57.3233995
  18.6510546  62.2436080  57.7079686  19.6466364  61.1547122  58.0457660
  16.7446744  68.8110399   7.7167648  17.3968291  69.3683052   8.1414801
  16.3650584  68.2994223   8.4311640  14.9714816  28.9632463  17.5251400
  14.9445713  28.6920714  18.4427297  14.5127332  28.2664013  17.0558965
   9.2819345  55.7878876  14.1027474   9.3201405  56.1497784  13.2174182
   9.2758012  56.5551281  14.6750569  46.4831161  46.6438675   6.8337190
  46.8601990  47.3050213   7.4141616  45.6657267  47.0345640   6.5247387
  58.8932535  11.4674793  50.4801687  59.6910754  10.9890734  50.7056448
  58.3941946  11.4991127  51.2963614   0.4586255  58.3209467  10.7782054
   1.1245253  58.3279181  10.0906301  -0.2531768  58.8564110  10.4277050
  27.2081614  23.3776712  15.8569860  27.5671268  24.2462921  15.6756818
  27.6373482  22.8038955  15.2223122  32.4374008  43.7682867  16.1439109
  33.3589220  44.0061045  16.2462556  32.4443626  43.0491304  15.5122507
  15.6477189  34.4404793   1.7790325  16.0550284  34.5602727   2.6369259
  16.1674750  34.9861455   1.1888326   1.9128473  43.9123774  13.3407879
   2.7065355  43.6844158  13.8248599   1.5961699  44.7111559  13.7625670
  24.1922903  32.3093367  60.5131769  25.0283241  32.1864033  60.9628010
  24.3790627  32.9562831  59.8328781   9.1325754  41.8731976   7.4081832
   9.0725029  41.9990349   6.4611942   9.6236128  42.6333284   7.7201360
  58.3623677  44.0916491  22.5233889  58.1606537  44.6229172  23.2936478
  58.4326178  43.1984329  22.8602195  30.5551529  20.2188563  34.9598169
  30.5146337  19.5524096  34.2739320  31.1001468  19.8272717  35.6423664
  44.2474998  67.2137437  42.9531476  45.1318396  66.9045863  42.7566835
  43.8495661  67.3621568  42.0953271  45.6752586  50.5593014   1.9542506
  46.4064884  50.0520563   1.6017814  44.9989891  50.5056143   1.2789699
  21.4615732  64.6374798   6.2548524  21.7309814  63.7383986   6.0669565
  21.8940025  65.1627588   5.5815607  57.7387608  74.9477539  52.2379526
  58.0404724  75.4832134  51.5041384  56.9619192  75.4028091  52.5630256
  73.4835654  43.2442856   3.8442287  73.2768106  42.5669336   4.4881871
  73.2142549  44.0622473   4.2621225  53.1259280  50.0842810   7.7214593
  52.4212199  50.6637430   8.0110079  53.8937479  50.6526327   7.6609707
  72.7467952  28.2565628  62.9601012  72.8962836  28.5031591  63.8728307
  72.9359934  27.3186909  62.9313215  36.0687852  66.8918180  24.6063256
  36.3004279  67.7715683  24.3086481  35.3139853  67.0240545  25.1799345
   4.9257020   7.9305635  52.0292482   5.6172994   8.5748039  51.8779906
   4.9363474   7.3795305  51.2466356  30.8190989  10.0350082  48.0457401
  30.2634168  10.7462609  48.3644390  31.2400794   9.6889645  48.8326693
  26.9729304  32.6389170  18.3698094  26.2812686  32.0445490  18.0790150
  27.7432752  32.0795369  18.4692681  32.2868408  70.4614815  32.7785179
  31.7464871  70.7890782  32.0595380  33.0500920  70.0761375  32.3481819
  68.6331841  26.5987850  22.2545934  68.6045834  27.1929241  23.0045271
  68.9610287  27.1375538  21.5345407  51.7576398  69.2455349  47.5964221
  51.3689960  69.4968424  48.4342953  52.1724857  70.0460944  47.2751090
  20.3712964  42.1120691  20.6897378  19.5219350  42.2893000  21.0939741
  20.2058172  41.3797617  20.0959563  60.1488444   5.5239082  42.6979208
  59.7791239   5.9653641  41.9332933  60.2056905   6.2078739  43.3651495
  17.6043785  71.4567947  33.4111333  17.0957899  72.1465778  32.9847884
  18.4253669  71.8824482  33.6581755  20.9055904   4.1594301  54.9856683
  20.9358457   4.5765482  55.8466735  21.7762474   3.7777983  54.8736843
  13.1647789  12.3231101  55.8057261  12.7129173  13.1544185  55.6608868
  13.2401896  11.9363320  54.9334049  57.9217280  63.0588302  53.0114266
  58.0235709  63.6536560  53.7544223  58.6855496  63.2305584  52.4606845
   0.4668663  22.1775985  14.4458556   1.3554925  22.4284029  14.1935229
   0.3052853  21.3608456  13.9735842  23.3469486  62.7435446  36.8779349
  23.1613946  62.1434879  36.1556244  23.1841397  63.6138344  36.5141702
  37.9551506  46.1891556  17.7850497  37.6037455  46.9535589  17.3285067
  37.2473478  45.9110212  18.3663297  53.5452648  11.9324375  13.1120765
  54.2819401  11.9757820  13.7217176  52.7891179  11.7326237  13.6639345
  11.1542189  53.7331390  34.4712973  10.7477558  54.1335726  35.2398515
  12.0941937  53.8499737  34.6092439  12.5493395  14.0503049  12.0245552
  13.4277809  13.8983119  11.6760290  12.2198546  13.1761396  12.2331345
  50.3481579  55.7779741  38.4547949  50.7215261  56.1019468  37.6351166
  49.4759607  56.1705160  38.4923506  39.0135145  14.4258475  30.9121513
  39.5234799  15.2132702  31.1022377  38.1826854  14.7554553  30.5696368
  63.6855206  12.0738159  42.5566718  64.3399653  12.7684627  42.6301643
  64.1364798  11.3679252  42.0934388  55.9714746   0.7139993  11.8888056
  56.3512945   0.0686406  11.2925863  55.0257778   0.6084580  11.7851102
  56.1980543   3.7012087  61.5288970  56.6447235   3.9592777  60.7225975
  56.9005025   3.4041010  62.1072778  22.2840333  36.5372968  18.0601764
  23.2277870  36.4703655  17.9149818  21.8951273  36.0405231  17.3403144
  28.4588385  33.1334782  29.5110130  27.5484681  33.0002141  29.7750211
  28.9152741  32.3516512  29.8218918  73.9359683  33.4298134  26.6818047
  74.8494833  33.2714510  26.9198036  73.5357433  32.5603199  26.6761518
   9.5361859  20.7168555  45.7941580   9.9271929  21.5841603  45.6886673
   8.9864761  20.7951808  46.5738487  58.9672261  29.1267991  19.0585232
  59.8816889  28.9377594  19.2688859  58.9151007  29.0293622  18.1077230
   3.6979437  38.7911630  12.7754903   2.7687591  38.6204934  12.6214755
   4.1373536  37.9841757  12.5073087  27.6192570  57.6858425  34.2986107
  27.5448990  58.6168146  34.5083499  28.5237861  57.5780678  34.0045977
  18.8269365  30.3783131  11.5396261  18.1880713  30.8810735  12.0449126
  19.5082879  30.1519012  12.1726584  11.2179744  49.3364668  11.2510431
  10.8700836  50.2138090  11.4106631  10.4422271  48.7797165  11.1841702
  59.0677942  58.6487779  54.4791218  59.9714078  58.4983358  54.7567591
  58.5725774  58.7062130  55.2962467  25.5810642  46.5003490  30.3678870
  26.3965154  46.1328125  30.0270200  24.9669003  45.7661772  30.3628206
  36.3458824  43.6777353  24.9329162  36.5503025  44.5414114  24.5744419
  36.2793279  43.1095171  24.1654944  14.8289216  42.2724867  23.3905172
  15.1395464  43.0025434  23.9260197  15.5923176  42.0114756  22.8754139
  54.9874816   8.4346090  32.6027939  54.0563472   8.2194887  32.6570627
  55.4118111   7.8127895  33.1939980  34.9982953  37.0426178  13.4267581
  35.5057335  36.9225097  14.2294502  35.1706290  36.2529063  12.9140329
   0.9641750  51.6927025  59.6480724   1.2538250  52.0602164  58.8130453
   1.0859878  50.7484386  59.5492884  55.3995026  68.7554321  57.8020796
  55.9484042  67.9784903  57.6957890  55.7826937  69.4022832  57.2096428
  30.4655079  17.9119859  56.4706811  30.4230884  16.9852291  56.7063841
  29.5550255  18.2065664  56.4924195  62.5842593   1.5775786  27.6831528
  62.6381526   2.4995409  27.9347679  63.2461462   1.4769231  26.9990441
  60.4736460  67.8598580  52.2803744  60.1705087  67.0816264  51.8127271
  61.3424767  68.0336485  51.9182107  21.6044086  15.3147972  20.7662916
  22.2703976  14.9687338  21.3603711  20.7721180  15.0779295  21.1754441
  55.2247286  10.7595301  10.6428158  54.9675417  11.1540687  11.4761376
  56.1018610  10.4114735  10.8031952  15.0431395  45.5485106   3.1187800
  15.7498503  45.4001427   2.4904665  14.5911694  44.7065544   3.1741178
  51.6535057  72.3371777  58.0503651  51.4654363  72.0738349  57.1495256
  52.3360861  71.7315564  58.3393994  30.1981306  26.0247302  31.6828346
  29.7546220  25.2940750  31.2519360  31.1300468  25.8510900  31.5501332
  26.5968919  32.9980540   2.6077983  26.4892840  33.9436865   2.5056750
  25.8996987  32.6185107   2.0729165  53.1198848  73.1047377  49.3063435
  52.5765074  73.8069114  48.9486763  53.6064352  73.5180459  50.0195595
  20.3537416  59.4373178   1.4161825  21.0847187  60.0031376   1.6646780
  19.7195876  60.0291443   1.0114338  67.3507553  37.7263618   2.0155589
  67.1360677  38.6319900   2.2391169  68.2512527  37.7661943   1.6934580
  29.8734689  36.4104652  20.2055812  30.6343341  36.8106389  20.6265044
  29.7849154  35.5578637  20.6315660  32.8138971  22.2649527  58.6138916
  32.5720024  22.4343514  57.7033854  32.6196265  21.3368344  58.7446213
  57.1741906  10.3430353  52.4725792  56.2677923  10.3708111  52.1661445
  57.1864072   9.6388088  53.1207666  21.3106656  70.5798197  20.2410388
  21.2786722  71.0774803  19.4240069  20.4362345  70.1994419  20.3241920
  16.6011155  36.6795063  23.8945627  16.2754834  35.7928538  24.0496206
  16.9003129  36.9783664  24.7532797   5.4942471  21.8671393  11.4228523
   5.2386850  22.4051809  10.6735647   6.1536205  21.2676549  11.0734570
  38.5508037  50.6112337  17.9265332  39.2831564  50.0019073  17.8337514
  38.4433603  50.7143736  18.8720751   1.3266576  51.8633888  55.0239798
   0.8586134  51.0288057  55.0492415   0.6416668  52.5181446  54.8886570
  25.1242494  69.8502073  58.2757607  25.0761166  70.1149544  57.3571619
  25.5956617  69.0172777  58.2605794  10.6459045  45.2262306  37.3914456
  11.2956417  44.5406914  37.5467181  10.1664305  45.2932501  38.2171845
  44.1881609  25.5849719  45.1918650  43.9489651  25.1066017  44.3980265
  44.0808201  26.5068102  44.9575043  11.8371800  13.4947000  62.5934550
  12.1942452  14.2755066  62.1702793  11.1892275  13.1610666  61.9729063
  15.8087099  10.6121671  37.3835397  15.0054097  10.6719995  36.8664694
  15.9030938  11.4780521  37.7804875  28.4764389  11.4952503  42.6166197
  27.9169229  10.7647358  42.8802845  28.7314752  11.9110142  43.4402272
   6.7948774  10.3835331  45.3836533   6.9224981   9.4454227  45.2426144
   6.6563562  10.7409416  44.5065519  78.5217090  42.3187780  24.1292548
  79.3705926  41.8799829  24.0736938  78.6298702  43.1161451  23.6108518
  36.7992616  34.6766877  43.3683348  37.4048352  35.2620959  43.8230944
  37.3625946  34.1196299  42.8311443  23.5994152  11.6677223  58.4910735
  24.0448955  12.1803795  57.8165635  24.2108778  11.6580425  59.2274496
   8.5622102  45.7300234  32.4200845   8.5249066  46.0875845  31.5329576
   8.5818875  46.5002108  32.9881144  36.6940284  32.6824403  34.3554783
  36.4185953  33.4802651  33.9039850  36.7854643  32.0324087  33.6588192
  33.9324594  27.3193264  21.3210344  34.2769361  26.6620374  21.9256306
  34.7079015  27.7807808  21.0016918  52.3418018  20.0051857  42.1212196
  52.5056168  19.4080902  42.8512096  51.5690800  20.5031849  42.3879051
  10.7979730   3.6893497  44.5415398  10.9505252   4.1087137  45.3883537
  11.6417936   3.7419687  44.0927335  24.2116070  50.9581232  31.5487051
  24.0752769  50.6393862  30.6564879  23.9148164  50.2399302  32.1075821
  60.0355988  27.5752926   5.0793546  60.9879976  27.6615047   5.0376898
  59.7653824  28.2180834   5.7351255   6.5598685  28.5694981  61.1109686
   7.3382664  28.2653451  61.5776777   6.1468351  27.7690792  60.7869864
  77.3047754  31.3233614  37.6455998  77.2244915  30.5502129  38.2041931
  76.4451873  31.7420149  37.6910877   3.7763480  19.4863449  63.0505848
   3.4462861  18.5937534  62.9477714   3.7698034  19.6367298  63.9958749
  73.2281869  40.1780605  13.1419539  73.3488631  39.9677491  14.0679336
  72.2786617  40.1979876  13.0226374  55.3132254   8.5979354  24.5689249
  55.9002357   8.1165326  25.1519370  55.1421219   9.4206464  25.0272965
  22.7703309  45.2183294  21.3758826  23.7156534  45.3582144  21.3208318
  22.6792765  44.3223143  21.7000675  18.6880863  42.6082468  22.7648735
  18.0987167  43.3596039  22.6989818  19.5137167  42.9781628  23.0774879
  67.9287392  33.3204269  19.5226347  67.0435315  32.9604983  19.5782173
  67.8051001  34.2685103  19.5682836  27.6756787  23.0294633   7.0849097
  27.0429039  23.7173724   6.8784910  27.7675915  23.0664206   8.0369693
   8.2894663   3.8852392  62.9809299   9.1542987   3.5142790  63.1560957
   8.1088499   3.6521803  62.0702749   2.6772527  15.2791916  64.8571948
   1.7465977  15.4949079  64.9170278   2.8714136  15.3138624  63.9205353
  33.7111211  63.4756899  38.7005401  33.8993907  62.6984692  39.2265797
  34.3376803  64.1306686  39.0082026  58.6039660  27.1994339  41.9253465
  58.9183197  28.0976949  42.0280310  59.1040621  26.6957746  42.5675794
  12.2944224  35.2196956  47.0125341  12.3867893  34.8522949  46.1334944
  11.4666462  34.8634911  47.3352385  52.7838609  62.0897066   8.6403626
  53.0288591  61.1849629   8.4463358  52.6183872  62.4821340   7.7831280
  47.5177956  28.2522655  10.7764125  47.2903299  28.4561229  11.6835690
  48.4682655  28.3588839  10.7380545   6.2350444  35.6974397  56.9274625
   5.8484987  35.7066999  56.0518321   7.1792320  35.7259641  56.7727759
  40.2840042  29.5431113  35.6226134  40.4696608  28.7323761  35.1488280
  39.3575644  29.4782734  35.8544230  63.0523572  15.9762941  64.4456773
  62.1095744  15.8927904  64.3027815  63.4110734  15.1302610  64.1777529
  39.0551761  19.3542372  37.8549287  38.7573818  20.0462089  37.2643992
  39.5537475  19.8139654  38.5304352  10.2688074  38.9229822   6.3298035
  10.6109023  38.4178209   5.5922306  10.7689714  39.7389555   6.3137597
  74.1633552  11.2526846  23.2585955  74.6227145  11.0637736  22.4403453
  73.7637192  10.4190922  23.5068798  44.8805952  51.7855167  20.2126861
  45.7974434  51.7871046  19.9377036  44.6573019  52.7114916  20.3072619
  29.5763636  17.2386444  19.2901444  29.6694183  17.1828771  18.3391130
  30.0983977  16.5095639  19.6250403  55.1417404  50.5003119   1.9940278
  54.8356229  50.7254457   2.8725713  54.9219614  49.5740843   1.8938453
   7.7269727  39.3892741   5.5103362   8.5906857  39.2147207   5.8841848
   7.1688801  39.5641017   6.2680966  20.3905988  39.4030213  30.5520558
  21.1371112  39.6764946  30.0189877  19.6441400  39.4361401  29.9537802
  17.7791619  64.9038410  16.2394488  16.9656682  64.6687889  15.7931221
  17.5126791  65.5385637  16.9045424  67.6075417  32.1895528  12.1261299
  67.0023769  31.5047717  11.8413734  68.2687944  32.2273350  11.4350808
  25.0047541   9.7774410   1.6987832  24.2503500   9.4666374   1.1982753
  25.6154084  10.1001072   1.0360467   8.9732150   7.2396789  24.4721100
   8.8034276   7.0196520  23.5561439   9.0333084   6.3930450  24.9146339
  40.7262659  25.2009225   8.6059147  41.3693953  24.9486303   7.9433715
  40.0190926  25.6121540   8.1088978  69.1108605  65.0408282   0.3326968
  68.3937164  65.6536664   0.1703289  68.7697312  64.1925039   0.0494841
  21.3174653  27.9708219  52.0079613  20.6541729  27.3324561  52.2701883
  21.4047146  27.8508592  51.0623264  75.2060757  14.3835197  61.9721985
  75.5993924  14.2562853  61.1088642  74.2883382  14.5853983  61.7898980
   1.8245894  32.9990005   1.2371476   2.0222494  33.4993362   0.4454236
   1.0155900  33.3873796   1.5701848  10.0247204  48.6844254  22.9404473
  10.1862073  49.5712090  22.6183105  10.8903551  48.2765150  22.9631782
  23.7808327  61.1834096  13.0633307  23.4981922  60.7137095  13.8480151
  23.3820204  60.7013058  12.3389304  69.4467128  51.3096521  55.9425518
  69.5059074  50.4029772  56.2436673  69.4222606  51.8280337  56.7468616
  47.8948307  54.1217756  14.2637074  47.3480844  54.9072742  14.2465878
  48.1716108  54.0027571  13.3551586   9.2388642  42.9621696  43.6361647
   8.5561514  42.4290371  44.0434790  10.0266385  42.7727985  44.1458511
  27.8020862  12.5172935  51.5302607  27.6594547  13.4047542  51.2011644
  28.0450205  12.0106350  50.7553312  34.9125266  58.0616093  15.7075167
  35.7061362  58.5967636  15.7124698  35.2305889  57.1622705  15.6283724
  78.2964326  52.7893019  51.9111204  79.1515202  52.7077627  51.4887333
  78.1619690  51.9464350  52.3443937  37.6023195  10.1415478  56.6517839
  38.3430669   9.5538030  56.8003729  37.8269574  10.9368358  57.1347788
   5.5998850  70.5560207  52.9387856   6.1600173  70.8493662  53.6574221
   5.8911872  69.6624374  52.7574682  77.4057350   2.7117716  56.0085687
  76.5898380   2.5256525  55.5439111  77.6307330   1.8862043  56.4375737
  75.4085982  60.3478479   4.3712687  76.1367261  60.4689360   3.7618437
  74.9845588  61.2050676   4.4111538  43.5706472  45.9128237   4.2275238
  44.2340136  45.2244186   4.1798320  43.9265871  46.5456390   4.8512924
  39.9425697  61.3042498  17.4064898  40.4329967  60.7830858  18.0421782
  39.1754055  60.7703495  17.1999907  40.6060362  23.8950205  41.6065598
  40.5204678  23.4174633  42.4316978  39.7947216  24.3979907  41.5356827
  21.5053916  28.5358977  26.0247302  20.5491281  28.5667753  26.0536671
  21.7515874  28.0175924  26.7908764  44.4832706  26.4143848   9.9431932
  44.9841928  27.2037196   9.7376341  43.5799742  26.7193794  10.0284278
  77.0075670  21.4090395  57.9578876  76.6552314  20.7451296  57.3651695
  77.0579105  20.9697294  58.8068342  16.2488843  55.3651581  60.1311299
  16.5522517  55.5168352  61.0262242  17.0241893  55.0518570  59.6653214
  44.7552824  15.6882167  21.7966771  44.6467686  15.9358323  22.7149057
  45.7031488  15.6434178  21.6710973  56.4171118  22.9318605  64.3871626
  56.6359294  22.1399389  64.8782940  57.2171694  23.1443630  63.9065569
  67.5226256  12.2602821  48.3956861  67.4338432  11.4604927  47.8773403
  66.6222283  12.5237824  48.5856247  46.1990652   4.5004926  51.2554022
  45.2673033   4.4259439  51.4615425  46.6337970   3.9551674  51.9110414
   4.6652091  47.2901630   2.2146136   5.2497751  46.7832613   2.7781397
   4.2001846  47.8732204   2.8146392  18.5196948  33.9508390  22.9939628
  18.6911952  34.0119696  23.9336872  19.1858435  33.3457899  22.6677823
  14.1746247  48.5710096   1.1255196  14.8170078  49.2001104   1.4538553
  13.3960676  48.7218142   1.6615587  79.1732625  17.3153353  35.8475113
  79.8925818  16.7731214  36.1712646  79.3891977  18.2002556  36.1416531
  34.3782473  13.4803271  37.2238398  34.9208999  14.0771556  37.7391624
  33.8107395  13.0563533  37.8675890  18.5838294  49.8949671  32.4000454
  19.5401692  49.8543930  32.3992920  18.3072138  49.0203810  32.6735711
   9.0918712   5.3877960  43.0400368   9.3150333   6.2214552  43.4540936
   9.7072820   4.7599922  43.4186742  24.8795867  15.2443480  48.7904453
  25.7989430  15.2421749  48.5239601  24.5549273  16.1043870  48.5236883
  49.4688953  58.7277851  40.3513333  49.9449171  57.9001341  40.4193374
  49.5840896  58.9961419  39.4397685  74.6362763  21.2098289   9.6069342
  74.2391163  21.7385936  10.2989626  74.1755569  20.3719807   9.6514183
  32.7547789  41.0763884   6.3426262  32.8635335  41.1767340   7.2883189
  31.9630671  41.5741110   6.1384320  10.0797045  17.0583737  19.9595726
  10.3056598  16.1777020  19.6602523  10.4851556  17.1290016  20.8237791
   3.7340784  38.3265471  43.3001757   3.5863933  38.9168525  44.0390635
   4.4764352  37.7859497  43.5701609  47.9773899  20.9373070  29.3684483
  48.8803836  21.0233475  29.0627837  47.6052734  20.2435947  28.8239098
  19.7916579  22.7666640  47.5170660  19.9233377  23.1194806  48.3970737
  19.3182218  23.4558320  47.0510864  18.5241330  47.3930359  35.7952476
  18.9932740  46.6107273  35.5051923  17.6833808  47.0640087  36.1132240
  31.6962910   6.1037999  44.4936419  31.1591458   5.6781131  45.1618481
  32.4357939   5.5095130  44.3664074  77.1507659  58.3316946  18.6636841
  76.7849335  57.4706364  18.4612501  76.9790476  58.8549662  17.8807843
  33.8517118  48.1590414  26.7167807  34.0222549  48.6780548  27.5027657
  34.6941209  48.1271124  26.2633944  53.4401011  62.5007426  15.3867662
  53.8105113  62.8706097  14.5853746  53.3636293  61.5640413  15.2051818
  26.2893152  20.3939748  27.8376508  26.4299750  20.1735616  28.7584472
  25.3626060  20.6280756  27.7862716  70.6138468  57.2091961  19.1030276
  70.0952864  57.6763248  19.7580957  70.3223896  56.2999630  19.1707051
  36.6596315  23.3767496  57.9223761  36.2994084  22.9182182  58.6814663
  36.7387769  24.2869888  58.2077482  32.1051264  43.6850405  18.8982582
  31.9310379  44.0967274  18.0518317  32.2222543  42.7573013  18.6937857
  32.4334168  25.4971504  30.2431893  31.8981647  25.3647351  29.4607544
  32.6983190  24.6151590  30.5042458  57.7583933  13.7774253   7.8209943
  57.0811176  13.1031585   7.8747839  57.2733736  14.5968163   7.7230930
   6.3593370  49.2346239  12.0683634   6.8327427  50.0578928  12.1881342
   6.2551934  48.8871670  12.9541731   4.0351194  35.4022789   9.2744654
   3.6250073  35.0915241   8.4673280   4.0458977  34.6360373   9.8480409
  41.4095116  17.0900524  15.4002070  41.6744804  16.2974524  15.8669090
  41.7631245  16.9779396  14.5178115  37.3277187  21.3601184  36.0475922
  36.8343949  21.8497181  36.7057371  36.9789076  21.6659117  35.2103043
  69.7681665  43.8659716  21.2036610  69.0539503  44.1870975  21.7541122
  70.3645515  44.6106911  21.1265182   5.2786416  43.1938648  27.5457358
   5.4073572  43.1351852  28.4924245   4.3307874  43.2715559  27.4372554
  43.4205580  43.7672663   0.6449179  43.8424301  44.4712687   0.1523348
  42.7992868  44.2154646   1.2188266  68.6337042  55.7818651  21.2421393
  68.0803728  55.4854202  21.9647551  69.1969347  56.4511919  21.6307425
  11.4845073  29.5325160  17.7166593  10.6251800  29.1451359  17.5501513
  11.5192866  30.2952981  17.1394372  52.8493118  49.8942089  26.1542273
  53.7176085  49.6695328  25.8198428  52.4026394  50.2967739  25.4094768
  25.3821516  45.1992893  11.6750205  25.1773405  45.9093809  12.2833395
  25.9131598  45.6127167  10.9943306  59.1181141  50.9824419  50.0296783
  58.9995151  50.7184744  50.9420872  58.8505393  50.2163553  49.5219946
  72.2345492  11.1659218  48.4067297  72.7256962  11.4999653  47.6561165
  72.3868414  11.8098522  49.0983820  21.4351848  24.3615185  59.9166533
  21.4969305  23.5077654  59.4882521  22.1821884  24.3839632  60.5147442
  49.8389769  50.9033585  11.0285854  49.2617702  50.2288151  11.3864279
  50.7222843  50.5933714  11.2283671  64.5217384  73.5494909  60.1882061
  63.6827720  73.2578430  59.8314020  64.7296990  74.3422708  59.6937534
  32.8889799  53.6030388  25.8198810  33.3676481  54.0638828  26.5088892
  32.2785854  54.2548513  25.4752254  70.9254183  63.8015280  62.1282831
  70.9715093  64.6620998  61.7117211  71.1528028  63.9659247  63.0434334
  74.6087012  52.0336853  64.0073371  74.4766865  52.9409824  64.2823303
  75.5581817  51.9438682  63.9257857  43.7055016  45.1042366  14.5801389
  43.3308935  45.5638647  13.8287115  44.5335150  45.5542803  14.7477293
   6.8562774   2.4533926  51.0361692   7.0732383   3.3603226  51.2521216
   7.2945360   2.2948418  50.2000949  47.0814323  45.3202152  45.9780979
  48.0355549  45.3902435  46.0092926  46.8704128  44.6376705  46.6151476
  58.7244078   1.7659546  46.9496441  58.4937783   0.8389164  47.0100212
  59.4190165   1.8826653  47.5978184  11.2674594  41.9589901  16.4804912
  11.5898347  41.0762835  16.6625249  10.4021919  41.8230820  16.0943925
  55.0536026  57.9465947  55.8945200  54.5365418  58.7317953  55.7146904
  54.4165004  57.3087559  56.2162241   6.2370781  46.4045177  64.0170727
   7.1805767  46.2439762  64.0334692   5.8514027  45.5474315  63.8357214
  35.2340605   3.3832098   8.3171880  35.5016734   3.6112619   7.4269021
  35.9827318   3.6260344   8.8619453   5.0029221   8.4002567  31.4378262
   5.6391325   8.8424374  30.8757424   4.2597714   8.2194115  30.8622789
  15.0784261  68.0234442  49.1483602  15.4893453  68.7561950  49.6071133
  15.8117635  67.4810776  48.8580414   7.6318578  15.2621589  52.8423366
   7.9974488  14.5292698  52.3469147   7.5377015  14.9256216  53.7334642
  19.5924139  61.5331364  34.0852213  20.2461457  60.9054041  34.3931484
  19.8964620  62.3778582  34.4172263  11.7934775  50.3655481  39.7707415
  11.3574421  50.2677965  40.6172323  11.2150872  50.9392834  39.2682242
  22.2743487   1.5700270  34.5616508  22.6315575   2.1728588  33.9095545
  22.4489015   1.9947792  35.4015040   6.4542941  31.6363273  46.4568624
   5.7110814  31.0945783  46.1915836   7.0054320  31.0497413  46.9749316
  47.6440695  20.8826004  60.3167471  47.5569508  21.6932331  60.8182615
  46.8843416  20.8783613  59.7344866  75.3217771  46.8595457  38.0705237
  75.7705497  47.6651955  37.8140879  74.9010223  46.5536070  37.2670317
  68.5529518  55.2867270  17.1057773  68.2618856  55.8035660  16.3545167
  68.1763077  55.7332468  17.8640592  24.3705606  37.3574543  42.2455978
  24.9823904  36.6313577  42.1244383  24.2921662  37.7520680  41.3770533
  15.9676409  33.6143398  29.7740340  15.5840933  32.8344846  30.1752210
  15.2777910  34.2756724  29.8286033  10.0463656  38.2531486  64.0045291
   9.7907165  38.0510174  64.9045391  10.6943873  37.5841890  63.7836309
  34.3110156  39.3632412  22.7177501  33.4637308  39.4006014  23.1615329
  34.8564696  38.8216090  23.2881427  23.7488437  54.7298622  30.0788617
  23.1355476  53.9954758  30.0509763  23.9909792  54.8047829  31.0018945
  27.9840922  47.1364117   9.2071050  28.0236840  46.1850834   9.1089362
  27.0538402  47.3470116   9.1264397   1.3932168  64.6670961  15.0966287
   2.1721293  64.8591852  14.5744908   0.9489745  63.9685965  14.6160281
  64.8453019   8.8864408  32.8535816  64.5853970   8.4690510  33.6748430
  64.9534783   8.1601606  32.2395417   8.0826449  71.9206572   7.0893872
   7.3822176  72.5692797   7.1595764   7.6402307  71.1199284   6.8077314
   2.4603180   6.4360748  57.0762119   2.8271083   6.9333397  56.3451704
   2.6600078   6.9641243  57.8492030  12.7886490  15.2184330  60.2928036
  13.1865910  14.3485437  60.3269949  13.5079674  15.8187471  60.4888505
   2.4642662  31.7315279  33.1793997   3.2997755  31.7539821  32.7128693
   1.8766097  31.2522255  32.5953051  37.9269457  47.0797491  36.1989880
  37.7986312  46.5463257  36.9833493  38.4492040  46.5278816  35.6168222
  19.2523801  56.3348341  40.6691217  18.8206995  56.3766909  41.5224266
  18.7312520  56.9097185  40.1086187  72.5697336  17.3084055  49.2926821
  72.7078578  17.8349434  50.0800261  71.6989717  16.9281660  49.4085452
  44.2945385  66.1566019  58.0786800  44.6308947  65.4390144  57.5418711
  44.9421644  66.8543434  57.9788399  41.1814642  27.0183635  34.7073674
  42.0327091  26.6370583  34.9223614  40.8693457  26.5033245  33.9633608
  67.3142481  49.9413919   7.1892303  67.5087023  50.1486206   8.1032741
  66.7789745  49.1489935   7.2319329  23.1475067  28.2574701  12.1058846
  24.0647411  28.1616759  11.8494904  23.0099607  27.5751185  12.7629304
  77.1408411  17.3228432  46.3887310  76.5915819  16.5391041  46.4059067
  77.0263048  17.6763035  45.5065870  12.3083547   6.6141640  65.2113858
  11.3801793   6.4237629  65.0754861  12.6936034   6.5646635  64.3365343
  60.2481747  26.6147542  13.2388651  60.1092291  26.5883350  14.1855586
  61.0419464  26.0984850  13.0987906  42.6482651   5.6284176  64.9298229
  42.3854778   4.7118889  65.0143804  42.8603992   5.7321535  64.0022079
  68.4427929  36.2731624   9.9319381  69.3484402  36.0516763   9.7151971
  68.4840870  37.1799850  10.2355838  51.6889668  34.4775581   3.9175272
  51.7299223  33.8277626   3.2158709  51.3300848  34.0000916   4.6654975
   2.0848602  49.4102287  28.8682246   1.6298527  48.7104273  29.3367052
   2.0838017  50.1473331  29.4788837  11.4550531  54.2695427  17.6509058
  12.0528388  53.6130619  18.0085623  11.7553365  54.4023561  16.7517829
  60.0154866  64.2502150  57.4983892  60.5885495  63.4842882  57.5328401
  60.2399291  64.7526965  58.2815692  20.9886125  11.5586983  59.9185940
  21.0424188  11.0429226  60.7231530  21.7824320  11.3310228  59.4346008
  17.3392538  41.3293777  58.1993714  17.6126150  42.2214018  58.4133807
  16.4232448  41.2872110  58.4739306  14.7379021  22.6659237  48.5930869
  13.8442615  22.4044262  48.3711478  15.2441458  22.4847351  47.8011748
  71.8217156  26.4974294  34.4054696  70.9597919  26.9135891  34.4168255
  71.8823812  26.0491596  35.2490350  51.9462490  63.9480114  21.0413122
  51.9739723  63.3595896  21.7957807  52.4044085  64.7355318  21.3348055
  21.2270645   8.9258562  55.4128435  21.6623978   8.2706390  54.8674950
  21.4875845   8.7046657  56.3069555  19.5571196  64.8313236  19.8410344
  19.0712035  65.6300831  20.0462270  20.4771519  65.0859118  19.9114251
  19.6224026  25.1218162  39.1260311  19.9230770  25.5783449  38.3402774
  19.2945961  24.2819725  38.8044140  65.0048542  53.9271402  42.1776152
  64.1119814  54.2591190  42.2714567  64.9243307  52.9825640  42.3099852
  22.9461074  16.4622080   7.6953673  22.3825645  15.6884885   7.6924443
  23.4545994  16.3851035   8.5026610  36.6904545  45.1555109   4.4214687
  36.4682198  45.2187157   3.4925726  36.9784498  44.2501020   4.5377699
  42.1874952  49.3497133   7.2483492  41.5580225  49.8260880   6.7069906
  42.2654629  49.8758602   8.0441654  53.6012888  65.5536985  22.3882031
  54.4790459  65.2688026  22.1340251  53.6800909  66.5010166  22.5005174
  64.1110386  72.1706567  64.9890058  63.9197148  72.8591141  64.3520994
  64.8084701  71.6558800  64.5830145  76.0359331  10.7431675  17.9456043
  76.0251566  11.6981865  17.8819132  76.9112774  10.4932476  17.6497340
  16.1948586  33.3355427  10.6683743  15.9234047  32.7180910  11.3475621
  15.3836215  33.5647178  10.2149355  71.4443087  39.1843843  18.1850731
  70.9346288  39.0266323  18.9797890  71.6795581  38.3102608  17.8739512
  54.1967010  68.6523104  40.6235600  54.9497890  68.9024734  40.0882959
  53.7818718  67.9408550  40.1357222  67.9742016  67.1769461  61.7506295
  68.3740438  66.6061435  62.4067873  67.1551145  66.7389617  61.5193420
   6.8158036  58.0225658  14.3896687   6.4864475  57.9052353  15.2807307
   7.7278167  58.2894897  14.5046258  25.7914495  30.6478238  11.8892002
  25.6798244  31.2149596  12.6521730  24.9056506  30.3523469  11.6787577
   6.1847597  39.5516992  29.7940135   5.6948465  38.7705278  30.0508928
   5.7750416  39.8331428  28.9759946  46.8374872  45.6978321  12.0407498
  46.2404490  45.2984285  11.4080906  47.4178648  44.9843168  12.3058712
  58.2570971  71.5578303  58.3255884  57.4570311  71.8185816  58.7818059
  58.5072650  70.7296285  58.7351402  29.4269419  72.5191212  17.8180194
  28.8904595  72.1413851  17.1210730  30.2500224  72.0321798  17.7773094
  37.2826099  74.8707151  29.7167277  36.8685937  75.3881931  29.0260482
  37.3172116  75.4605246  30.4698253  41.4665508  71.1888075  34.7967410
  40.7623529  70.5443621  34.7258592  41.0805035  72.0021486  34.4716668
  31.5134883  48.5253191  31.4349318  31.1796546  49.2463732  30.9012055
  30.9286427  48.4970951  32.1921587  67.0794946  40.8876705  20.9946442
  67.7313238  40.6618404  20.3310537  67.3729974  40.4319000  21.7835402
  29.0503097  39.5050526  22.8156328  28.6165833  40.0043106  23.5076261
  28.4849739  39.6145177  22.0510125  71.7653418  62.5217581   6.5736610
  71.4774990  63.4342384   6.6010916  71.6606522  62.2104549   7.4727511
  74.2536884  38.9332581  51.3024664  73.7792998  38.8176060  52.1257591
  74.5364344  39.8476553  51.3153696  35.9776330  42.1513510  14.7057939
  36.6737151  41.5248013  14.9036193  36.2573457  42.5711679  13.8923168
  22.4744487  65.4385567  28.5290122  22.2666478  66.1202526  27.8900003
  23.0348682  64.8262405  28.0523252  38.3551121  72.6208448  17.8410065
  39.0270424  73.0197382  18.3938420  38.3534312  73.1522894  17.0448935
  54.8783398  47.0158958  23.3083463  54.9868441  47.7523232  23.9101195
  55.5856943  47.1203661  22.6719785  57.5256487  26.4684082  24.5689321
  56.9958016  27.1711708  24.9452519  56.8871018  25.8221985  24.2674351
   1.7488004  38.1671476  20.8463717   2.4536797  38.8147402  20.8465862
   1.8829073  37.6674247  20.0410628  30.4038011  55.1435615  12.8642157
  30.3532612  56.0583784  12.5871065  30.1393183  55.1569702  13.7840536
  67.6365423  65.6613445  10.7317209  67.9707479  66.4479446  11.1627674
  66.7085981  65.6362057  10.9652030  64.6286577  23.3843756   1.9771694
  64.3617803  22.5759864   1.5395479  63.9696306  24.0272999   1.7153177
  22.7622628  65.2221870  14.5440030  22.9120588  64.2849874  14.4196880
  21.8378830  65.3475285  14.3294215  19.7463202  43.8259029  16.6654575
  19.5439470  43.0722523  17.2197902  19.7629201  43.4716892  15.7763624
  12.7685964  34.6931100  44.2439079  12.9272807  33.8793135  43.7655878
  11.9279981  35.0068879  43.9104891  21.5315536  26.6404138  58.1250176
  21.6090969  25.9010158  58.7279346  21.3838581  27.3973308  58.6920216
  45.7084703  14.6230996  51.5116358  46.3495636  14.7669625  50.8155489
  45.7954884  15.3888094  52.0793915  76.9945693  61.9191456  22.7937150
  76.3370225  61.4216805  22.3075104  77.7545435  61.9437456  22.2122812
   9.5221281  18.3149326  12.1081805  10.4396498  18.5825133  12.0553887
   9.0860128  19.0414107  12.5534511  25.7064319  27.7243161  11.0678613
  26.2926531  28.4809184  11.0564172  26.0354137  27.1771932  11.7810631
  31.4964604  37.8625202   8.3953863  31.4068961  37.2826648   7.6390934
  30.9246945  37.4789214   9.0603429   7.9007560  73.5360575  25.5489945
   8.6351973  74.1055250  25.3197861   7.7814019  73.6660671  26.4897847
  17.6845598  59.9695396  21.2522769  17.2460938  59.9265051  22.1020579
  17.8263092  59.0546083  21.0092926   7.8826980  23.7444626  49.4965419
   7.7520946  23.1227575  50.2125427   7.6684097  24.5962988  49.8769137
  57.2579956  43.3385324   1.4886868  57.6219749  42.8351355   2.2169340
  56.4666510  43.7403870   1.8471721   7.5227422  62.0673227  15.5311728
   7.2432154  61.2221432  15.8829784   8.3198678  62.2774458  16.0176599
  10.6443695  35.1712213  26.8283769  11.2510780  35.8266054  26.4839884
  11.2039689  34.5439516  27.2862145  22.6379732  51.0018001  61.5282634
  22.2247414  51.8145214  61.8197322  22.6129011  51.0496937  60.5725911
  30.1953840  61.5330791  41.4962864  29.7359443  60.9929180  40.8533430
  29.5849967  62.2440290  41.6917467  51.2689114  41.6826057   8.8025594
  51.0875797  40.7778597   9.0570927  51.9265699  41.9809437   9.4308174
  51.5104723  52.4498892   3.5296804  50.5689669  52.5965691   3.6207265
  51.8924332  53.3273888   3.5477626   9.8784641  12.4119459  61.0443169
   9.0606693  12.8825603  61.2054637   9.6365551  11.7121397  60.4376995
  23.5650444  61.8353844  28.9458346  24.4176078  62.1760750  29.2165756
  23.7726355  61.1297464  28.3332920  52.0043229  60.1640449  58.3449873
  52.5795722  60.1768146  57.5800320  51.5530201  61.0077892  58.3193937
  35.3779316  55.4452944   2.6677254  34.8658252  54.9272871   2.0467211
  36.2886739  55.2790642   2.4245228  75.8344360   4.7852398   4.5849702
  75.8188292   3.8355900   4.7039196  76.1134859   4.9084259   3.6776724
  69.1746372  48.0558443  49.6114445  68.7670070  47.3898315  50.1650715
  69.5976966  47.5590134  48.9111471  54.5545646   2.1661068  29.0000081
  54.5032784   1.6137529  28.2199383  53.6420890   2.3213602  29.2439651
  27.1498275  39.3023181   8.4871149  27.9373384  39.6010494   8.0323404
  26.4894533  39.9643636   8.2825840  65.3061685  11.8098532  17.4753734
  65.7807789  11.6832624  16.6538164  65.8678446  12.3898350  17.9895422
   2.4971069  46.9650269  20.1922607   1.8575357  47.6572132  20.3597808
   2.3909079  46.7605352  19.2632091  19.5458758  52.0681000  17.5654435
  20.2113819  51.3837194  17.4950540  19.5290685  52.2910213  18.4961724
  45.5762815  55.8811140  30.0432420  46.1944389  55.1542902  30.1196289
  45.0153589  55.6419420  29.3054080  51.4819193  43.4914255   6.7350447
  51.4255190  42.8484726   7.4419105  51.6131353  44.3277121   7.1818548
  57.7879912  15.3217159  62.6769781  57.8882155  16.0492693  62.0630941
  58.0225447  14.5453344  62.1685955  19.5192599  63.3289909  17.5268829
  19.5031726  63.9469862  18.2576728  19.0402865  63.7730169  16.8271291
  38.3376551  33.4983420   7.4723846  37.4007392  33.3842635   7.3129922
  38.7614965  32.9530215   6.8096513  23.2444195  29.7953306  59.5914134
  23.9606432  29.8578058  58.9594683  23.1980661  30.6654201  59.9876824
  46.2490783  26.1893402  62.8050640  46.9676766  26.7628990  63.0712895
  46.2518415  26.2300573  61.8487343  29.1679096  53.0709648  37.0339751
  28.7807870  52.3883343  36.4859056  28.5071588  53.7631464  37.0568633
   6.8430813  72.1935115  58.7054798   7.6925524  72.2590074  58.2691958
   6.9952352  71.5958032  59.4374820  79.2038692  69.0106830  54.2687115
  79.6733154  68.3703909  53.7340340  79.6048940  69.8503051  54.0441212
   5.1425683  53.8090706  19.2131031   4.5626891  54.5667267  19.2900872
   5.8671033  54.0004969  19.8086166  19.2352355  58.7473297  25.8897996
  19.1269183  57.8731871  26.2644672  20.1722836  58.8149166  25.7064795
  31.9155669  54.4475126   4.7717559  31.3140035  54.4076347   5.5152369
  32.0400906  53.5337973   4.5151386  57.6816150   0.6248451   3.4736148
  58.0753180   0.2269770   2.6971269  56.9540878   0.0444437   3.6973840
  46.6537142  67.0273209  23.2155967  46.0141802  66.5834999  23.7725949
  47.3852825  67.2240210  23.8007021  19.5574892  36.8414617  13.3152783
  19.2486489  36.0159755  12.9418862  19.4187653  36.7449212  14.2574406
  65.8988571  58.0521250  32.3076296  66.5522385  57.3620510  32.1930695
  65.4765844  57.8460884  33.1415772  74.3505474  14.8805691   2.8395876
  74.6571966  14.1034676   2.3723394  73.7733742  15.3223396   2.2167376
  33.4833741  65.4621124   3.9536995  33.3770752  64.6047306   3.5415974
  32.7064276  65.9537792   3.6875159  16.8558323  68.0312967  15.0256133
  15.9382403  67.7649593  14.9679899  16.9816768  68.2592392  15.9467208
  16.1721519  38.2988106  59.0646109  15.3684572  38.0469213  59.5194253
  16.7376236  38.6482988  59.7533282  27.8050709  55.8133554  26.5496612
  27.8780103  55.4547071  25.6651926  28.0360436  55.0832510  27.1239686
  13.6395124  17.2095571  31.3364050  13.4201340  16.3936840  30.8864495
  13.3380274  17.0760332  32.2350213   4.4420889  26.8676567  39.7470665
   4.6282575  26.5872288  38.8509989   3.6491516  26.3887000  39.9880672
  25.7768703  41.6346741   7.8991109  24.8648095  41.3703156   7.7787375
  25.8115673  42.5324869   7.5690234  65.7373541  69.2363024   3.4431598
  65.1279372  68.5345936   3.2141447  65.2469045  70.0420523   3.2804966
  34.0232873  51.6582203  24.4042921  33.7880826  52.4088383  24.9497080
  33.1849384  51.2590694  24.1717458  15.7676184  50.3802109  31.5400219
  15.5349064  49.6364164  32.0957637  16.7231977  50.3531170  31.4913702
  30.7148910  73.2896471   7.6223361  30.2023721  74.0746307   7.4290442
  31.5489101  73.4318924   7.1746641  25.4162836  56.9096756  30.1919651
  24.7169805  56.2711906  30.0521588  25.4047656  57.4537849  29.4045353
  72.3908183   3.5168300  64.5736041  72.7918992   4.3341146  64.2779500
  71.4506421   3.6570202  64.4611480  11.3914239  46.3371181  27.5044227
  11.6869485  45.8383465  28.2660794  11.6626418  47.2366953  27.6872826
  42.6064968  62.7589130  12.7128124  43.1264257  63.4434223  12.2916782
  42.2026014  63.1930637  13.4642220  37.9161811  59.2795801  18.3174300
  37.5335264  58.4086704  18.2110143  38.6841750  59.2751932  17.7461183
  58.4960450  69.5417056  60.1206025  57.6725186  69.0560684  60.1674035
  58.6267079  69.8776684  61.0073316  69.3487856  24.5236908  52.1057471
  69.8722002  25.2269827  52.4899968  68.5341332  24.9496876  51.8390998
  40.0938177  32.1007228   5.2923894  39.2546463  32.1863484   4.8399594
  40.7495260  32.2480512   4.6107927  48.6007929  43.7221336  11.7635202
  49.4893026  43.8175869  12.1065533  48.7229013  43.5053778  10.8392167
  24.8862648  41.2783527  33.8141584  25.2466512  42.1601868  33.9075398
  23.9446831  41.4143562  33.7085438  13.7586498  44.0779448  21.1990523
  13.7929428  43.3623075  21.8338108  12.8266549  44.2795181  21.1154795
   6.2979221  41.2782192  17.6268506   6.0516196  40.3596210  17.7352202
   5.6181866  41.7650318  18.0929017  45.5252838  60.0131130  29.6984100
  45.2939796  60.2104044  28.7907720  45.2347517  60.7801914  30.1917791
  45.4747534  48.1125450  21.3574791  46.0257816  48.3616543  20.6154919
  46.0844612  47.7390480  21.9938636  28.0102396  26.9978261   6.7453682
  28.8095975  27.5163579   6.6537952  27.3443270  27.6300120   7.0157987
   2.6571884   0.9525229  30.9590626   2.9881754   0.9516502  30.0609088
   1.9452467   1.5923000  30.9513354  22.2277164  63.2757568  24.6445489
  21.8294907  64.1139555  24.4098902  22.7741456  63.4746933  25.4048562
  17.3112166  57.8087378  39.4560456  17.4084997  58.2459545  38.6101103
  16.6595960  58.3321142  39.9226284   1.6566689  37.0615816  29.0808463
   1.7304449  37.1932817  28.1356263   0.8377902  36.5785980  29.1921854
  37.3239040  30.2286720   6.3011873  36.6514444  30.8517742   6.0259205
  37.5551867  29.7568846   5.5010903  29.2302394  40.0132561  45.7091808
  28.6641765  40.0577402  46.4797783  30.0395918  40.4458904  45.9812260
   0.0400333  57.4445724   6.2852293   0.2411283  56.5308905   6.4876568
   0.8823665  57.8948402   6.3482159  22.3970798  11.2207781  53.7584159
  21.9754366  11.0786138  52.9109260  22.2546724  10.4040180  54.2367968
  61.1798545  12.7442623  20.2065873  60.5050107  12.3876263  19.6289825
  60.8864566  13.6354710  20.3960228   2.2887793   4.3698908   0.0889810
   2.1198740   3.4673000  -0.1812682   3.2430735   4.4338347   0.1273171
  17.2229103  33.5185848  58.6337414  16.8940691  34.2311226  59.1818216
  16.5624861  33.4195267  57.9479834  47.7707672  38.7906432   7.5326914
  48.5772514  38.4053683   7.1900922  47.7246332  39.6541381   7.1222275
  25.9353924  62.3517752  23.4455800  25.9298754  63.1602859  23.9579368
  25.1460505  61.8869066  23.7231898  28.7519979  48.9560843  22.5107908
  29.2285538  48.4407425  23.1615973  29.4097185  49.5478535  22.1454930
  11.3078956  50.3459106  47.8871414  12.1580151  50.2822338  48.3224270
  11.2986282  51.2243782  47.5070700  56.9845387   4.9389149  43.8142014
  56.8657848   4.7535015  42.8826714  56.5868899   4.1909338  44.2598867
   7.4351805  52.4272346  11.1571956   7.4274486  53.3521223  10.9107065
   6.7856371  52.3604536  11.8570995  31.8867087  45.1331854  13.4524989
  31.4534903  45.9364128  13.7412465  32.0124674  44.6270514  14.2551482
  17.4994568   0.7932912  64.4573961  16.6429190   1.2131224  64.5368864
  18.0066923   1.1434112  65.1897613  37.8623366  44.6857977   7.9016978
  38.7744498  44.4271708   7.7698183  37.4137211  43.8723660   8.1325847
  51.6820383  74.6871376   4.6662313  51.6074800  75.5426693   4.2434487
  52.1065998  74.1326618   4.0116054  12.0853714  20.5332027  51.6609499
  11.4950112  19.8025976  51.4767715  12.0345358  20.6488882  52.6097724
  28.3834243  37.6463056   6.1037505  28.7581134  37.0292258   6.7322838
  28.6450720  38.5077715   6.4287847  42.1952724  51.9467068  17.9508269
  42.2125149  51.9572401  16.9938397  42.6368523  52.7563238  18.2072580
  42.9812816  12.8935419  63.3662896  43.2226757  13.5229097  64.0458916
  42.2085241  12.4491392  63.7149793   8.8164572  26.3233791  62.0259961
   8.9016370  26.1716924  62.9672545   8.2881597  25.5895363  61.7119753
  14.3276556  64.2146215  34.0001961  14.4121464  64.0115914  34.9317929
  14.3088730  63.3599767  33.5695430   8.6416013  44.2721877  61.4681586
   8.5073621  43.7949685  62.2869834   8.1284435  45.0736234  61.5711295
  36.9933926  24.6926203  10.7166603  37.4515330  24.9540177   9.9179009
  36.3037669  25.3479233  10.8225849  19.2303407  56.0689354  26.4516926
  18.7739289  55.2498198  26.6439557  19.9865174  56.0652304  27.0385623
  75.4893586  34.8319054  32.3392272  74.9774822  34.0301132  32.2327185
  75.4753151  35.0016832  33.2811451  14.8844675  24.4640718  59.9201932
  14.8056129  23.9792620  59.0986273  14.5737223  25.3445659  59.7094878
   5.2738804  71.3421106  38.6525249   5.6926960  70.9523249  37.8851295
   4.3394226  71.3342905  38.4452558  50.6180235   4.6156336   5.1365489
  51.0910603   4.3816591   5.9351248  50.0192186   3.8834549   4.9896419
  31.9935346  51.9637346   3.5880572  32.9083967  51.7318487   3.4284061
  31.5308189  51.1258078   3.5895962  78.5309982  69.2443705  22.5569153
  79.3821383  68.9989090  22.9196024  77.9560089  69.3109989  23.3192658
  69.8563477  13.5607220  14.3066335  70.4659554  13.2326580  13.6455858
  70.0777479  14.4875027  14.3976760  77.1438404  20.4224278   3.2411170
  76.3710543  20.5550552   2.6920760  77.1969792  21.2149120   3.7753260
  54.4168826  13.7364460  36.6215444  55.1704117  13.2707096  36.2589002
  54.5850392  13.7674404  37.5633478  26.7228464  33.3468090  54.7874912
  25.9514383  33.5923134  55.2982607  26.6563133  32.3964201  54.6949598
   1.3258359  74.6121645  25.7849932   1.5898380  74.2770815  24.9281073
   0.6363504  74.0143538  26.0738897  15.7741394   8.6712624  32.2801685
  15.6738272   7.8851200  31.7433739  16.1803141   9.3106438  31.6949797
  61.3074446  70.3554296  29.1034770  60.5466509  70.3342199  29.6839714
  60.9898233  70.7824612  28.3078671  48.8369580  24.0884663  13.1710362
  49.7800704  24.2230202  13.2641292  48.6269470  24.4518162  12.3107421
  45.0220680  44.2581749  10.2749586  44.8200655  43.3243179  10.3327072
  45.4361486  44.3611193   9.4181180  25.3613176   4.3602587  43.3748198
  25.9261933   4.8549725  43.9684629  24.5554724   4.8745991  43.3268023
  13.9236632  33.5130859  17.0968270  14.1049805  33.0023552  16.3078368
  14.7396221  33.9821316  17.2712958  59.9227953  39.3314362   6.4916849
  60.0061274  38.9494801   5.6179589  60.7452631  39.1109562   6.9289076
   3.1591043  53.1887960   4.5781258   4.0107676  53.6255503   4.5660678
   2.5431448  53.8722706   4.8421091  42.0235014  71.7863894  26.6500783
  42.0903063  71.1107969  25.9752893  42.9081345  72.1456814  26.7176867
  59.0475512  65.8648396  27.5249338  58.7715054  65.5492783  28.3854294
  58.9044714  66.8106556  27.5594592  14.5209780  23.9585281  36.9135046
  13.7303534  24.3407131  36.5326118  14.5196428  23.0514027  36.6079807
  80.1248594  16.6176010  29.9939942  80.1938530  17.0450569  30.8476639
  79.2290970  16.7967964  29.7081065  24.2051598   7.7669979  13.3547533
  24.7407364   7.4842239  14.0959859  24.8266669   7.8634621  12.6331890
  39.0650272  56.3581610  36.7580628  39.2408633  55.5835104  36.2239909
  39.7841358  56.3820982  37.3893642  77.0487019   6.8415619  21.7666364
  76.7825457   7.7127338  22.0606589  76.3091847   6.5282131  21.2459064
  58.2831737  20.3600193  23.5880160  58.8993784  20.9647251  23.1746817
  58.8309594  19.7955013  24.1334414  35.8929849  52.0103455   6.4061654
  35.5509019  52.3525000   5.5802459  36.2755609  52.7724361   6.8410033
  48.4612366  24.0621735  43.1447887  48.5665771  23.3116318  42.5601435
  49.3547603  24.3008114  43.3915663  72.9145644   2.5359855  48.8537320
  73.2053695   3.3232246  48.3933851  72.1728752   2.8284870  49.3834230
  49.7647905  55.5505991  16.4044976  49.9737740  56.4561605  16.6336596
  50.4964447  55.2673435  15.8561552   4.2054549  57.8214645  13.7469828
   5.1313561  57.7424049  13.9765215   3.7996104  57.0365095  14.1149032
  55.9958887  70.0460529  31.8427753  55.3153515  69.7892094  31.2205720
  56.2358856  70.9351444  31.5817285  14.0322247   9.6739365  24.3540549
  13.4563580   9.2511536  23.7169862  14.5370474   8.9551998  24.7345853
  70.2970453  18.2795406  12.5652409  71.0473391  18.7971569  12.8574049
  70.6815287  17.4726082  12.2227836  35.7294655  60.4241753  35.6935668
  36.5298104  60.4597807  36.2174106  35.3856540  59.5431185  35.8410907
  12.7760208  47.6307440  31.2385011  13.6072898  47.5351191  31.7033434
  12.6908708  46.8233347  30.7314777  60.4953575  64.0060806   6.4623529
  61.1455917  63.3650208   6.7495316  59.6781921  63.5105705   6.4081562
  54.3596172  59.3338299  63.1533241  54.0548849  59.6531630  62.3039722
  53.5663557  59.0271807  63.5925674  17.5967968  66.1924791  13.3426678
  17.5012624  66.8906832  13.9904451  17.0453787  65.4828787  13.6722672
  35.3255224  66.2272215  35.6923938  34.7687674  66.7964125  35.1610970
  34.8680925  65.3864527  35.7025218  38.5949135  72.5141478  29.8880982
  38.2818365  73.4159613  29.9584532  39.0717578  72.4901915  29.0584731
  11.7476168  11.6123940   3.0229831  11.9925585  11.7972542   2.1163091
  12.3478928  10.9188248   3.2965964  12.4794617  10.5928398  58.0165052
  12.9174605  11.1498810  57.3730040  12.8017559  10.9047390  58.8621283
  14.1910461  49.9188934  63.1983378  14.9064354  49.3676792  62.8811528
  14.4948677  50.8144127  63.0501048  22.5382614  63.7037706  10.7685828
  23.4888673  63.6448812  10.8640409  22.2536540  62.7985764  10.6426787
  60.8359627  30.7942758  53.2232675  61.4061931  30.4746376  53.9224788
  60.3599361  31.5250765  53.6176786  42.6773310  60.9946775  54.3412781
  42.9467392  60.0763273  54.3583393  41.7726135  60.9847164  54.6537113
  29.4075254   5.3556762  42.6032397  30.3338913   5.3388058  42.3628303
  28.9565996   5.6185232  41.8008634  56.0993385  55.6110001  38.1540918
  56.7295551  56.2519455  37.8250766  56.4994907  55.2705908  38.9542341
  40.2368423   9.4650150  30.6788254  39.8806103  10.3045441  30.9695506
  39.4776603   8.9837242  30.3498459  17.0319259  56.9920111  21.0326028
  17.2341454  57.1505690  21.9546652  16.2263429  56.4753103  21.0494900
  17.1039486  60.1621866  51.8598557  17.2882128  61.1009502  51.8282127
  16.8271911  60.0027084  52.7621889  59.0211578  19.2369820  36.1989307
  58.9568349  18.5180546  35.5702496  59.9141451  19.5659424  36.0960507
   7.5139240  51.6340957  61.1572632   8.0469612  51.4837585  61.9379684
   7.4278954  52.5860248  61.1056518  42.4494839  60.2422285  28.5914636
  42.5616789  60.1237869  27.6482677  42.0782328  61.1200333  28.6801434
  47.1606922  56.5176535  23.9339042  47.8123569  57.2146654  24.0096545
  47.0835447  56.1645317  24.8202372  17.7751306  21.4305387  48.8301405
  18.4897903  21.4305197  48.1933543  17.9219488  20.6436191  49.3549642
  23.1137967  52.2556496  33.9551258  23.4070182  51.5042114  33.4397626
  22.3625517  51.9283247  34.4498134  65.5760717  64.7952986   8.1836092
  64.9916220  64.0381050   8.2198340  65.3575802  65.3040743   8.9644033
  58.8023754   4.8361851  29.2451596  58.8452288   4.2404200  28.4971857
  58.9176770   5.7069374  28.8647223  59.5581742   9.5603157  22.5743008
  58.7898418   9.8365856  22.0747304  60.2349921   9.4166828  21.9128466
  72.4206062  11.0793663   7.0794243  71.5589996  10.7852722   6.7838413
  72.8829762  10.2733589   7.3092037  36.3302227  15.1449848  14.1643476
  35.8105620  15.8184792  14.6031988  37.1523758  15.5827213  13.9437008
  39.0089917  50.2347422  23.4099483  38.1399727  50.5351162  23.6760640
  38.8853121  49.3124723  23.1855559  15.4180610  39.8557401  46.5709209
  15.0733113  38.9627814  46.5688562  14.8519599  40.3296328  47.1801710
  71.9529005  23.1853176  50.0870562  71.2133118  22.9163719  50.6319523
  72.4358078  23.8088299  50.6295252  68.3880087   0.3398729   2.9639855
  69.2179629   0.0686432   3.3562130  68.3651777  -0.1077913   2.1182276
  69.5535755  70.5114698  32.5710177  70.3643990  71.0085249  32.6793480
  69.7748089  69.6262789  32.8603721  53.2986355  67.9271698  33.9852357
  53.7065935  67.3781443  34.6548414  53.0500269  67.3151588  33.2925129
  77.0841976   2.2885967  39.3087196  76.8528601   1.7730642  38.5361004
  77.9047915   2.7205683  39.0715170  73.5029421  18.4301363  52.9418728
  73.2084570  18.4114538  53.8524565  74.0087471  19.2396198  52.8702876
  25.8885098  53.1187820   2.1687280  26.0824394  52.6256943   2.9659021
  24.9428558  53.0255365   2.0535094  23.7221432  68.0349350  22.3359632
  23.5180211  67.9267073  21.4070630  24.4255733  67.4071836  22.5013328
  69.5022917  39.5267129  25.8705473  69.1758156  39.8168707  26.7222834
  69.5695591  40.3295469  25.3536654  43.2665586  69.9104548  43.2982254
  43.5139370  69.1437197  42.7813578  44.0495825  70.1184797  43.8079596
  55.5304766  65.1087475   4.8446617  55.7085276  65.6299448   5.6275296
  55.3672647  64.2259312   5.1766723  42.4330330  59.0413332   3.6822158
  43.2071066  59.2292976   3.1514481  42.6058197  59.4728661   4.5189694
  27.3363495  41.2859535  23.8368988  26.9542956  41.4623547  22.9771614
  26.6324282  41.4793062  24.4560456  47.6339626  68.7043285   4.2065248
  47.6296663  68.6638403   5.1628584  46.7320061  68.9227343   3.9719898
  74.6236082   0.0237871  29.7688890  75.1095339   0.4882980  30.4503155
  74.5564409   0.6534744  29.0511036  47.6202631  63.6486435  41.5141630
  48.1671476  62.9968071  41.0756874  46.9059229  63.1415510  41.8999147
  30.8305111  10.7235886  60.2558947  31.2163582   9.9000145  60.5543566
  29.8868790  10.5632187  60.2651739  68.7199541  33.8891006  28.8890457
  68.5026165  32.9607368  28.8045287  68.5601421  34.0895058  29.8112893
  77.8812357   5.6697727  29.1894341  77.4395414   4.9472786  29.6356797
  78.8095089   5.5391956  29.3830729  47.7347660  67.2277737  30.8080864
  47.1094799  66.8599653  31.4325595  47.3928213  68.1001282  30.6123734
  28.2358742  68.2684278  33.2920957  29.1167545  68.0759811  33.6134148
  27.9739881  67.4766254  32.8223133  20.3246502  49.8091923  60.2819976
  21.1880354  49.9736915  60.6611261  20.2202038  48.8587986  60.3274959
  48.0881834  51.8154669  39.0853858  47.8767443  52.1249056  39.9661660
  48.5268974  50.9762955  39.2252302  74.4133707  28.5328556  18.3847570
  74.9958321  28.6561657  19.1342652  73.9815756  29.3800522  18.2750511
  29.8930550  64.6358061  39.6358562  30.8332133  64.6273708  39.4562435
  29.5033097  64.1733456  38.8939261  12.2257531  47.0735788  22.9246831
  12.1586823  46.9306135  21.9805980  11.5959609  46.4612389  23.3049917
   6.5222635  17.0018364   2.3368831   6.7331209  17.8779770   2.6595843
   6.9829359  16.9374252   1.5003055  36.7587805  75.3987360  16.3065565
  36.5193129  74.6811914  15.7200301  36.5261865  75.0823259  17.1794915
  21.3431587   2.9086948  42.2117376  21.2386074   2.3537231  42.9845953
  21.8132725   3.6786963  42.5316191  68.8337040  66.4162827  38.2094979
  69.0240145  66.4872217  39.1449022  69.1546106  67.2374916  37.8368378
  23.2961134  33.1587635  39.5643660  24.0983013  33.5247265  39.1918108
  23.0544285  33.7702452  40.2600047  61.6072861   3.5186611  38.6659929
  61.9075886   3.2739673  37.7906772  61.2751744   4.4106565  38.5646149
  31.9743681  47.0261049  10.0482750  31.7545342  46.1355066   9.7748911
  31.4666843  47.5884295   9.4632310  17.1312800   8.4755207  12.7551353
  16.9581070   8.9233471  11.9270647  16.9298258   7.5568176  12.5772905
   3.0168561  17.5100218  48.5810467   3.0080370  17.8173433  47.6745674
   3.2900409  18.2732425  49.0900585  41.6096977  10.8814655  64.7888688
  41.0420135  11.1078869  65.5255509  41.5408806   9.9294315  64.7172390
  53.4750205  67.3106337  15.5972588  54.0055829  67.5134897  16.3677025
  54.0845543  66.8903017  14.9906111  18.2223940  45.4892206  28.6103439
  18.2732880  45.9916115  27.7971768  17.3276079  45.1496124  28.6264610
  69.3038372  43.2306896  64.7636336  70.1026348  42.7101932  64.6786615
  68.7712387  42.9768501  64.0098821   5.7993845  38.8717685  63.9569174
   5.9280924  38.1838260  63.3039209   4.8801664  39.1218124  63.8634030
  35.1201868  42.1168184  22.6399398  34.1932178  42.1913671  22.8666663
  35.2619457  41.1781979  22.5169611  52.5997782  62.7155876  11.3347089
  52.3767900  61.8177605  11.5805030  52.8290176  62.6600361  10.4070258
  51.9154263  65.4288483  11.6929412  51.8715382  64.4747877  11.7567718
  52.6428080  65.6739521  12.2648430   5.8964482  38.2681538  35.4724360
   5.9094753  39.1451050  35.8558774   6.3874045  38.3566261  34.6555114
  73.1645342   8.5666729   7.5992066  72.4460264   8.2670475   8.1561595
  73.7186428   7.7942825   7.4868852  25.7596163  46.8070160  64.8501058
  26.1251787  47.6589142  65.0885407  26.4621977  46.3714920  64.3674697
  50.9797001  50.1733112  37.3554993  50.3822803  49.9977779  38.0824828
  51.3544416  51.0311651  37.5552249  43.9780951  70.4792976  16.2497592
  44.3674850  69.9569273  16.9509995  44.0171480  69.9128294  15.4791617
  75.4951191  57.8950596  46.5390778  75.5864859  58.7742281  46.9064283
  74.7091055  57.5418520  46.9558001  67.2679911   2.1291981  61.9286471
  66.6103432   1.4818106  61.6744402  67.7656231   2.2924243  61.1274281
  52.8041311  13.6381985  29.1447639  53.4529992  12.9488159  29.2860174
  52.6801964  13.6596848  28.1958652  65.3901005  65.6203747   5.5830741
  65.5265665  65.2223015   6.4428103  65.6985378  64.9605942   4.9619591
  51.5081310  72.1738005  28.7138724  51.0857344  72.9037046  28.2610464
  52.2721863  72.5647736  29.1376567  40.6188345  62.3147392   2.7651161
  40.8023262  63.2519293   2.6999718  41.3487625  61.8955231   2.3093811
   7.4041258  29.5271721   5.8444336   7.8433691  30.1060953   5.2214220
   7.9108440  29.6154394   6.6516999  13.4258008  61.7103195  15.9430969
  13.0366719  60.9031105  15.6066072  12.7914321  62.3922300  15.7221854
  41.8131685  71.0267210  50.4680920  41.5334320  70.4694271  49.7418690
  41.7846775  70.4538298  51.2343884   9.0658478   8.7024437  43.7548181
   9.7164658   9.4019161  43.8153574   9.2755774   8.1166492  44.4822046
   7.0006734  37.1365738  14.3847847   7.0158172  37.5951314  13.5447085
   7.6152146  37.6230073  14.9342883  66.2440252  73.5917282  42.0717573
  66.2833881  74.2746592  42.7413034  66.9323254  73.8265276  41.4493895
  50.5169201  49.1668844  15.5071974  51.3348389  49.4338560  15.0877142
  50.7887697  48.5678864  16.2025619  42.9005003  68.1113625  33.7613487
  42.1240759  67.6294947  34.0462971  43.4110689  68.2374191  34.5611405
   0.8621067  45.5156088  28.2454562   0.0270599  45.2643347  27.8507519
   0.7829613  46.4579201  28.3938527  16.2104550  20.4019905  31.6018033
  15.8183708  21.2382294  31.8532109  16.4527121  20.5176426  30.6830168
  62.4153134   9.3791843  17.4591351  62.0526501   9.0809513  18.2932591
  62.9017206  10.1735188  17.6797700  65.0438499  48.8397360  56.7090368
  64.5099878  49.2216921  57.4056959  65.5097866  48.1186628  57.1323442
  22.7463603  49.3294477  23.1798124  23.1511593  49.2581177  22.3153567
  22.2420788  48.5215092  23.2755470  18.8048939  41.7556654  62.6340297
  19.7343925  41.9669424  62.7213707  18.4413008  41.9096885  63.5059866
   1.9211406  74.0361166  45.1872921   1.5003486  73.2339478  45.4966259
   1.6486490  74.1122341  44.2728567  15.0850347  33.4985100  47.2802517
  14.8543505  33.0698953  46.4560517  16.0246519  33.6663137  47.2081646
  51.9443525  66.9852290  56.1290583  52.3159326  66.1086497  56.0302320
  51.8920530  67.1178899  57.0755771  29.4843292  44.8582220  11.9901586
  30.2734423  44.8480701  12.5318503  29.7844982  44.5812607  11.1244655
  69.7779608  64.2919588  26.1643171  69.3277359  65.0957441  25.9045935
  70.5302668  64.5928049  26.6739821  54.3642541  31.6172863   6.5551013
  54.9163076  32.2646309   6.1164516  54.5470854  30.7968784   6.0971254
  67.0263910  51.5174532  54.2893505  66.5970039  52.2219086  54.7747278
  67.9419804  51.5599966  54.5652437  73.2467648   6.1618782  32.3036933
  72.8749748   7.0192791  32.0966482  73.7999102   6.3191296  33.0688953
  23.7715411  62.9410410   3.0157572  24.1891718  63.7918663   3.1496087
  23.2869530  62.7820158   3.8257682  57.4568411  14.0722347  33.2344699
  57.3408385  14.9845768  32.9691386  58.3612677  13.8670326  32.9975295
  63.7577268  18.7553574  13.6419749  62.9715916  18.2491089  13.8467538
  63.7287184  19.4975067  14.2458010  57.4898863  63.9140940   1.2151530
  56.8849421  63.1754875   1.2839867  58.1151199  63.7787580   1.9271898
  23.7905240  48.9995146  33.1675768  24.6172214  48.8219118  33.6161971
  23.4604478  48.1350756  32.9225731  55.8810043  45.4446030  45.9623051
  54.9350977  45.3211927  46.0414314  56.1284304  44.9183798  45.2019691
  41.3294796   9.7174440  58.5416880  41.7018274   8.8889252  58.2397863
  40.5588297   9.4628988  59.0491649  19.2035250  21.3572822  62.4772405
  19.4908241  20.4647575  62.6698312  18.8451723  21.3075767  61.5910432
  46.7539406  53.8483381   5.8208376  47.3872185  53.2160378   6.1605227
  46.1155462  53.3163404   5.3457975  70.1431522  37.1877847  49.8827192
  69.5367489  37.5767647  49.2524800  70.3277120  36.3167606  49.5313152
  48.5491133   2.2235977  54.5877251  48.6751842   1.2930118  54.7730204
  49.2554331   2.4447929  53.9807531  67.9416319  17.7641274  31.9944549
  68.0353686  16.8133617  32.0535016  68.5955711  18.1075455  32.6032710
   4.9606780  22.5489221  56.7758342   5.8740143  22.3663364  56.9965461
   4.9933270  22.8853117  55.8802846  63.8266750   4.9241425   5.1655465
  63.6180349   4.6374393   6.0546470  63.2082983   4.4499708   4.6096709
   7.0334844  73.5548626  63.7189704   6.8055228  74.3737732  63.2789241
   6.1915163  73.1772362  63.9733778  35.4752445  74.3301773  24.5470071
  36.0554338  73.6882305  24.1377139  34.9328589  73.8158655  25.1449490
  17.7124348  11.4150978  19.4156587  18.0527868  10.7880379  20.0537729
  18.4340801  11.5466000  18.8007021  40.0893641  65.8791733  23.6070251
  40.2311707  66.8233013  23.6758757  39.4850063  65.7807732  22.8712916
  44.9865150  59.1546297   2.5798839  45.0858259  58.4284496   3.1955385
  45.5265713  58.9077187   1.8291469  61.9626856  71.9363880  44.0248299
  62.1035337  72.4367237  44.8286057  61.0194540  71.9905758  43.8711548
  20.5084076  12.3733021  11.2755573  20.0555983  12.8675343  11.9588780
  19.8201122  12.1401859  10.6525517  10.1554098  38.1630589   8.9732325
  10.3368273  38.2348896   8.0361301  10.8219328  37.5590683   9.3006182
  33.9779234  70.3063917  24.5658875  34.8818707  70.1318502  24.8278952
  33.4573650  70.0815439  25.3370500  51.9558811  63.8665819  44.1348505
  51.4527512  63.6204004  44.9110556  52.8635454  63.6678123  44.3647861
  74.4434500  70.8616972  10.8400202  74.2731905  70.2522707  11.5582407
  74.4648123  71.7231226  11.2568188   6.3907603  32.6068531  57.1734789
   6.5903429  33.3641945  57.7237859   5.8028106  32.9485594  56.4998469
   4.7872915  10.3977467  38.6934280   4.3696299  10.9886719  39.3200040
   5.7232609  10.4752327  38.8783503  75.0167032  12.9928375   4.9510738
  74.6084782  13.8008476   4.6401098  75.8082625  13.2833744   5.4041272
  41.9126511  21.7369604  23.5310292  41.9406080  21.0093260  22.9097414
  42.6756144  22.2707438  23.3092165  34.7382689  24.6603251  14.1846824
  35.5372834  24.2999268  14.5692861  34.6046066  25.4897165  14.6434593
  70.3836725  30.8810411  58.3798405  70.2515778  31.7214523  58.8185754
  70.8391914  30.3421770  59.0266499  11.2220550  63.1293249  24.8267627
  11.6372645  62.3232031  25.1333570  10.4603326  62.8321075  24.3290973
  68.4116858  20.9681702  56.5739441  68.3027321  20.9920692  55.6232643
  68.6433035  20.0594282  56.7657089  13.0311167  46.3414812  10.3972125
  12.7986002  47.1129799  10.9138954  13.8216591  46.0017347  10.8165550
  51.0137213  72.5725302  39.0528819  50.3656305  73.1167898  39.5000860
  50.8559025  72.7284608  38.1217477  42.0871735  10.6378508  28.7930703
  41.7596102  10.1104844  28.0644965  41.4957142  10.4376674  29.5185566
  48.6685671  57.9148564  62.1805623  49.3520488  57.5343916  61.6289010
  48.6589874  57.3646281  62.9637536  29.3983368  61.6302680  14.4613779
  28.8571934  60.8514296  14.3317449  29.0894321  62.0017218  15.2877152
  11.8960917  58.4084129  10.1865268  12.6034498  58.1272888   9.6061438
  11.8443799  59.3557549  10.0596440  39.6181430  65.1694093  58.8732222
  39.4675041  64.7789178  59.7340688  40.3197409  64.6424947  58.4906599
  31.6539955  22.8843546   5.7078409  31.1362886  23.6854506   5.6274891
  32.2265601  23.0434561   6.4582324  46.5354252  23.2687998  29.6986365
  46.3306236  23.4257793  28.7768745  47.0566368  22.4659562  29.6948242
  23.1447482  48.7774467  11.2639582  23.9121294  48.4416103  11.7271757
  22.8979111  48.0717039  10.6662726   8.6752045  56.5523434  23.4482646
   8.0134457  56.1045265  23.9752984   8.1877965  57.2252703  22.9730415
  33.8183928  33.4364319   1.0249874  34.6808171  33.0861020   0.8019944
  33.2135034  32.7170229   0.8438979  51.8750442  69.6072731  29.1365906
  51.6227735  69.4206891  30.0409004  51.5383519  70.4878387  28.9708325
  18.1148267  72.4349356  18.5271513  17.4426353  72.4465704  17.8457892
  17.7763808  73.0170679  19.2074537  65.2403889  17.9706035  39.6293685
  64.9043856  18.3636699  40.4348704  65.2138684  18.6801515  38.9874431
  56.9623936  74.7534761  62.7194230  56.6589273  74.9098191  61.8251657
  57.8965772  74.5668397  62.6261470  76.5687097  69.7810564  52.5995609
  76.5489448  69.8119221  51.6430637  76.2812103  68.8942203  52.8165743
  72.4387858  40.1181351  47.1745476  73.3475981  39.8176943  47.1694502
  71.9477889  39.4028507  46.7701682  41.5671825  19.7301066   8.3736199
  41.5379810  18.8664567   7.9619306  40.8366823  19.7254193   8.9921492
   0.1589062  28.4776473  18.6264932   0.6866066  28.0634570  17.9436982
  -0.3576823  29.1369152  18.1630969  44.2793549  73.3260569  65.2903278
  43.9468695  73.4170875  64.3973560  44.9184347  72.6154742  65.2366765
  23.7778187  27.0085096   5.7924157  22.8699040  27.3104405   5.8200186
  23.9816785  26.9475269   4.8591667  74.4537605  75.3355226  58.6869469
  73.9480842  75.2723393  59.4972130  74.5779384  74.4275031  58.4106943
  60.2213658  65.7864628  63.5441467  60.8109010  66.5284548  63.4095019
  59.4752921  66.1559686  64.0164510  43.1149817  19.8367584  43.1178665
  42.9611540  19.5642436  42.2132683  42.9570675  20.7808328  43.1137514
  79.7473576  42.5880957  20.4194331  79.4929958  41.9029570  19.8012733
  80.2990288  42.1396399  21.0603523  60.9146738  46.5035200   9.9717069
  61.4474249  45.7234335   9.8172045  61.2183809  46.8376637  10.8157086
  16.1859329  32.4669937  49.8986789  15.5604513  31.7820153  50.1349279
  15.8033283  33.2716853  50.2484187  20.5899753  14.3066479  46.4486313
  19.9575856  15.0240875  46.4087200  20.5314746  13.9855839  47.3484802
  75.2179184  61.0423279   8.1100327  74.4852227  60.6067085   7.6745760
  75.6891060  61.4829683   7.4028909  49.3258728  59.2901335  54.2485770
  49.8158587  58.5183773  54.5323703  49.8133291  59.6189317  53.4932551
  50.3894581  65.7074079  49.5866701  49.8658980  66.5029034  49.6831330
  51.1402739  65.9774790  49.0579256  76.1995321  27.3843670  64.2426062
  75.3357351  27.0178318  64.4316530  76.0290041  28.0898666  63.6185694
  58.3063173  28.9197707  10.2534175  58.6103535  28.0599236  10.5440342
  58.0596161  28.7896824   9.3377495  56.0238756  56.9793806  62.9524261
  55.4311455  57.7255616  63.0425140  56.8793930  57.3201964  63.2135096
  24.2878702  43.5115502  58.8900247  24.1084911  42.6399270  59.2426255
  25.0408934  43.8228050  59.3923279  10.5175042  15.7229817  41.1133909
  10.2413595  14.8438609  40.8543158  10.1336205  16.2991440  40.4524088
  30.3728080  46.4650440  22.7412939  31.2490034  46.7456007  22.4770975
  30.2309036  45.6452799  22.2679186  58.9767948   5.7969318  62.2648644
  59.2367223   6.1999403  63.0932689  59.2603621   4.8859869  62.3423040
   4.7911099  28.0845581  64.6526249   4.5391396  27.7139698  65.4984419
   3.9631156  28.3445822  64.2488372  54.0828323   4.8424500  19.3537819
  54.1752768   5.6300431  19.8898637  54.0037107   5.1703733  18.4579933
  58.1144489  29.6743331  54.1533848  59.0348281  29.4857249  53.9701816
  57.6748503  28.8284293  54.0671834  29.9210600  23.6546455  59.2821476
  29.9278740  23.8730131  60.2140808  30.4286817  24.3529926  58.8687941
  12.4890530  65.5394125  25.8026600  12.0811677  64.7241592  25.5107236
  13.4243202  65.3391933  25.8403587  34.9682474   0.8270887  36.3822412
  35.5993819   0.2998399  36.8720484  35.2414155   1.7315423  36.5357852
   6.0438957  11.1264492  28.0547857   6.2737026  11.9925190  27.7181196
   5.4003563  11.2995888  28.7418866  23.5790901  68.1272111  28.6676261
  22.7702652  68.4071240  28.2390424  23.9736996  68.9384398  28.9876649
  28.9769363  18.7525702   0.6452911  29.8169208  19.0271485   1.0130737
  29.2004561  18.0472493   0.0380069  22.0430569   7.2327886  53.4550258
  21.2968878   6.7327534  53.1242296  22.8102449   6.7550026  53.1397757
  43.5601071   9.8525081  60.8553159  43.5957972  10.7111250  60.4337278
  42.8433583   9.3979679  60.4127142  58.6452044  58.6839709  20.0794861
  59.3728579  58.1450543  19.7691318  58.9126552  59.5823083  19.8853370
  40.3949499  20.0323868  28.7689686  41.2281942  19.6171391  28.9914656
  39.9197149  19.3653870  28.2734942   3.1122364  39.0213707  38.2632348
   2.3929800  38.5818476  38.7167999   2.7253593  39.8302085  37.9280659
  18.9457762  22.9170179  43.0749369  19.3470061  22.3457289  43.7298203
  19.6589994  23.4848857  42.7832651  18.3373697  64.4119344  61.5054652
  18.6436470  64.7128639  60.6499716  19.0819986  64.5538316  62.0899510
  76.8987144   5.0055442  64.0487888  77.3651804   5.6546483  63.5221970
  75.9895576   5.0681410  63.7559616  34.5306352  18.8429580  38.2508156
  35.4266456  19.0161072  37.9620024  34.6252445  18.1971632  38.9509770
  49.0946091  73.9733681  58.8044724  49.7631777  74.2441425  58.1752434
  49.5262397  73.3088932  59.3415007  18.0673313  20.3816366  11.0799575
  17.2266912  20.6585431  11.4444828  18.7197769  20.8556771  11.5955460
   0.3926066  20.6397472  62.8701152   1.1823634  20.8908401  62.3910895
   0.7186273  20.2180897  63.6651936  28.5613779  28.3415447  63.5186937
  27.9300121  28.7965666  62.9614124  28.8357405  29.0000521  64.1569163
  51.2098921  50.6965229  62.7957056  52.0668186  51.1199198  62.8471236
  50.5863990  51.3912282  63.0075361  25.9748769  42.5560379  10.9689963
  25.7315540  43.3926582  11.3653457  25.1423001  42.1660709  10.7025909
  72.7779410  14.7346340  60.8775642  72.5189683  15.4925857  60.3534695
  71.9536075  14.2958723  61.0877949   7.8585108  54.0292451  60.5293253
   8.8068445  54.1158614  60.4324126   7.5435646  54.9288747  60.6171197
  25.4888204   5.1234566  46.6388008  25.0110344   5.9009586  46.3499304
  26.3997940   5.3015457  46.4050445   4.4119126  47.2769356  27.9827428
   4.3839422  47.0559788  28.9136720   3.6643636  47.8604078  27.8524971
  21.1769843  25.0104761   3.1760550  21.0278487  25.0241876   4.1214663
  21.5776491  25.8584094   2.9844636   2.2926644  24.5600591  53.0250189
   2.9862598  24.0934406  52.5587317   1.6608313  23.8797031  53.2576868
  75.7772958  33.5418177   3.1518504  75.3943717  32.8878093   3.7365520
  75.1075467  33.6870623   2.4835905  14.7120547  10.5402577  12.4579024
  15.5565906  10.1498437  12.2330284  14.6148264  11.2697208  11.8458056
  27.6382351  62.4130487  11.5113473  28.3924055  62.5800467  12.0766556
  26.8858600  62.7147579  12.0204020  53.2980384  46.0265890  64.1332993
  52.9403509  46.7806819  63.6646479  52.8270425  45.2752206  63.7729671
  11.9150738  10.8857809  64.3970886  11.0619835  10.7675539  64.8148129
  11.8438844  11.7238031  63.9400497  45.4067768  60.2397094  45.1921794
  45.2949668  61.1766968  45.0315949  46.2528588  60.1718220  45.6346354
  68.2467283  63.1391654  56.4068273  68.0937113  62.2175011  56.6150376
  69.0151705  63.1314168  55.8361551  72.5669492  57.9111776  47.1938321
  72.7022613  56.9857702  47.3976561  71.7593683  58.1419573  47.6529464
  36.3083366   4.1079603  46.7249891  35.5336861   4.6344028  46.9224903
  36.8107036   4.1060196  47.5397619  67.0494318  59.9991703  34.8452663
  67.5118732  60.8363295  34.8058963  66.1346722  60.2225399  34.6733761
  64.8357773  20.1689959   9.1362113  64.5423698  20.0261974   8.2363504
  65.5711985  19.5663750   9.2468226  33.5391235  18.2010162  30.8924961
  33.4143066  18.7090218  31.6941094  32.6570463  17.9238522  30.6447983
  30.4222904  74.7600183  61.2216568  30.3413586  74.8180280  60.2696499
  31.3483928  74.5705375  61.3721999  32.6488281  69.2977509  50.6097874
  31.9746424  68.6777553  50.8878359  33.0474557  69.6000371  51.4258453
  26.3524199  74.1598701  24.9356079  26.1642694  74.2914820  24.0063548
  26.7098618  73.2732534  24.9843788  39.7816539  36.3003302   7.3773122
  39.6510315  35.3595448   7.2586089  40.7050896  36.4420915   7.1689773
  75.9697975  48.6089215  62.9587602  75.2205862  48.4494028  63.5327565
  75.6544222  49.2555914  62.3274207  12.2179675  14.4367731  19.3953228
  11.6423976  14.1839862  20.1171613  13.0833411  14.5181680  19.7962403
  29.8201871  11.1896729  20.6362057  30.0540972  11.9149590  20.0570011
  28.9166760  10.9777188  20.4017353  22.8374004  43.6225939   6.1028308
  22.8596950  43.7669563   7.0488197  21.9420314  43.3342695   5.9255826
  61.9247013  64.5215607  -0.1757981  61.8819684  65.4571104   0.0220894
  61.7517477  64.0914679   0.6616606  36.7697195  10.5751835  36.8630430
  37.2316650   9.8948131  37.3528811  36.0228208  10.8034645  37.4164483
  31.1721039  26.3357282  15.7333374  31.9611311  26.8446994  15.9193957
  30.6264091  26.4466405  16.5118897  43.4273291   3.4065273  10.1917350
  42.7405024   3.6290941  10.8201993  42.9545927   3.0827886   9.4249576
  37.6412348  10.9355675  53.8808188  38.1262688  10.2937732  53.3620974
  37.4044470  10.4669557  54.6811732  33.7737918  27.3012114  27.1329594
  33.0828142  27.1789145  26.4819407  33.3239508  27.6694846  27.8933859
   5.2226142  72.8984011   7.2688729   4.4158534  73.3534080   7.0273393
   5.1996449  72.8614009   8.2250816   7.7976504   3.2570387   2.4052259
   7.9723683   4.1805912   2.5862241   8.6089745   2.8085781   2.6436898
  17.2425044  12.8322148  39.1460514  16.6975784  13.5883904  38.9281416
  17.9236114  12.8260553  38.4735274   1.6941399  24.3373179   7.0805424
   2.1030659  25.1324224   7.4223351   0.8287758  24.3183541   7.4892241
  36.3544297  32.1727920  10.6771326  36.5329885  31.4120364  10.1243210
  35.6765771  31.8744087  11.2835264   5.5705035  26.9283223  13.9790046
   6.2790293  27.4149942  14.4001615   4.7705111  27.3025513  14.3480515
  58.4023762  25.6434321   7.2853166  58.9112616  25.8122611   6.4923680
  58.7672997  24.8308063   7.6356119  70.6766963  57.3564005  25.3086281
  71.5557182  57.6812744  25.1136661  70.6012183  57.4260426  26.2603021
  74.6964059   5.6587301  60.5549654  74.8139939   6.4043461  61.1435753
  74.0356741   5.9510885  59.9271199  47.6806688   3.2275975   3.2355148
  47.8412056   3.6337376   2.3837462  47.0591974   3.8138938   3.6670992
  70.5721086  32.6193905   1.9791944  70.9386849  31.9943190   2.6046050
  70.8806878  33.4725285   2.2844253  46.1489439  11.9835615  52.5854111
  45.9583712  12.8670812  52.2702837  46.6069698  12.1187544  53.4149694
  29.4988775  52.2228241   7.6817906  29.2414618  51.3734484   8.0402970
  28.6897707  52.7341938   7.6728898   2.1303947  61.8799982  54.9041638
   1.9725759  62.7703628  54.5901975   2.8554304  61.9691381  55.5227187
  57.5198830  54.4947991  61.5861031  58.1855239  54.1919944  62.2037303
  57.0650185  55.1978586  62.0498231  38.9330960  59.9934778  39.6370765
  39.0220441  60.9171543  39.8719069  39.1444768  59.5203171  40.4418561
  22.6688576  14.7608495   3.9249814  22.1737814  15.2108860   3.2404393
  23.1685519  15.4549479   4.3548223  15.1982502  13.2757650  45.5392262
  14.3546490  13.7186514  45.4474601  15.8435730  13.9823137  45.5150875
  14.1090417  55.3471327  20.3474212  13.9459181  54.4787836  19.9791968
  14.2154157  55.9148455  19.5841241  77.3558602  10.1309429  52.8805801
  77.8277097   9.9610267  52.0652768  76.4934239   9.7386537  52.7444085
  23.4778476  22.8807998  27.3079467  24.3810105  22.9867601  27.0091176
  22.9450631  23.1763291  26.5696812  14.2361076  45.1335898  54.1247722
  13.3089502  45.3537873  54.2149171  14.2615230  44.1781435  54.1768154
  46.1848545  23.8188791  27.2111130  46.5366745  23.1509280  26.6226411
  45.3360319  24.0482926  26.8328261  48.6356089   0.3928457  49.2152068
  47.9526136   0.5408297  49.8693105  49.2445395   1.1214863  49.3356916
  37.0066142  30.1499510   9.0924925  37.9289031  29.9027562   9.0253395
  36.7203498  30.2558064   8.1852549  58.3213366  62.8561721  59.9242410
  57.8484858  63.6883530  59.9352029  58.4090151  62.6427350  58.9952692
  76.6795659  36.2941432   0.5847842  76.7272129  36.4659786  -0.3556598
  77.4959971  35.8369493   0.7863905   2.4479532  34.5679545  13.9443302
   3.3362824  34.9228835  13.9779043   2.4567892  33.8410068  14.5669878
  32.3330045  13.7364411   6.7966896  32.0264745  14.5238400   6.3469416
  32.1220899  13.0207109   6.1971265  74.6124710  70.7585010  27.1746728
  74.8180307  70.1111040  26.5002414  73.7151254  71.0295472  26.9809219
  11.5370544   5.2078033  27.3236585  11.9912740   4.8634316  28.0926323
  11.9867178   4.8063255  26.5801167  57.0970310  46.4584014  55.1881334
  56.2623466  45.9914312  55.2264985  56.8539466  47.3842106  55.1924369
  59.0813078  71.6351900  46.5976390  59.7641576  72.2208819  46.9246158
  59.1896428  70.8325968  47.1078726  11.3128451  52.8646599  46.3524028
  10.6816415  53.0199943  45.6497773  11.0458783  53.4624611  47.0506844
  37.5350989  74.0577802  63.2412340  37.0832456  74.0921840  62.3980990
  37.8906490  73.1702122  63.2863848  22.8607225  75.1096201   9.5926470
  23.0342793  75.5432272   8.7571251  21.9964099  74.7134733   9.4819158
  42.6535735  11.7551027  39.9256465  43.0339691  10.8783804  39.9793955
  43.0130813  12.1231018  39.1184494  69.0390348  50.1672649  37.7352500
  68.4326935  49.9377155  37.0310569  69.8836613  50.2758598  37.2981572
  35.8136702  47.3605061   5.7589626  36.1357927  46.9513130   4.9558243
  35.3882360  46.6483927   6.2365991   6.1502457   4.6046135  26.5355301
   6.0396141   5.1746458  27.2964883   7.0640862   4.3229815  26.5780807
  41.7567921  51.0232115   9.1823614  42.0533800  51.8948650   8.9206576
  40.8021688  51.0907412   9.2014432  42.1934986  59.0905905  18.5288882
  42.8581333  58.5472488  18.9522946  41.7037678  59.4785738  19.2540526
  10.5276731  18.8069711  32.4962327  11.1841754  18.3082042  32.9825136
  10.0154952  19.2512308  33.1719109  62.1856693  24.5917736  61.0989651
  62.1680836  24.5140110  62.0528391  62.9742054  24.1179500  60.8345252
   6.0314230  30.5793272  37.7747676   6.1304478  31.0284458  38.6142441
   6.9134334  30.5692135  37.4030372  74.0960464  57.0234619  59.0227094
  73.2160971  57.0779835  59.3954679  74.2518959  57.8906952  58.6487397
  59.5973036  20.9737430  50.3662750  59.5404408  20.4032741  49.5997485
  60.4824666  21.3362299  50.3299269  76.7842707  18.9407240  44.0686580
  76.3684878  19.2502771  43.2639643  76.6079984  19.6294676  44.7095915
  51.7529774  55.6931639   1.3452125  52.5139093  56.2459993   1.5229452
  51.5965652  55.7955647   0.4064468  25.1039938   0.2825247  31.4517185
  24.9404768   1.0861097  31.9454261  26.0545830   0.1736842  31.4793417
  67.9118026  72.1196112  57.6201603  67.0881761  71.9214878  58.0658313
  68.4631838  71.3546643  57.7846673  16.0987047  19.6912466  62.5761935
  16.1332277  18.8357149  63.0041034  16.7749027  19.6483312  61.9000700
  32.0998836  45.6872463  33.1197715  32.3114038  46.3357258  32.4482346
  31.1432004  45.6581306  33.1317210  50.8762932  65.9118128  14.5290542
  50.5433273  66.7334366  14.1680861  51.5387774  66.1808348  15.1654315
  67.3970079  19.8119307  25.0168729  67.9965639  20.2863145  24.4409180
  67.8476143  19.7839057  25.8609104  70.5387163  60.1871729  29.5620131
  71.3283634  60.7088041  29.4185066  70.3535414  60.2849436  30.4960275
  47.6557875  50.8796358  25.3367519  47.6174688  50.7348156  26.2821555
  46.8892431  51.4202404  25.1459908  34.6654034  48.7608099   8.6984593
  33.9949274  48.2029676   9.0928000  35.4571629  48.2229137   8.7023437
   9.2827215  11.8997456  14.6797669   8.5473194  12.0388008  14.0830398
   9.6585074  11.0630871  14.4058871  73.4309864  47.8836775   3.4291926
  72.6248217  48.3760977   3.2747367  73.9865685  48.4837151   3.9266956
  64.8824453  75.1702499  24.8620915  64.8864126  75.4388905  25.7808137
  65.7769060  74.8728132  24.6956539  58.5680914  35.6233144   3.6407465
  59.3161869  35.4680157   4.2173439  58.4747410  34.8097539   3.1451282
  44.5937872  58.1636763  24.9698281  45.3211403  58.6974001  25.2897143
  44.1921854  58.6939621  24.2815351  11.4604576  66.8237600  50.2630707
  11.8735130  66.9955430  51.1093017  11.9638546  67.3478470  49.6400484
   7.8725151  29.1213737  65.2913765   8.8041786  28.9454685  65.1598814
   7.4267963  28.4326921  64.7981326  28.2473472  10.3012548  60.5165052
  27.7679066   9.5284162  60.2180341  27.9589800  10.4276977  61.4204341
  71.6787642  62.3341846   0.3234033  71.7714762  63.0800772   0.9160936
  71.9894480  62.6595592  -0.5214868  57.8549303  74.8468051  47.4173936
  56.9534196  74.8405227  47.7390596  58.0600275  75.7740650  47.2975799
  71.2837348  24.8503528  54.9614021  70.5779776  25.0297581  55.5826530
  71.0968397  25.4203258  54.2154583  26.8995670  40.1742016  37.9881999
  27.4037889  40.5566536  37.2700617  26.0323385  40.5717884  37.9102799
  65.8181712   2.3397837  36.9790765  64.9660787   2.4952732  36.5716526
  65.7265696   2.6876388  37.8661176  18.4613252  48.1288195  29.8673463
  18.2018328  47.9923105  30.7785320  18.7179708  47.2598743  29.5586467
  57.1565667   6.4388023  60.2477956  57.4229604   5.6967722  59.7049716
  57.3250762   6.1517368  61.1452532  52.2671083   1.1470710  58.9738717
  52.0298151   1.7789684  59.6525696  51.5063814   0.5699073  58.9074716
  78.2276497   7.1274553  46.6720626  78.8400445   7.7873169  46.9973120
  78.0656609   6.5591799  47.4250945  65.5836626   7.3570896  42.3582411
  65.7119914   6.7585350  41.6223717  64.6816751   7.2020317  42.6386118
  19.1422231  75.4717884  50.6217763  19.0313299  74.7310052  51.2177416
  18.5372694  75.2927027  49.9019190   8.9076240  33.5623664  47.2355076
   9.3540342  32.7324266  47.0677289   9.4245489  33.9770174  47.9262194
  48.8857702  29.9452434  55.4187742  49.7747902  29.9652468  55.0645539
  48.5326628  29.1029678  55.1322040  42.0040464  51.8060493   2.7384505
  41.1739397  51.3368607   2.6546612  42.1945524  52.1157598   1.8530023
  45.6111240  56.4546680  21.8207312  45.5335855  55.5081224  21.7012739
  46.1647987  56.5537739  22.5952363  56.1044697   8.3623825  47.3450896
  56.6287998   7.8503118  46.7293796  56.7477421   8.7807689  47.9172715
  34.0247393  69.0905952  19.3781340  33.9455557  70.0260592  19.5648575
  34.9643016  68.9148998  19.4289696  46.7820597  64.6573067   3.4465975
  47.1916533  65.0675488   2.6849091  46.0521603  65.2360821   3.6668149
  46.4607290   1.0793434  64.8428653  47.0773462   1.8105636  64.8064059
  46.0478119   1.0709582  63.9793496  50.1569891  46.2110662   1.9795811
  50.3058052  45.6991339   2.7745718  50.9928226  46.1791468   1.5141809
  22.1941713  10.6177030  62.8337797  22.4453501  11.1685787  63.5751810
  21.9607500   9.7773014  63.2280724  19.3863237  49.0360355  16.4945555
  19.7344983  48.1449223  16.4642465  20.0867629  49.5534706  16.8918955
  41.0886482  10.9142862  55.0508007  41.9278101  10.6030594  54.7114131
  41.2887052  11.2289940  55.9323725  47.0435251  56.1513028  60.3992414
  46.9599498  57.0449290  60.0665560  46.1723996  55.9377370  60.7335469
  69.2728043  34.7691345  13.7602675  69.0336704  35.6952882  13.7243521
  69.5368147  34.5550609  12.8654480  29.0179256  26.2920318  46.1038503
  28.9683918  26.8116937  45.3015229  28.2470802  26.5543257  46.6070720
  61.6018761  72.9312787  37.4758264  61.9504203  72.0741234  37.7208444
  60.9238065  73.1093225  38.1275603  48.1646872  16.5473425  17.6429856
  47.4505854  16.1341214  17.1576571  48.3760977  17.3316085  17.1365619
  38.9634998  62.8573379  55.8926460  39.4829376  63.2640323  56.5861991
  38.2013805  62.4956474  56.3449666  54.3862391  59.5035410   3.4855309
  53.7513542  59.1213846   2.8796330  53.8515902  59.9173355   4.1631439
  60.5444254  64.3085441  49.1374549  61.2862624  64.6373424  48.6297151
  59.7885741  64.4289813  48.5626384  18.1157163   0.2860080  55.2151486
  18.4629301   0.4843150  54.3454656  17.4184755  -0.3500356  55.0553641
  19.1223085  40.1687193   9.0044892  20.0788164  40.1537848   9.0376794
  18.8653433  40.7141399   9.7479409  61.4323033  62.6090226  40.7065341
  62.1728171  62.2637234  41.2051698  61.7885126  62.7770457  39.8341152
  34.2159891  41.1284781  36.9482136  33.7876916  40.5016947  37.5312519
  34.6249223  40.5868864  36.2731695  70.6078386  69.9395895  27.9850745
  70.9480190  70.5513000  27.3321414  69.9976397  70.4609299  28.5067034
  62.8624071  65.3929672  61.5089640  62.1893991  64.8489675  61.9180551
  62.3721207  66.0668287  61.0380503  29.1938686  50.3635359  36.0473728
  29.7895551  50.4050684  36.7954803  28.4099483  49.9334288  36.3890004
  78.3464683  51.1865768  48.8960108  77.8099455  51.9490263  49.1129169
  77.8612865  50.7422719  48.2007262  12.8544382  18.2369362  46.4466330
  12.4590424  18.7268387  47.1676656  13.2458810  17.4698721  46.8645069
  61.2422868  12.5576187   3.2997748  62.1764060  12.7560307   3.3652145
  61.1099692  12.3284985   2.3798689  26.7932391  65.1061583   5.9122652
  27.3975515  65.5211973   6.5277159  25.9555268  65.0873518   6.3749903
  44.8156357  51.9707727  25.1337790  45.0148916  51.6204309  24.2655683
  44.1554356  51.3744307  25.4869652  16.4815000  35.0973116  63.4250940
  16.7234997  35.9339844  63.8221417  15.6928543  34.8279558  63.8959642
  23.8043789   9.6920620  23.4124300  24.1882995   9.2650018  24.1782352
  24.0540890   9.1334377  22.6763460  41.1293268  68.8132906  20.7253003
  41.5487957  69.6587181  20.5655313  41.7053890  68.3746052  21.3513494
  65.2902648   5.4945217  26.1521432  64.7056923   6.1019884  25.6988260
  65.0400028   4.6310411  25.8235094  32.8549099  59.5545006  19.5420051
  32.7856326  60.3135920  18.9630282  33.4477067  59.8375845  20.2382016
  53.1308068  70.1783261  58.8580361  52.5449671  69.5799455  58.3943960
  53.9806951  70.0574956  58.4345707  70.4173959  65.3433952  53.6033651
  70.3967537  65.5876193  54.5286545  69.5475734  64.9827585  53.4313783
  19.6651709  70.5633736  23.5923839  20.4964542  70.2585316  23.2286954
  19.8719347  71.4119196  23.9841104  59.8475456  49.5329094  31.8998981
  60.7850599  49.3865299  32.0259023  59.5697832  49.9989510  32.6884961
  57.1353177  36.4098345  64.1925063  56.8247807  35.5069195  64.2599101
  56.6294346  36.8868433  64.8503644   5.8923191  21.7016840   7.2521061
   4.9888176  22.0146060   7.2072852   5.9978432  21.1615419   6.4689445
  15.5639509   5.0770317  54.6068808  14.6679453   5.2033745  54.9190435
  15.9422687   4.4422375  55.2152720  23.7448059  23.9131394   2.8742531
  24.0148817  23.3631220   3.6096218  22.8571068  24.1929045   3.0977562
  23.7914491  25.9746671  13.3247674  23.8915849  25.2321434  13.9204693
  24.5636702  25.9349251  12.7605629  63.3112710  35.2158737   7.4684012
  62.9195326  34.5925784   8.0801803  64.1372269  35.4691410   7.8805727
  68.0985304  11.8187881   3.4770948  67.5808951  12.0355011   2.7016455
  68.9808270  12.1267391   3.2698479  27.2669601  36.4775705  16.3572621
  26.9960570  37.1456313  15.7275510  27.8955936  36.9239902  16.9245028
  66.7928836  20.6955229  41.8413898  67.0965597  20.8572660  42.7346155
  65.8876357  20.4024254  41.9455597  20.3932476  11.5664053  15.2251816
  19.9373138  10.9411895  14.6617448  21.1946774  11.1130106  15.4866672
  75.9411344  20.4006849  26.8483922  76.4784798  19.7924314  26.3409278
  75.0472746  20.2403818  26.5458175  37.4115038  60.8946991   6.9165343
  37.0174408  60.0253057   6.9879752  38.0038548  60.8283663   6.1675680
  70.5490646  15.6270109  56.6351202  71.4288113  15.6526123  56.2587949
  70.1577506  16.4644466  56.3865110  25.6140045   1.2070022  49.1801163
  26.2190632   1.7411099  49.6947655  24.9884991   1.8348394  48.8184592
  63.4702778  20.2663326  16.0958576  63.9814377  21.0059500  16.4243603
  64.0040207  19.4978273  16.2977171   4.1965969  68.0162916  58.8607254
   4.0666683  68.4228430  58.0039480   5.1129730  68.1931982  59.0732893
  76.5303959  61.9711575  42.1726963  76.4703573  62.7598724  42.7117273
  77.2477163  62.1505222  41.5648195  61.5035547  41.6716281  56.5637770
  61.9927849  42.2952995  56.0271951  61.9345273  41.7008683  57.4179658
  28.6494818  75.2281317  49.0117940  28.3274102  74.4677005  49.4957849
  28.4418620  75.9749708  49.5733580  47.8783883  70.6715903  55.6778034
  47.8100980  71.6252074  55.7245567  47.9951776  70.3949818  56.5866920
  28.7292532   9.6400009  56.4066282  28.2401899  10.0228058  55.6782672
  28.1021694   9.0588175  56.8370011  65.9237072   1.8195163  16.1617300
  65.0270316   1.4845477  16.1623356  65.9642646   2.3939930  15.3971597
  43.7724425  59.1812000  58.6285177  44.5626689  58.8018451  58.2439861
  43.5347582  58.5772643  59.3320802  38.0170965  38.9279985   2.7175388
  38.1437492  39.8762584   2.7490738  37.7813840  38.7479782   1.8074492
   5.5374483  43.3149849  60.4401189   4.8374180  43.3939682  59.7920814
   6.3085584  43.6790500  60.0052914  18.8247657  61.5274477   0.7608908
  17.9602027  61.1179924   0.7942183  18.7761593  62.2417116   1.3962591
   8.9433245  31.4418875  32.4454710   8.3021788  31.8155037  33.0501005
   9.3089656  32.1982179  31.9866654  53.5412445   3.6377273  62.5948328
  53.8058415   3.2391487  63.4239000  54.3656230   3.8575397  62.1608805
  58.0004311  46.6923523  15.9362340  58.0178213  47.0435381  15.0459552
  58.1432056  47.4546576  16.4972460  72.0453735  16.3418938  11.9292271
  71.7559429  15.4620434  12.1707380  72.7047869  16.5658070  12.5859356
  24.2213920   2.5321613  57.9092380  24.2538265   2.6591144  56.9610497
  24.1464809   1.5845309  58.0215820  55.9653854  24.1290140  24.0096688
  55.6811190  24.6740556  23.2759428  55.1653194  23.7004471  24.3137407
  70.9435081  48.0053902   0.5874623  70.1532459  48.4257364   0.2483014
  71.6251659  48.6718035   0.5010612  25.9113792  30.8903681  54.0739104
  25.8663801  29.9840866  54.3786523  26.4194969  30.8457456  53.2639357
  52.8162909  60.9084940   0.9641415  52.7121449  59.9965382   1.2356475
  52.8292704  61.4024734   1.7839286  14.0261376  16.1810935  16.7423868
  14.4328821  15.4870474  16.2236476  13.7602091  15.7489419  17.5540268
  32.0908197  11.2253357   8.7334388  33.0007800  10.9304024   8.7683344
  32.1108045  11.9974209   8.1680059  19.2091043  65.3629241  58.9571079
  19.4889219  64.4748268  58.7352672  18.8047989  65.6940112  58.1551418
  72.1352066  52.9086659  57.8055104  71.7002596  53.7164173  57.5323996
  72.8178657  52.7704308  57.1489289  52.3431635  44.1775608  10.5878484
  51.8329334  44.1002560  11.3940239  52.3318148  45.1131678  10.3859997
  53.4917988  73.1187043  43.3044645  53.6506141  73.1413278  42.3608014
  54.2313803  72.6259599  43.6600658  68.3017315  55.7390044  57.4125179
  68.7695039  55.1785705  56.7933789  68.6438049  55.4862556  58.2700357
  42.3647690  23.5049534   6.3451380  42.1800852  22.6175785   6.0374188
  43.3156490  23.5281944   6.4524531  61.3569641  64.5296669  19.3279505
  62.0063162  65.2272320  19.4172609  61.3982296  64.2808151  18.4045875
  45.4952908  34.9201393   6.9348329  44.8071575  35.1908898   7.5426185
  46.3056421  35.2365279   7.3341584  35.7506943  42.1399260   7.3535198
  36.1759925  42.0230770   8.2030481  34.8245072  42.2591829   7.5637317
  28.1261921  31.9270372  11.1376524  27.3425341  31.4030647  11.3036835
  28.8378406  31.4268064  11.5370953  55.7945789  68.7145242  60.5618843
  55.6912841  68.5910830  59.6183142  55.4184021  69.5778951  60.7330891
   6.2447174  71.8363986  50.2822766   6.1380871  71.0382113  50.7997307
   6.8441065  72.3770604  50.7967219  48.1182384  68.4193325   6.9491518
  47.7119875  68.7048721   7.7674782  48.9617586  68.8713694   6.9300216
  32.3739008  11.3036810   5.2798912  32.8944353  11.5762459   4.5242569
  31.5109686  11.1041675   4.9168798   4.3409260  70.2503094  44.7102019
   4.5634039  69.7265157  43.9405438   5.1809700  70.4161343  45.1380488
  39.2791308  61.7076287  58.7345502  40.2137805  61.6399250  58.9296880
  38.9074208  62.1544490  59.4950858  25.9812597  13.5584865  33.2953545
  26.5066818  12.8921209  33.7382075  26.1479286  13.4148489  32.3637864
  24.7854332  18.8916431  45.7573184  24.6377663  18.3180557  45.0053736
  24.4049219  19.7305141  45.4970380  65.1422566  39.9026632   9.4042724
  64.9183053  40.2765131  10.2565134  65.5472046  40.6253195   8.9246708
  63.1292499  60.4373894  59.1342917  62.6658763  61.2747035  59.1548249
  62.6154722  59.8652777  59.7043374  59.7826771   8.9083133  63.1331150
  60.6344322   8.9448581  63.5683429  59.1884521   8.5611950  63.7984192
  64.3164716  13.2757078  62.5094378  64.5585594  12.3508440  62.4620387
  65.0609479  13.6964212  62.9395382  65.2843708  44.6539545   8.3816999
  65.9888082  44.1440058   7.9817599  65.7300383  45.2377510   8.9955378
   9.9072675  11.0497032  50.0829205  10.8266477  10.7889257  50.0284621
   9.5924810  11.0076223  49.1799423  32.7941513  56.6274881  26.7085147
  31.8881655  56.5474463  26.4101553  33.2836127  56.8753386  25.9241486
   9.0784366  60.2457628  50.7680055   9.1506345  59.4966254  51.3594565
   9.3308695  59.9001512  49.9118146  26.6124535  25.8514047  18.6737239
  27.3171735  25.4104304  19.1482162  26.9829464  26.0343266  17.8102958
  57.7896799  50.9688411  60.8669829  57.0597256  51.5263889  60.5976549
  58.5215844  51.2508402  60.3183272  51.0683870  62.0509863  27.9966378
  50.5111074  61.2748384  27.9395032  51.9076538  61.7202091  28.3167124
  56.6300954  69.2114720  39.5886871  57.3991121  68.6975965  39.8352167
  56.6077579  69.1656241  38.6328456  36.3762498  53.7184048  27.3559403
  37.2612667  53.4947300  27.6439500  36.4457273  54.6221495  27.0482850
  73.0836535  58.1962061  19.9995482  72.7551174  58.4436464  20.8638787
  72.3134041  57.8683329  19.5353866  62.3400208   3.4395481   7.3497868
  62.2234007   2.7397085   7.9923248  61.5429898   3.4138561   6.8203396
  66.8124679  30.4254232  55.2238914  67.0439247  31.0792337  54.5641979
  67.0928863  30.8123527  56.0532793   6.2592735  18.8037754  22.0726681
   5.7992830  19.1735817  22.8262472   6.5000477  19.5635391  21.5425634
  25.3497270  27.1162449  61.6200462  24.7669987  26.3784061  61.4404401
  26.1683182  26.8876444  61.1797219  45.6175613  55.6341362   1.0773100
  46.2722111  55.3541613   1.7170572  44.7806883  55.5317545   1.5305124
  73.1925913  16.1720158  14.3425000  73.4265562  15.3121067  14.6918464
  72.3355671  16.3607479  14.7247601  20.4427675  31.9606005  53.5545692
  21.1649279  31.3349090  53.6114010  20.2694134  32.2093950  54.4624683
  14.5065107   5.9662128  35.0768185  14.9302426   5.7313419  34.2512798
  14.3917504   5.1324726  35.5328274  23.3101276   2.6235042  50.9162852
  22.5061611   2.3055301  50.5054733  23.4634928   2.0188008  51.6422626
  31.0553411  16.0455309  51.7913458  31.3255075  15.6674324  52.6281759
  31.7722849  16.6324888  51.5511247   5.0614218  22.4129806  47.6232967
   4.9924926  23.2709490  48.0420729   4.3158058  22.3783575  47.0240554
  72.7194688   0.6515704  35.9270260  72.4598465  -0.2235879  36.2149927
  72.6247380   1.1982857  36.7070004   1.6217461   5.5765987  18.7508821
   2.3410788   5.6776215  19.3742490   1.9285336   6.0161568  17.9578495
  49.9881458  55.3299713  21.1038661  49.2746210  55.9634733  21.0278344
  49.9416590  55.0244474  22.0098066  55.5360603  17.2557092  10.7573330
  55.8760977  17.7805734  11.4819872  54.9442959  16.6285324  11.1729038
  24.2467046  15.4882395   1.3116705  23.5303760  15.6591630   1.9231343
  24.7713137  14.8120260   1.7403355  53.5312366  27.9031897  21.7342210
  53.0165052  27.4599838  21.0597944  52.8962183  28.4448099  22.2028756
  15.0874428   1.9126092  64.9508092  14.2497686   2.3750673  64.9766336
  14.8580316   0.9936081  65.0887896  25.7441719  48.8007984  19.0042564
  26.3610990  48.3779738  19.6016285  26.2217243  49.5565698  18.6622259
  72.1335806  71.5896067  32.5200411  71.9748796  72.4650535  32.1670028
  72.5437845  71.1114726  31.7993805  36.8449314  74.8209843  52.3870536
  36.6750057  75.5035696  53.0362364  37.5583561  75.1705131  51.8531260
   3.8284881  60.6300483  59.6655020   3.8172872  60.0173816  58.9301476
   3.2012279  60.2659545  60.2901706  43.1966877  24.4462681  12.2139633
  43.3119059  25.2341342  12.7452087  43.5569382  24.6795106  11.3583648
  71.9398607  46.1560056  61.3594577  72.5080932  45.6493065  60.7792842
  71.8700994  45.6232158  62.1516067  36.1378912  73.1378224   8.8352478
  35.3789286  73.2711795   9.4030714  36.7875627  72.7173700   9.3986076
  52.7107811   6.0330611   1.4986840  52.5333929   5.1367962   1.7841208
  53.2429409   6.4071637   2.2008830   8.2232884  29.8503385  48.2163843
   8.8381294  29.1221987  48.1268522   8.7506822  30.5671964  48.5688111
  63.1342793  46.3989782  16.3408303  62.6245022  47.1388197  16.0106897
  63.1770706  46.5405846  17.2865295  58.7626024  13.7233044  22.4888492
  58.5131832  14.1706921  21.6802287  58.0338260  13.1292988  22.6685166
  71.5300811  48.3691869  59.3356433  71.7812933  47.8135071  60.0734404
  72.1468033  49.1006062  59.3657931  65.5452585  47.8431654   7.4015409
  64.6881914  48.1654644   7.1226317  65.3564262  47.2778511   8.1505376
  76.6184391  74.7241125  61.6629129  76.9765581  74.8438773  62.5424799
  77.3812593  74.7648177  61.0861310  31.6298676   4.5513874   8.6691618
  31.9942808   5.1890552   8.0553097  31.9773149   3.7095761   8.3744311
  27.5179362  24.6061945  34.7367620  28.1614518  23.9359021  34.5069218
  27.6173568  24.7195530  35.6820107  69.8886551  46.0740474  64.5282182
  69.6045984  45.2749613  64.9720701  70.6374515  46.3792822  65.0404366
  17.9195459  56.8893978  53.2920429  17.9086550  57.0555947  52.3494443
  17.5492628  57.6825461  53.6793896  27.5929884  11.8201528  62.8546803
  28.0149225  11.6754518  63.7015939  26.7241625  12.1565090  63.0743024
  20.1397709  37.9952417  49.9352953  19.5829872  37.7772365  50.6827554
  20.7438377  37.2562490  49.8630127  29.2965320   7.8732954  22.9406997
  28.3757404   8.1333242  22.9132101  29.2748455   6.9164692  22.9562399
  46.2000513  26.4893627  34.9517322  45.7608128  27.2392893  34.5505905
  46.6139221  26.0338974  34.2185926  39.9784946  63.2314253  22.4689937
  40.8438969  63.1306982  22.0725536  39.9719357  64.1275835  22.8052759
   7.4848312  37.0973372  19.8932612   7.9958272  36.3293958  20.1489592
   8.1397378  37.7445388  19.6316159  13.3706025  15.9203563  41.1106106
  12.4481491  16.0766874  41.3127729  13.7024073  15.4349504  41.8659374
  15.3014616  11.9326816  51.2256631  14.7305206  12.6989923  51.2806484
  15.5279402  11.7370115  52.1348676   0.4432686  62.6795850  46.1749372
  -0.2798359  62.0538888  46.2179753   1.2308080  62.1355304  46.1702427
  68.0062675  62.2589970   2.8011447  68.7950897  62.2216129   3.3420625
  67.8650427  61.3547421   2.5207636  57.9749597  50.5676553  46.9300970
  57.6418961  51.3050291  47.4415454  58.2324232  49.9187825  47.5850078
  71.3138546  65.3156433  42.2967860  71.3355554  65.0167427  43.2058641
  71.8975509  66.0740981  42.2800395  13.8370975   3.9404942  36.9398713
  13.7508126   3.8464666  37.8885269  13.1017848   3.4430147  36.5820146
  75.0724423  70.5450964   5.8489382  75.8699050  70.2142334   6.2622356
  75.3820681  71.1905050   5.2134800  51.1331984   0.1926781  52.6230907
  51.0800120   1.1113478  52.8866100  51.5811559   0.2116419  51.7773914
  65.8483133   0.4121385  60.4480812  64.9255535   0.1627932  60.3973722
  66.3132260  -0.2993931  60.0078431  68.0033203  16.8558861   5.7026124
  68.8117739  17.2260071   6.0570782  68.2967182  16.2269569   5.0433695
  59.6430206  74.0145445  49.3784475  59.0950298  74.3361473  48.6625528
  59.0433168  73.5167027  49.9340916  41.5703388   9.6159435   1.3321336
  41.7134579  10.1857830   0.5764645  41.0165044   8.9101578   0.9984110
  32.4803843  34.8182369  44.3107271  33.2714500  35.3547455  44.2596531
  31.7730244  35.4093624  44.0529585  28.4949251  17.1748520  46.6306067
  28.4689609  17.6137711  45.7803631  29.0985747  17.7020432  47.1539640
  29.3704781  13.6722408  61.7324722  28.8010225  13.0343281  62.1626130
  30.1180611  13.7627207  62.3233768  14.3436635  54.2849159  26.3372326
  13.6623752  54.2785501  25.6648970  14.9469030  54.9746323  26.0604239
  19.7404122  36.1485338  32.1918797  20.3455901  36.7708945  32.5951886
  20.2149677  35.8109975  31.4322090  13.1237086  23.5187508   9.7585636
  13.4384795  23.9652802   8.9725840  13.1820949  24.1792656  10.4488838
  26.0649133  32.4053884  30.7608318  26.3257909  31.4892054  30.6671071
  25.7378626  32.4707150  31.6580510  39.3869376  54.0814066  17.2003472
  39.9798846  54.0218401  17.9494119  39.9540186  54.3086958  16.4634681
   6.3765466  57.2035074   6.9084895   6.2933230  56.3349771   6.5148348
   6.9540918  57.6817751   6.3135666  29.2046910  32.6203228  22.5340939
  28.9643294  31.8917919  21.9616461  29.5926412  33.2687355  21.9464803
   5.4756025  42.3587070  54.2324301   6.0229067  41.8988357  53.5958716
   5.1341633  43.1138550  53.7534722  55.6748840  16.7793633  36.4375043
  55.9880968  16.8720604  37.3372459  55.2270218  15.9334827  36.4257574
  62.9893538   6.7416073  42.0273924  62.4512859   7.4952961  41.7851973
  62.5464316   6.3656784  42.7881336  77.9194566  45.6396818  24.7557950
  77.0102310  45.6806087  24.4593763  78.4110898  45.3619909  23.9828682
  62.6481372  74.8557568  10.5318987  63.5849076  74.8933363  10.3388143
  62.5196546  73.9939737  10.9281969  34.9474102  42.5724125  18.6821270
  34.0974050  42.9025936  18.9731753  34.8106628  41.6328096  18.5609889
  54.5398862   3.6604152  46.7445001  53.9775754   3.9462934  47.4644396
  54.7508233   4.4652401  46.2712213  67.3564511  74.0593243  54.4229794
  67.1838325  74.0558672  53.4814787  66.7213779  73.4414911  54.7851896
  39.2114242  29.8031117  13.3213842  39.8110374  29.1118504  13.6021924
  38.3612653  29.3688751  13.2513571  22.4466614  28.9852939  40.9334275
  21.5042786  28.8268314  40.9885332  22.5564913  29.5011316  40.1346275
  73.7460637  45.0203466  56.8984509  73.8132328  44.4679451  56.1196232
  72.9829657  45.5743265  56.7340851  41.3371869  11.3078762  24.7900200
  41.0508033  12.2104908  24.9296641  40.6341478  10.7736469  25.1595688
  23.9861729  17.2847630  22.1866202  23.4278633  16.5962673  22.5478697
  24.7308993  16.8161274  21.8097997   6.8944836  46.7194176  20.0703573
   6.8785441  47.2057438  19.2460585   6.3042903  47.2051859  20.6464934
   9.5546675  54.0259790  32.3652267   9.4774735  54.9492359  32.6057863
  10.1767230  53.6650801  32.9969168  74.1239851  33.8299274  24.0641022
  73.9773524  33.9334416  25.0043225  73.3115864  34.1347933  23.6600018
  24.4023848  25.5707598  26.3194823  24.9853420  26.3296771  26.3403559
  23.8140726  25.7408118  25.5838156  68.6522811  40.4600286  28.2706189
  69.4577890  39.9796057  28.4618878  68.2383972  40.5833817  29.1248512
  25.6734562  35.2298093  51.1771965  26.4312434  35.6351542  51.5987253
  25.6353474  35.6359529  50.3112698  76.5343684  44.6844578  28.0578327
  77.3500722  44.3649817  27.6720953  75.8602559  44.1004610  27.7103400
   6.2856592  61.1614833  57.8153214   6.4141453  62.0862350  57.6042375
   6.9045628  60.9895644  58.5249933  35.5664659  29.8019552  38.0886292
  34.9465799  29.1219258  37.8249383  35.5666733  30.4217505  37.3591900
  57.1719676  44.6233273  52.7828074  57.0199543  45.3663635  53.3667755
  58.0803781  44.3708420  52.9479456  14.1859889  44.7246027  50.1664877
  15.1200628  44.9035215  50.2747679  13.9436388  45.1921844  49.3671989
   2.5635644  18.0337120  56.5788317   1.9048282  18.1502605  55.8942032
   2.5922629  18.8775612  57.0297432   5.7310927  48.7923861  47.8812122
   6.2978423  48.0596542  48.1223106   5.2947593  48.5039949  47.0795393
  79.0390549  65.6007147   6.1620843  79.2496371  64.9431086   5.4991829
  78.0852954  65.6755018   6.1307591   3.9202663  21.6210629  21.9053793
   4.0024658  22.3947311  22.4629807   3.2638785  21.8648506  21.2527299
   5.9850812  25.4410720   2.2433607   6.7585212  25.9797025   2.4103904
   5.9022653  24.8924732   3.0233696  15.6227255  33.4738755  33.4226179
  16.1920273  34.0679526  32.9335356  16.1481750  33.2047153  34.1760683
  48.5213452  74.1048765  11.8167412  48.9963609  73.2767010  11.7480636
  47.7084142  73.9554644  11.3339889  22.5928712  43.1234264  27.5247383
  22.7085900  42.5351954  26.7785311  22.2027636  43.9127636  27.1492457
  45.1735195  10.8559490   9.3182606  45.4565509   9.9824120   9.0479600
  44.2304202  10.7697655   9.4574296  45.5194459   8.5394417  56.1745772
  46.0862413   8.2846819  55.4465166  45.6716994   9.4786297  56.2793627
  50.8989020   3.1096245  10.5763865  51.2842413   2.7536512  11.3770294
  49.9844571   2.8282000  10.6050289  30.5024910  41.3178205  11.9366384
  29.7348857  41.3326454  11.3649797  31.1416507  40.7832098  11.4655781
  41.5350910   9.8714233  18.3499455  41.9307860   9.7594048  17.4855912
  42.1727749   9.4942165  18.9559984  13.6030591  39.7713447  28.3444118
  13.7925029  39.6205997  27.4183345  12.6976216  39.4808340  28.4540391
  59.8011752   0.5645538  28.0829406  59.4702955   0.1329113  28.8706183
  60.7202383   0.7474304  28.2781649  77.4514419  62.3239136  51.8423176
  78.0854854  62.7337503  51.2538862  77.8686072  62.3552561  52.7032614
  29.0118345  11.7738415  16.9691598  29.7417092  11.1581112  17.0354545
  29.1541227  12.2252728  16.1371756  62.9170578  60.2207661   5.1310182
  63.1992298  60.8357477   4.4539624  62.6463300  59.4401360   4.6477410
  65.9405968  74.2849084  17.7524412  65.4924986  73.4567442  17.9244399
  66.8667135  74.0905758  17.8965783   1.7880271  50.0814772  18.3586776
   2.5380325  50.3839922  18.8707423   1.0333076  50.2307367  18.9281964
  19.0995491  33.9729595  33.8075757  19.8734510  33.8272309  33.2634521
  18.8386428  34.8738837  33.6165380  25.0723314  70.4186296  20.4459238
  24.8022509  69.5040274  20.3634906  24.6030831  70.8710432  19.7449541
   9.6691350  14.9125944  49.9753937   9.0934733  15.6160246  50.2754447
   9.9423627  14.4679962  50.7778331  46.7347574  69.2326927  11.6339028
  47.4352121  69.7833872  11.9836628  45.9303999  69.7095394  11.8384933
  14.7226834  73.6489344  17.7042210  14.6285915  73.9970112  16.8175304
  13.9388895  73.9497280  18.1640303   0.6748155  26.1459909  62.7447118
   1.3548402  26.8005262  62.9040254   0.6919388  26.0084616  61.7975980
   6.6366404  69.2658424  17.8844118   6.5506953  69.9936152  18.5001945
   7.5261557  69.3470192  17.5403118  51.8646356   1.3738514  22.8562427
  52.1617981   0.5719591  22.4262547  52.2811099   2.0794512  22.3613596
  20.7950258  43.5935068  24.0688109  21.2117195  44.4439888  24.2076778
  21.4099288  43.1132030  23.5143447  21.0924717  16.1861111  49.9571705
  21.2225112  17.1270634  49.8391438  21.5135499  15.9892250  50.7939291
  14.9185872  26.1759686   5.3083366  14.5361769  26.7966557   4.6880609
  15.2005386  25.4389215   4.7665834  76.9510963  39.7277713  58.7730026
  76.7083546  39.5401692  57.8662968  77.1219676  38.8682079  59.1579533
  78.8576605   1.6819550  16.4726746  79.2198541   1.7634703  17.3549461
  78.3839728   2.5016666  16.3315451  72.1962452  45.3886652  34.1598129
  71.5919560  44.8294497  33.6716080  71.8701118  45.3656578  35.0594449
  65.0582406  20.6466137  53.0296179  64.8411176  21.2278543  52.3007497
  64.4126556  20.8570419  53.7042817  44.2022711  51.4243889  12.4616921
  44.4672161  51.1495972  13.3394885  43.2469445  51.4681005  12.5025439
  59.9109965  70.9897709  11.9259441  59.9572640  70.3993177  12.6779115
  59.2231947  71.6150570  12.1543634  79.7251838  64.8687840  23.3040833
  80.5404275  65.2152157  23.6668444  79.0979635  64.9284554  24.0246844
  19.4405937  50.4599762  10.5576718  20.0657964  50.8717299  11.1541712
  18.8191032  51.1559963  10.3442740   7.0403177  58.5631609  20.9972525
   7.0462811  59.0067863  20.1490808   7.9189861  58.7066650  21.3487911
  45.8794965  60.3464947  56.2218979  46.6086937  59.9133239  56.6655931
  45.2333285  59.6527610  56.0898641  62.3991700   2.5387693  15.7007515
  61.6581246   2.3160292  15.1373065  62.6553198   1.7071367  16.0995138
   2.0796072  31.5490317  28.6711526   1.6234778  32.0449138  29.3510628
   1.6872759  30.6766653  28.7070060  71.9515407  39.1095448  36.7566800
  71.1362660  38.7981749  36.3634753  72.5660753  39.1612291  36.0246229
  18.9603329  67.9451036  19.4913256  18.5128593  68.6629295  19.9393523
  18.3153450  67.6135921  18.8665664  24.8051143  58.4593105  27.9048443
  25.5872679  59.0042114  27.9917598  25.0380850  57.8100109  27.2412467
  75.8438185  70.3568649  40.1364756  76.1801851  71.1428499  40.5669641
  74.8978767  70.3922033  40.2785206  16.4968896  67.4521017  10.5922616
  16.7784917  66.5518522  10.4295290  15.8016694  67.3712635  11.2452281
  33.3864164  54.7159815   8.3872300  34.2061305  55.1988411   8.4928054
  33.0039239  55.0663996   7.5827813  13.8172472  70.0510645  13.6530960
  14.0823376  70.8422375  14.1221380  13.5164833  69.4552803  14.3392563
   4.0491442   6.4437900  64.8793843   3.9893702   5.7112156  64.2662007
   4.3084530   7.1890770  64.3375931  20.1781365   1.9009043   0.6736751
  19.6132609   1.3169981   0.1675098  19.5945134   2.5974537   0.9744000
  10.5959451  29.7887063  35.2136207  11.4622653  29.4061255  35.0745058
  10.2962005  30.0280905  34.3366480  13.4309053  36.4461279   9.7887629
  13.4233546  36.9475031   8.9734101  13.6558294  35.5553603   9.5201123
   4.4480082  72.9576911   3.2942847   4.5026585  73.7021102   2.6950529
   3.6452480  73.1100167   3.7928942  66.2831098  29.9405551   5.6169075
  65.8228177  29.5496202   6.3595605  65.8500927  30.7837510   5.4836822
  10.3715682  31.0559630  20.0817323  11.1982799  30.6255865  19.8636603
  10.2949131  31.7649460  19.4432199   2.0417163  51.3026714  46.9927263
   2.0993279  51.5543032  47.9144621   1.2202418  51.6894674  46.6897488
  53.6025432  29.3846308  62.5707909  53.1973858  28.5266958  62.4441895
  54.0812499  29.5457683  61.7577067  70.2233503  32.9548584  60.1396623
  70.9227512  32.8336368  60.7818261  69.4159803  32.8292690  60.6382748
  74.8822391  52.3306179  11.0490012  74.2351120  51.6437292  11.2091362
  75.6171724  51.8760252  10.6373560   8.1908917  33.4857678  26.9847727
   9.0816540  33.7967634  27.1461916   7.8569579  34.0619278  26.2971973
  65.6589561  42.9553080  16.3626075  66.1996382  43.0903101  17.1408546
  64.7660130  43.1342268  16.6573501  69.8941816  72.8493700  55.1468095
  69.2476667  73.3026657  54.6057233  69.4215120  72.6268563  55.9488705
  -0.0018062  28.8936424   6.2373960   0.8552253  28.9987588   5.8242619
  -0.5757273  29.4868517   5.7526809   2.0549325  25.1529346  57.3527500
   1.6941003  24.6351848  58.0724522   2.7206353  24.5874773  56.9611755
  60.4826766  73.8913345  40.3513193  59.9313050  73.4918690  39.6785307
  59.9821835  73.7920761  41.1611891   0.7717971  54.2339550  60.9513658
   0.5850438  53.3681999  60.5882984  -0.0304195  54.7343765  60.8021745
  41.9704684  25.2127052  22.1930313  42.4720284  24.6538616  22.7866316
  41.2116309  25.4881836  22.7073336   0.4519633  22.4206625  53.6693260
   0.8661178  21.9781290  52.9284677  -0.1899930  21.7904459  53.9963576
   0.1851522  41.0359183  13.4014967   0.0293242  41.3917818  12.5266770
   0.8604013  41.6029730  13.7739495  77.2564182  33.2896314  63.7380859
  76.7212901  33.3875309  64.5256682  76.6648469  33.5078750  63.0179161
  59.3428999  54.5511484  40.1395321  59.5295459  54.2204428  41.0181856
  59.9718052  55.2614546  40.0123596   8.4582740  49.8092175  15.0001895
   7.5959688  49.4002819  15.0739205   8.4789121  50.4538536  15.7074726
  74.2344117  45.1520157  31.4625597  73.8022613  45.0161982  32.3057866
  75.1468289  45.3339243  31.6875863  69.7111863  52.8242588  17.3930037
  69.3044358  53.6306906  17.0760560  70.5965775  52.8437901  17.0297778
  60.5235785  51.1649990  23.0194950  60.9843594  51.1150742  23.8570046
  59.8836428  51.8666220  23.1396580  79.3343969  60.8310413  42.7936363
  78.5248911  60.7205439  43.2923555  79.9252836  60.1652718  43.1455374
  10.7269621  27.6471972  25.6756067  10.4399014  28.3447123  26.2649274
  10.4195499  27.9218745  24.8117304  74.0633660  57.9872751  12.8120291
  73.6557346  57.2762823  13.3065617  74.2662328  57.6008606  11.9601119
   4.0355033  28.8045192  36.9877172   3.2067740  29.0646648  37.3899174
   4.6336025  29.5257258  37.1835971  76.1030075  33.5961246  39.3145728
  77.0360309  33.7329483  39.4788241  75.7190847  33.4932280  40.1853466
  15.5277741  63.9153528  15.4051709  15.1383305  63.9171219  14.5307779
  14.8982382  63.4393597  15.9467876  40.1792908  62.9133511  38.7236786
  39.9067163  63.7851381  39.0099001  40.1832056  62.9653931  37.7679014
  10.8919299  66.0021353   0.1531750  11.2677419  66.7330885  -0.3374397
  11.0460901  66.2253571   1.0711282  62.7668661  33.3865047  25.9115934
  61.9905787  33.9351773  26.0236979  63.4039050  33.9576602  25.4824162
  71.3610464  44.5040560  26.4585876  71.9094425  44.1478968  27.1576190
  70.5528128  44.7671938  26.8987560  27.7715993  44.2416286  39.0482736
  27.8068018  43.6644936  39.8111033  28.4648204  43.9195967  38.4721041
  77.4046178  41.0980415  33.7933254  78.2457879  40.6551647  33.6814141
  77.4646982  41.8715048  33.2326293  14.4811205   3.8199650  47.0256004
  14.6761230   3.2093797  47.7365085  15.2607302   4.3718372  46.9632599
   4.2875519   9.8792625  33.8127947   4.3344917   9.5212246  32.9263210
   5.1693525   9.7609783  34.1658807  63.6165637  64.4122410  15.0846398
  63.4434575  63.7644386  14.4015467  64.0734094  65.1212740  14.6320891
  13.7853539  67.3348236  37.1328473  13.0784440  67.7699137  36.6561842
  14.5662427  67.4966764  36.6034603   5.9269971  73.4106207  31.6768241
   5.3635406  72.9664946  31.0431838   6.8158925  73.2532740  31.3584876
  70.9042614  65.5407333  18.9645815  70.7451665  66.2279558  18.3175504
  71.7454749  65.1618099  18.7096107  27.0622349  73.9622974  19.1698360
  27.0545101  73.5906887  18.2877493  27.2738862  74.8865223  19.0385258
  50.4131633  52.3006105   0.3001344  50.0478250  53.0007315  -0.2407811
  51.3610464  52.3956871   0.2068239  78.9004216  10.3126846  62.9546465
  78.9172516   9.8707090  63.8035312  79.3540416   9.7123323  62.3630047
  65.7293244  11.0730148  31.4855146  65.8185502  10.1920963  31.8491697
  66.2704416  11.0621620  30.6960177  53.7882662  74.5314741  13.3645642
  53.8706970  74.3860769  14.3070590  54.3640375  75.2749205  13.1856513
  24.5708502   6.6162754  27.0224571  24.0042426   7.3454262  26.7703986
  25.3033485   6.6585613  26.4077282  28.0317431   1.7143656  23.3409524
  27.2024909   1.4121367  22.9705048  28.5568681   0.9193684  23.4329224
  68.8918158   0.6915689  22.8818822  68.9866730   1.6224838  23.0834532
  69.4779583   0.5463863  22.1391916  18.2568920  57.1106720  30.0081229
  18.8653553  56.4726543  29.6353745  17.4038494  56.6780138  29.9712491
  70.0529143   8.6678196  11.4543808  69.9270912   8.5789085  12.3991001
  69.1676994   8.6404396  11.0912311  27.4295954  16.2813412  50.7967493
  27.3086838  17.2291456  50.7395217  27.7983621  16.0352789  49.9484011
   2.8233463  58.4901237   9.2372757   3.4928530  57.8327560   9.4266325
   3.3181566  59.2767763   9.0079880  44.4739588  17.3038746   8.6234456
  45.3067084  16.8344761   8.5743022  44.7224089  18.2253338   8.6971462
  41.0989710  12.0214439  33.6494803  40.2788468  12.0439411  34.1425562
  40.8264836  11.9538570  32.7343774  78.9444239  69.3028021  28.3947062
  79.4491530  69.1903114  27.5892091  79.5861609  69.1943407  29.0965915
  10.1364900  74.6511063  37.7581331   9.9089028  73.8186273  38.1721589
  10.4724659  75.1906166  38.4738704  65.4822513  20.6562210  36.7801929
  65.1614329  20.5003239  35.8919358  66.4322921  20.5614735  36.7117929
  79.5394465   7.1725250  11.5807843  79.5932575   6.2446476  11.8096483
  79.0176626   7.5623489  12.2822165   4.3804163  70.3570127   6.4578533
   3.4792683  70.4945850   6.1658978   4.7473952  71.2384605   6.5257490
  23.7988234  72.9455090  11.1824214  23.5965276  73.2647276  10.3029847
  23.0021310  72.4951172  11.4628923  24.5030785  71.5668917  33.4910250
  24.8623848  71.2217283  34.3083334  25.0249481  72.3489475  33.3113694
  13.3527958  75.1270819  14.7612381  13.5483181  75.6096649  13.9580476
  12.5051451  74.7154713  14.5930231  75.8254519  62.2932816  29.0605044
  76.1581149  61.4341593  28.8007426  76.5288791  62.6733971  29.5867515
  61.9719597   0.1105286  33.9654732  61.3144442  -0.0497745  34.6423841
  61.6237541   0.8470608  33.4629750  60.1895952  51.6051626  16.1706805
  59.5002699  50.9464359  16.2551773  60.0863791  51.9473076  15.2826989
  47.0190164   2.7649570  14.7598052  46.6596480   3.1536938  15.5572832
  47.1274205   3.5038210  14.1610062   5.7903293  56.3349663  56.9602957
   6.3626794  56.5652977  56.2284526   6.2062720  55.5701481  57.3581430
  21.5755705  21.9374929  57.7084335  22.3410610  21.4491354  58.0113622
  20.8833937  21.2798391  57.6404986  42.0891497  24.1616092  62.3536843
  42.5586591  24.9929891  62.4214837  42.7601800  23.4949384  62.5003165
  21.7415285  50.8060026  12.1077144  21.9076514  50.6076288  13.0292797
  22.2685289  50.1680088  11.6266072  39.9107409  53.2779980  32.6892853
  40.2195978  54.1441822  32.4236512  39.0920901  53.1576586  32.2080779
  35.3352714  46.2876654  13.8517642  35.1954699  45.3944159  14.1660774
  34.8817110  46.3189125  13.0094242  26.2069083   9.1986252  44.0996122
  26.9638792   9.1400410  44.6825314  26.3043284   8.4548260  43.5050535
  16.2645471  58.0974388   0.3563339  15.4699147  57.5896835   0.5205807
  16.3990366  58.0326366  -0.5891529  32.5955963  66.0075092  33.1550097
  33.2292914  66.3232851  32.5108433  32.7066970  65.0567818  33.1541538
  21.5754678  37.8389145  11.7557287  22.0662373  37.0430733  11.5507746
  20.7231631  37.5238968  12.0566797  40.5083561  74.2127085   8.3871651
  40.1577759  74.1984797   9.2777383  40.6176853  73.2897949   8.1580251
  59.1046015  15.7741771  49.8206457  60.0568274  15.7773720  49.7232434
  58.9456180  16.2501322  50.6357667   3.3572516  68.9896822  20.8412480
   3.0714369  68.1244659  21.1344028   3.2089278  68.9832592  19.8956311
   0.8201221  56.2155376  53.9363369   0.5006222  56.3273273  53.0409857
   0.5227093  55.3416191  54.1894099  60.4425573  47.3431730  42.7645206
  60.5297709  47.1986914  43.7067270  60.6764698  46.5026999  42.3706675
  55.2586554   7.9984699  51.0040697  56.1605496   7.9907785  51.3246307
  55.0027611   8.9204393  51.0309717  41.5867901  54.9316931   1.1827191
  40.7792139  54.9399376   0.6689318  41.4680862  55.6298304   1.8267274
  13.5258917  29.3174253  62.3427594  13.1700806  29.3596731  61.4551520
  14.0058617  28.4896837  62.3692494   4.9522576  48.7537909  63.3441067
   4.1327989  48.6132383  62.8698015   5.2848947  47.8724575  63.5139322
  36.9604489  11.8467594  20.8481121  36.2105247  11.3646484  20.4996681
  37.7183791  11.3088966  20.6190515  44.2482289  26.6364838  21.8094134
  43.4996172  26.0406185  21.7818689  44.4493004  26.8111206  20.8900094
  67.1152708  54.9346195  46.7855844  67.7781722  54.8530517  46.0999164
  67.1730623  55.8476291  47.0672068  72.9541057   9.1729957  24.5285034
  72.8704840   8.2557416  24.2679572  73.2061195   9.1378540  25.4512644
  57.1371790  32.0152927  53.4653425  57.8392502  32.6508595  53.3261204
  57.5832673  31.2327362  53.7891340  36.0510039  20.7184362  14.0552676
  35.2792621  21.1919975  14.3657303  36.5703821  21.3801527  13.5985327
  24.7387981  42.6457167   1.2841649  24.2791677  42.8119087   0.4611512
  24.1390920  42.9595041   1.9610110  32.2515158  28.5410867  49.2323181
  31.3251928  28.4709535  49.0015968  32.5681166  27.6377664  49.2294511
  70.6126445  59.1474295  15.3100443  70.7017481  59.8811388  15.9182906
  70.4671138  59.5588779  14.4581270  42.7442652  74.0581369  11.1699903
  42.5949388  74.4561577  10.3123689  43.2015663  74.7334242  11.6710854
  68.8772759   5.3754364  62.2550919  69.4157944   5.2249752  61.4781800
  67.9997406   5.0939022  61.9964427   8.0327562  12.5104318  51.6911647
   7.3483042  12.8697000  51.1266431   8.5828451  11.9943271  51.1018702
  14.1035283  61.6938591  30.3071570  13.5036457  61.0968876  30.7543683
  14.4497073  61.1822605  29.5759511   6.4600154   1.8542410   4.2610949
   7.2688683   1.4634586   4.5916620   6.7183944   2.2876335   3.4476805
   9.8291846   8.4446503  33.4188461   8.9499386   8.0664326  33.4084344
  10.2345856   8.1306244  32.6105952  14.1591215  60.6841660  54.9107599
  13.3963144  60.7347298  54.3347406  14.6756423  61.4600277  54.6928644
  18.0626042  63.6510429  54.9263295  18.6743165  63.1809935  55.4929814
  18.3611197  64.5600972  54.9535653  60.8364091  34.6119724  57.6541135
  60.1119641  35.2373205  57.6728460  61.1035696  34.5274387  58.5693791
  36.3173556  63.3072138   7.5589287  36.1232090  63.3057690   8.4962314
  36.6427541  62.4249029   7.3803753  45.9510902  14.1325508  42.7722928
  46.4162449  13.8520180  41.9841525  45.0366930  14.2034422  42.4982783
  64.9540645  70.9668303  13.7904465  64.5252150  70.3326893  13.2158279
  64.2974764  71.1682129  14.4572067   7.7133054  50.4494762  39.4725323
   7.3696536  51.0740423  38.8337445   8.6133772  50.2881956  39.1895270
   8.2031731  22.9490791  46.9461462   8.4691171  23.0945383  47.8540811
   7.2579173  22.8059374  46.9934472  48.0518552   4.1106583   7.1500766
  47.1465226   3.8060356   7.2117931  48.2037040   4.5783545   7.9713154
  68.6914822  19.9539066  22.4823642  69.6398016  19.9408699  22.3529387
  68.4149881  20.8047939  22.1421266  58.6759072  65.0629568  11.1176240
  57.8517252  64.6785450  10.8189917  58.8550788  64.6277142  11.9511068
  12.6220906  74.8699331  36.1739492  13.2213378  74.7881603  36.9158697
  11.7533135  74.7323561  36.5514827  64.5810995  31.9112335  47.0330342
  64.6844611  32.5624166  47.7269432  64.1399107  32.3823915  46.3262150
  52.3668215  22.3949423   2.3976687  53.2164316  22.8042784   2.2338417
  52.3383200  21.6524878   1.7941979  41.4350935   6.9211651  24.1167307
  40.6738242   7.1732307  24.6393824  42.1816155   7.0557095  24.7005415
  30.6948638  52.6037645  28.2371688  29.7407889  52.6388407  28.1682825
  30.9911776  52.3899746  27.3524499  38.9278134   2.2581650  36.9403768
  39.3712946   1.5900351  36.4177299  39.4317635   2.3000551  37.7530956
  25.6596732  38.5296059  25.1978803  25.7883096  38.5139751  24.2494917
  25.6516075  39.4598746  25.4231906   3.5223004  22.7716875   5.9386057
   2.9092363  23.3631325   6.3751578   3.1259760  21.9052696   6.0307014
  27.7646685  72.4003363  30.2069974  28.6631656  72.6698542  30.3975129
  27.3064160  72.4864817  31.0429478  51.3346597  11.0330273  37.3427963
  51.3762828  11.7951752  36.7651939  51.2219282  10.2895428  36.7505550
   9.7234988  60.3849077   6.5511644   9.3521380  59.7997618   5.8909166
  10.5321360  60.7100534   6.1554152  22.4940225   5.7578541   7.4780881
  22.6728588   4.9968220   8.0304271  22.8205296   6.5024639   7.9832470
  79.1368732  67.9050541  39.8570657  79.1975493  68.5787153  40.5343580
  79.4585796  67.1094704  40.2810669  72.3019585  15.3003393  44.1824099
  72.8226504  15.8263861  43.5754630  72.9031119  14.6203647  44.4865176
  67.2263938  55.8224344  25.5652761  66.8501681  56.5294552  26.0894918
  68.0927962  55.6773376  25.9454417   6.7240854  13.6987854  27.4870014
   6.9522270  13.7153030  26.5575337   7.5603458  13.8035751  27.9407859
  21.6502714  73.6198902  19.0242720  21.4226413  73.0599642  18.2820463
  22.5917387  73.4922028  19.1407430  22.3231506  47.4559402  17.3871338
  21.6501212  47.1065331  16.8030298  23.1043816  46.9398737  17.1881747
  71.3354192  35.6212793  62.3156437  71.3353751  36.3917146  62.8836772
  70.4426918  35.2808414  62.3737129  79.4623074  67.6454960  65.5370251
  79.7787628  67.0577274  64.8510153  78.8881740  68.2599960  65.0798681
  27.8240668  24.6966053  24.0604138  26.9818793  25.0896431  23.8313437
  27.8089466  23.8363815  23.6408710  62.7494812  71.4104319  15.6857574
  62.1631241  70.8865547  16.2316239  62.1792841  72.0635128  15.2800536
  72.3991009   5.0299335  15.7954872  72.4465700   4.2846800  16.3942969
  72.1074291   4.6522642  14.9657142  71.7103622   4.3441425  55.9808299
  72.1813080   5.1573120  56.1630133  72.1733532   3.6797367  56.4911589
  79.2935405  20.8323990  47.5798830  78.5755024  20.8123289  46.9472322
  79.6283278  21.7279611  47.5338790  67.6385031  21.3310419  54.0288362
  66.7755768  21.0273872  53.7470874  68.1672428  21.3237940  53.2309553
  11.9448054  25.8511615  46.7632580  11.7341614  25.1697588  46.1248589
  11.5727448  25.5322695  47.5855160  74.2609963  32.0726763  58.7250045
  74.6303305  31.3784347  58.1792506  73.6449656  32.5269972  58.1502595
  59.5656677  45.5155731   4.4805172  59.5790096  46.3302780   3.9782205
  60.3778382  45.5329968   4.9867851  49.8341986  22.5324131   6.3092065
  49.2277499  21.9409252   5.8635628  50.7018300  22.2435165   6.0263944
  28.6540723  75.6085634   1.0580508  28.8568974  75.1070642   1.8477310
  28.2647657  74.9690819   0.4616123  27.9459691  72.0784378  27.4330378
  26.9946909  71.9923115  27.3706961  28.1053996  72.3187494  28.3457613
   7.2323209   7.8109682  27.0972514   6.4930201   8.3269364  26.7756248
   7.6896328   7.5282431  26.3053131  63.6214542  74.7373343  37.5053215
  63.8885307  74.5724249  38.4095931  62.7176142  74.4252300  37.4618196
  29.4643569  54.7612762  18.3703756  28.7114477  54.8288393  18.9575672
  29.6848011  53.8298035  18.3697760  35.6214333  63.7721682  -0.3430204
  36.4940619  63.8992929   0.0292549  35.0805259  63.5052204   0.4002085
  28.2187466   2.9701458  57.8027436  27.7633242   2.2471987  57.3712745
  29.0614275   3.0253635  57.3521140  63.7453457   7.5412823  34.6453929
  62.9721113   7.8103424  34.1494584  63.4054371   6.9495178  35.3165889
  56.9897795  54.9536467  22.5997853  56.5859652  54.8685312  23.4634542
  56.2508297  54.9905682  21.9924784  32.1321511  44.7420359   5.9757704
  32.1271420  44.3231916   5.1150858  31.5869999  44.1750240   6.5212429
  29.1506819  10.8133493  53.7479529  29.3664268   9.9634586  53.3640608
  28.6135153  11.2464128  53.0845198  10.3287915  70.1549183  54.6740100
  10.8908275  70.7910953  54.2317149  10.8577732  69.8354183  55.4049900
  66.1829420   7.9856945  16.1009645  65.3419372   7.7251316  15.7253921
  66.7533871   7.2304607  15.9579718   8.3430755  58.3941031   4.8787758
   9.1811770  58.2726336   4.4326115   7.9601759  59.1666222   4.4630381
  71.4764845  36.2142015   0.5467670  72.0106178  36.9636393   0.8099746
  71.7477113  36.0308886  -0.3527127  76.0959390  12.5481951   7.9264790
  76.0168269  13.4915972   8.0677778  75.2054232  12.2606587   7.7251416
  10.7916535  75.1998243  62.5044763  10.1716245  75.5966530  63.1162974
  11.3159789  74.6085748  63.0446024  71.2660068  19.4179833   2.8231189
  71.7586171  19.4239032   3.6438090  70.4509878  19.8754883   3.0296740
  67.6622921  56.7470503  12.7096951  68.0944544  56.8494511  13.5576224
  68.0737561  55.9741640  12.3229444  20.3546929  38.3895350  17.1471584
  20.9356046  37.8022099  17.6307118  19.7040474  37.8100371  16.7508292
  65.0396663  14.1410923  21.1665654  64.3871993  14.3200672  20.4894471
  64.8357206  13.2556570  21.4676332  74.0372431  32.3556042  46.1461449
  73.5894847  32.4847674  45.3100491  73.4488249  31.7919111  46.6483879
  11.2509135   8.7176452  41.0180494  12.1136788   9.0792023  40.8152053
  11.3587860   8.3075987  41.8762204  21.2674172  71.5156088  58.1693211
  20.8520515  70.6567035  58.2466760  21.5335776  71.5711579  57.2515496
  62.9534429  36.1899209  13.4211504  62.2798937  35.5169559  13.5195482
  62.8098494  36.5461135  12.5443733   2.9730848  10.3261314  64.4360483
   2.9890589  10.7538114  63.5798567   2.1504144  10.6135784  64.8320522
   4.4186929   6.9014049  39.7938967   4.6692443   7.3821896  40.5827570
   3.6739725   7.3893481  39.4424200  23.1707501  53.4967470   5.2615356
  22.6677728  54.2691135   5.0032771  23.3013153  53.6001253   6.2041366
  70.5998289  63.1677628  14.9147046  71.1093145  63.8608694  14.4948745
  70.0958699  63.6180353  15.5925751  44.7819376  52.7808952  16.9971335
  44.9845743  52.3709154  16.1562490  45.1017904  52.1585464  17.6502860
  35.7980204  31.4635563   0.3583759  36.6799116  31.5287757  -0.0080189
  35.3409910  30.8567309  -0.2239641  60.8283138  59.0056849  57.3016310
  60.0633335  58.6910629  57.7833557  61.3133144  58.2115507  57.0772314
  79.1959041  20.3609610  27.0600605  80.1513782  20.3681970  27.1170592
  78.9013659  20.4035711  27.9698205  10.4958824  23.7385450  45.7135650
  10.5277971  24.4080959  45.0302574   9.5830230  23.7334715  46.0014757
  60.8505477  67.9777989  44.5769188  61.3164533  68.7210784  44.9599334
  59.9612082  68.0480275  44.9238702  15.2076709  53.6439753  39.0600061
  14.5403373  53.9813662  39.6575546  15.9436071  53.4148693  39.6275783
  65.2428728  28.5319257  22.8565359  65.3516096  29.1499352  23.5793567
  64.6541482  28.9772487  22.2471738  67.9046005  58.7820244   5.1722288
  67.4070519  59.5518923   4.8965856  68.7502485  58.8735723   4.7332174
   3.2380084   8.4507643  28.9607760   3.0309347   7.8105722  28.2799598
   2.6098207   9.1595493  28.8220927  27.5878692  59.6482468  13.6126256
  27.7075028  58.8606834  14.1433394  27.7721381  59.3640471  12.7173555
  45.8251919  68.2498917  57.1170971  46.5073479  67.7114401  56.7158934
  46.3038887  68.9400491  57.5761887  62.9394489  18.6426425   0.6603366
  62.5782782  18.1534207  -0.0788859  63.2813424  17.9695988   1.2488550
  72.6612506   6.8838201  59.2667344  71.8855581   6.6339193  58.7646553
  72.8149364   7.7986131  59.0305933  22.9136086  34.8628354  33.7765598
  23.7302327  34.8279119  33.2784271  22.2706103  34.4327116  33.2128406
   6.9169978  23.5103212  64.6515994   6.5986995  24.1930233  64.0609745
   7.2085050  22.8077303  64.0705464   1.7586640  21.8141352  38.0514285
   1.9676403  20.9832416  38.4782573   1.7998175  21.6194378  37.1151420
  61.6088334   7.2414003  51.8512460  62.1396766   6.6236196  52.3540231
  61.8817053   7.1082006  50.9434852  71.3275814  39.6843910  10.5962026
  71.3887256  39.2617393   9.7395474  70.4570716  39.4495177  10.9175742
  10.1500857  35.1858497  48.9207649   9.5967221  35.4333496  49.6615505
  10.8157921  35.8723903  48.8791847  18.8544698  53.8712153  63.0716672
  18.6473126  54.6033809  62.4909344  18.5282649  53.0991266  62.6093885
  38.1839538  75.1207924  36.8397808  37.9972124  74.4715023  37.5178552
  38.7290382  75.7744837  37.2777295  60.7991343  59.3892002   2.0504011
  60.8590561  58.4462833   1.8969448  61.4198428  59.7726297   1.4307755
  64.9447966  29.2240453   8.1110948  64.5503902  30.0539660   7.8429282
  65.4418516  29.4390488   8.9003593  43.9704368  57.7703749  20.1860023
  44.3115685  57.3257171  20.9619784  44.7248814  57.8449797  19.6016395
  33.9947438  42.2276497  25.9510493  33.4503722  42.9261017  26.3144445
  34.7608471  42.6801395  25.5980992  21.5295196  42.5443411  39.7716045
  20.8042598  41.9865036  39.4904518  21.4439440  43.3350372  39.2389631
   7.6786673  53.5846949  14.8134470   7.8095114  53.4442997  15.7512105
   8.0653685  54.4436789  14.6436143  47.9324016  30.5826174  60.5451819
  47.3997632  30.3528105  59.7837898  48.7408698  30.9360014  60.1740601
  44.0569862  22.5010372   3.8810915  44.5697197  22.6518703   4.6751860
  44.5799371  21.8813492   3.3724272  48.2722343  35.9209098  57.4734208
  48.7645758  35.1154995  57.6319995  48.2190956  35.9853317  56.5198704
  11.2109900  53.1464005   5.3008002  10.8253932  53.9563656   4.9668866
  10.5138278  52.7454472   5.8198702  65.5917307   6.1161114  13.0061734
  65.4723903   5.6259323  12.1927142  65.3582212   5.4953266  13.6963415
  59.5245532  33.5360847  53.4689709  58.8212893  34.0331207  53.8868341
  60.3283558  33.9010034  53.8390609   3.2386202  51.2711716   2.3247084
   2.5229031  51.1752605   1.6963917   2.9524547  51.9738531   2.9082978
   7.6309782  34.1543126   3.9084235   8.5249037  33.8581371   4.0799126
   7.3526883  34.5630026   4.7280321   6.3339070  10.6354986  56.1455306
   5.8718041  11.0665165  55.4265603   7.1089152  10.2511106  55.7358464
  59.4732608  70.8608637  55.6076374  59.2725958  71.4318213  54.8660347
  58.8544692  71.1257944  56.2881824  29.7032769  59.2088423  62.6998356
  29.9200917  59.5059070  61.8161070  29.3670551  59.9898944  63.1393194
  17.1009779  14.2182040  25.4119205  16.9142532  14.2931128  26.3477373
  17.7923727  13.5584581  25.3576994  34.0752935  44.8657274  28.1193876
  33.1542540  44.8808956  28.3795547  34.1629958  45.5954266  27.5061297
  24.7817883  14.3359028  42.7066299  24.7294340  14.0700517  41.7885801
  24.7693906  15.2926527  42.6800033   0.1928548   3.0804334  56.9872591
   0.5775837   2.5096212  57.6523819  -0.5095693   2.5578056  56.6003528
  21.5754819  50.2924442  17.6988792  22.3080564  50.9063959  17.7501845
  21.9355559  49.4631147  18.0131865  17.0961487  56.9795179  18.3912730
  17.0509136  57.2172976  19.3173659  17.7732515  57.5515223  18.0299234
  32.2345862  41.9003759  38.9360544  32.8606329  41.4289890  38.3864257
  32.3493609  41.5224968  39.8079893  26.0602498  30.6352615  38.1191683
  25.5538726  29.9089599  38.4829021  25.4212570  31.1490965  37.6253104
  47.6747218  69.8333799  58.2611990  48.0769715  70.5838709  58.6984491
  48.1119588  69.0717315  58.6419153  53.2589074  32.6281915  64.8512438
  52.5621538  32.5208507  65.4987340  52.9403241  32.1636520  64.0773323
   4.8746943  49.9119711  34.5660758   5.4381049  50.2230072  33.8575149
   5.2924651  49.1053057  34.8677230  65.4031834  16.8238769  29.6473500
  64.8341248  17.5698267  29.4577166  66.2902937  17.1627126  29.5271131
  55.2241958  52.1210358  55.4301938  54.4219316  52.4642596  55.8236405
  55.7591594  52.8966949  55.2616772  69.3815487  68.1155539   7.3259056
  69.9212545  67.3665619   7.5788206  70.0116509  68.7904596   7.0735198
  31.6418318  15.8096586  60.7087427  31.5328077  15.1152025  60.0590667
  31.9741396  15.3605114  61.4859631  75.4918799  23.6652742  40.3388712
  74.7850308  23.0262552  40.2480480  76.0977301  23.4548794  39.6283004
  37.5070667  24.7606087  21.1853957  36.9941974  24.3505716  21.8818617
  37.7793002  25.6018806  21.5519786  51.1567814  10.2806078  31.4327666
  51.6435609   9.5218168  31.7545029  51.0722168  10.1293407  30.4913851
   9.0112066  64.3631315  21.1247468   9.0734196  64.9346209  21.8900990
   9.4472110  63.5545063  21.3935566  75.8218771  69.1118193  29.0514898
  76.7412531  69.3737268  29.0026426  75.3623190  69.7473145  28.5026884
   7.2731483  38.1465030  11.8569815   7.0869493  37.5913239  11.0997903
   6.8537980  38.9817953  11.6504359  14.9519229  53.2336664  16.8763065
  14.5076108  53.2957125  16.0307479  15.4714608  52.4320221  16.8156183
  17.8654051  56.3996792   6.7760944  17.6301861  55.5521154   7.1536314
  17.8142917  56.2629747   5.8300865  37.1181298  72.4632058  43.5532614
  36.7497791  73.3195076  43.7707421  36.4869804  72.0784268  42.9451296
   5.5215949  25.4865289   6.8151027   5.5700082  24.9528575   7.6082504
   4.8327601  26.1254954   6.9980264  17.9321361  38.8488603  46.5227413
  17.7052069  37.9504728  46.7628145  17.0886874  39.2894149  46.4191246
  55.7569929  10.6450630  41.2840033  55.0990173  10.4898621  40.6063509
  56.4474794  11.1366917  40.8392906  15.1672935  44.9967051   8.2676351
  15.9502840  44.5223141   7.9881531  15.0377560  44.7299910   9.1777533
   2.3272960  50.7173681   5.6903017   2.8567597  51.4867306   5.4805803
   1.6237816  50.7266140   5.0412917  44.2102843  49.2504406  19.1082621
  44.0960651  50.0838184  19.5650637  44.5078259  48.6442614  19.7866774
   1.6592635  71.4235592  24.8401594   2.1803571  72.1764803  24.5612288
   0.7744536  71.6166067  24.5301986  71.9734031  69.3110657   9.6816194
  72.8562689  68.9419699   9.7050607  71.7616868  69.3666077   8.7497807
  49.2174455   2.1840168   5.3808516  48.8059231   2.7277256   6.0526109
  48.6934324   2.3371626   4.5946014  62.4822709  29.3535553  55.0570580
  63.3447931  29.2611633  54.6523973  62.4327085  28.6310278  55.6829408
  12.9695106  28.0856872  22.4797392  13.2692301  28.9632773  22.2425961
  12.5473142  27.7544546  21.6871047  22.8942847  60.0599146  21.6034913
  22.0129538  59.7095203  21.7327833  22.7864027  60.7403612  20.9389758
   3.9678410  10.1064382  53.3920178   4.0764836   9.2767225  52.9272553
   3.0767945  10.3846966  53.1802568  17.7818644  58.0721664   2.8700960
  18.6589158  58.0402851   2.4879995  17.1915972  57.9658842   2.1240932
  65.7563529  12.4875627  57.2160527  64.8684666  12.5852714  56.8720421
  66.2193749  11.9860445  56.5449896  32.8044891  56.1267900  16.6282511
  33.3630395  55.5296612  17.1259332  33.3909059  56.8328953  16.3566530
  31.8405938  20.0060058  18.2694829  32.4053168  20.6287193  17.8117204
  32.4347615  19.3160748  18.5647690  13.4276056  52.9444075  22.3416424
  13.2982635  52.9479551  21.3932276  12.8602624  52.2414160  22.6581168
  47.9966892  52.4645231  58.0616984  48.8138975  52.0160422  57.8442851
  47.3790802  52.1761081  57.3896804  65.4210589  10.1894508  55.3106239
  64.8613045  10.7969461  54.8270365  66.3045606  10.5424438  55.2054831
  75.7285115  68.6158371   3.7659624  76.6508606  68.6054516   4.0216884
  75.5655789  69.5189524   3.4938020  12.8889918  28.8042259   5.7831812
  12.8005898  29.7509956   5.6734478  13.6407995  28.5692358   5.2393085
  28.6447245  75.2294025  63.1797661  29.2160968  75.2281008  62.4118051
  28.2336576  74.3649826  63.1739245   2.6574403  71.1284637  52.9311800
   2.5878367  70.5455875  53.6872530   3.5049236  70.9144974  52.5410223
   4.8607806   8.4645496  12.8624221   4.6741227   8.2511984  11.9481584
   4.0510944   8.2541643  13.3275863  10.2976191  25.9358144  22.3199224
  10.3809094  26.8887281  22.2846079   9.8488617  25.7651377  23.1480050
   0.7085730   9.9489892  28.4176278   0.1413546   9.4894403  27.7985072
   0.8048784  10.8267474  28.0481720  19.2438567  37.5757909  10.0317490
  18.9698708  38.3794785   9.5898783  18.4633327  37.2831154  10.5022323
  77.8014222  51.5544558  27.7909994  78.0336493  51.0640287  28.5795307
  78.1026514  52.4460030  27.9660439  43.5977226   6.3706160   3.0503598
  42.8604537   6.0475039   2.5324178  43.2015043   6.9691283   3.6836252
  71.8406093  37.8091192   5.7461560  72.4624920  37.3310256   5.1975960
  72.2671789  37.8622079   6.6014057  15.1301565   2.9859091   7.5532037
  14.6942320   3.8315893   7.6581991  16.0069027   3.1221605   7.9123396
  24.3083501  70.7060671  30.0304103  25.0594401  71.0260296  30.5301332
  23.9799690  71.4786577  29.5705199  13.1283573   2.6822601  43.0857774
  13.4823135   3.5607467  42.9472157  13.6188797   2.3416363  43.8338372
  14.2580211  30.1516199  21.4479852  15.1678360  29.9945879  21.1953807
  13.9444077  30.8032823  20.8209157  38.2014748  10.8005024   2.3948500
  38.9945575  11.1931206   2.7596831  38.4824201   9.9411369   2.0805335
  27.2162680   2.4152647  51.1819002  27.7709488   1.9587527  51.8144759
  26.9034532   3.1883608  51.6516933  44.7774025   1.2501408  53.0767298
  45.4857548   0.8684183  52.5583124  45.1442226   1.3364340  53.9566326
  24.2347343  62.8670368  56.7296651  24.7096672  63.2187018  55.9766695
  24.5236279  63.4043464  57.4672767  67.2837397   2.9381825   5.5320358
  66.7704817   2.2101618   5.1816291  68.1652256   2.5805117   5.6382686
  15.4540420  41.7480993  13.0494785  15.1987433  41.1379099  12.3575807
  14.6273673  42.0105553  13.4543967  43.9156675  75.0080061  32.8120875
  43.7018204  75.1884222  33.7274861  43.0987692  74.6810484  32.4352431
  54.8689175  54.4089270  20.8510232  54.1083527  54.9781704  20.9682250
  54.7315788  53.9984608  19.9972725  65.6053740  32.1669221   9.5514822
  64.7280198  32.4615455   9.7957790  66.1475557  32.9534698   9.6116149
  12.5496057  36.8362032  63.0135646  11.7755822  36.4647899  62.5902802
  13.0016950  37.3082672  62.3142770  29.3639398  60.4973125  24.0878773
  28.8223004  61.2350273  23.8074613  30.1533198  60.5617809  23.5503340
  15.9585023  60.7429409   0.4448824  15.6764591  61.0939169   1.2895712
  15.7906055  59.8026991   0.5080850  48.2558216  57.2531471  48.5683295
  48.7690295  57.0643136  47.7827141  47.6097454  56.5479693  48.6075994
  66.2472817   5.2592636   6.2878877  66.5560242   4.3797041   6.0704345
  65.3763004   5.3114868   5.8943200  63.3126879  50.1707125  43.6354923
  62.6070023  50.3957605  44.2417955  63.5190868  49.2578840  43.8364172
  34.3759418  70.0044966  13.0784130  34.6930313  69.1263485  13.2894552
  34.7941399  70.2159929  12.2437799  17.4050955  32.7828775  61.9803235
  17.6502565  33.6152302  62.3844424  18.1737188  32.2244392  62.0969218
  38.0301384   1.0368429  54.5616337  38.9836363   0.9528266  54.5653614
  37.8694347   1.9519983  54.7916254  79.1767487  45.6212459  47.4283013
  79.0256224  45.5076443  46.4899573  79.7551594  46.3816295  47.4874171
  45.5911446  66.3880253  20.8238339  46.1474133  65.6497097  20.5754709
  45.9520102  66.6900349  21.6573763  40.7003876  17.3979832  37.1496940
  39.9620935  17.9586197  37.3881173  40.5999776  16.6222168  37.7013540
  40.6939507  70.5059576   2.5435784  40.5379438  69.5617914   2.5224578
  40.0833511  70.8640766   1.8992585  28.6753559  70.5704832  16.1377633
  29.1732955  70.0658178  16.7808795  28.1059241  69.9264669  15.7167900
  36.6686106  18.8588405   7.0872170  37.6111507  19.0257192   7.0874739
  36.2718391  19.7258794   7.1711588  40.3721476  64.1125870  16.8721712
  40.3448391  63.2229662  17.2243857  40.4706001  64.6722364  17.6424515
  25.6772971  66.7848349  14.9921477  25.3724122  65.8794785  15.0521839
  25.3816319  67.0805311  14.1311145  23.6613154  50.0955200  25.5513597
  23.1319618  49.9577951  24.7658324  23.5231495  49.3060780  26.0747337
  74.6988153  53.6903715   1.0117959  74.7450697  53.3513117   0.1178538
  74.1142308  54.4459152   0.9514428  16.5090135  19.3947302  58.5993877
  15.7105926  19.1544090  58.1292811  16.5592054  20.3468881  58.5150775
   0.2602793  37.1934462   1.0054691  -0.2356423  37.9014993   0.5944261
   0.4506344  37.5146461   1.8868479  66.9836459  11.3939892  29.1753289
  67.5559745  10.8052955  28.6832806  67.2394726  12.2709881  28.8895723
   5.8578328  37.9194246  61.3273495   5.3935508  37.4132191  60.6606915
   5.8905891  38.8082348  60.9735459  53.7668607  17.9245649  50.1654467
  54.3536923  17.3535429  49.6696731  53.2710987  18.3971296  49.4967660
   9.1187147  23.7884794  54.8954615   9.8161749  24.4432245  54.9285158
   8.4738163  24.1558157  54.2909750   2.1989349  14.3812071  46.3571164
   2.0486263  14.6587168  47.2607907   3.0874399  14.6778236  46.1601147
  69.9243924  36.7209087  31.7111990  69.4632146  36.8819557  30.8880278
  70.8044789  37.0675312  31.5644571  71.9386599  54.4173370  63.4064193
  72.6897583  54.5634399  63.9815161  72.3244092  54.2493664  62.5466427
  72.9920432  70.4820762  64.0459481  72.6311657  71.0036598  63.3290490
  73.2690344  71.1277233  64.6960600   3.5700420  40.0389896  52.0850286
   2.9871587  40.6380878  52.5514659   4.3242005  40.5772196  51.8446407
  21.9455624  41.7855215  29.6345806  20.9952521  41.8833637  29.5748186
  22.2884083  42.3482132  28.9402699  30.3932047  55.6687784  15.7775068
  31.3318920  55.7479668  15.9473014  30.0002265  55.5720091  16.6449380
  50.6616020  67.8276348  35.3942704  50.2621460  67.1802521  34.8132682
  51.4609146  68.0954933  34.9408579  27.4014258  70.6199884   8.3126587
  27.1346998  69.7008419   8.3288038  27.9221511  70.7042789   7.5139278
  21.8309641  44.8489809   3.4826496  22.6025629  44.7852564   4.0455067
  21.2706995  44.1246557   3.7613735  34.4936470  73.6633049  64.7847433
  35.3987125  73.6420856  64.4738711  34.4227079  72.9070984  65.3672854
  38.3673835  65.6045341  21.6276050  37.5516629  66.1052990  21.6359711
  38.1826663  64.8367786  22.1685886  21.9554571  16.6053520  61.3906091
  21.3368610  17.3061548  61.5966433  21.4400152  15.8020197  61.4627698
  18.2691169  59.3979216   5.6382531  18.6088371  60.2905607   5.5748457
  18.5473228  58.9774132   4.8246166  27.3413181  58.9999437  26.8537688
  27.4780107  58.0723000  26.6613579  28.2049775  59.3974018  26.7426324
  70.0338552  28.0931984  62.5148487  69.9393675  27.2767626  62.0242008
  70.9726772  28.2785688  62.4928582  21.2537479  65.6658602  24.0000629
  21.3844681  66.0523462  23.1341696  20.3886580  65.9729242  24.2712879
  69.5885918  44.5793091  62.2651294  69.7383270  44.8730694  63.1637490
  68.9288053  45.1824032  61.9227922  28.4120059  59.9162912  39.5974541
  28.1740856  59.5284081  40.4395819  27.5764942  60.0451517  39.1485143
  28.2956100  65.2792645  27.1546149  28.0421066  65.6314611  28.0078006
  29.0912509  65.7589865  26.9242811  61.7832044  12.5602089  40.1003000
  62.5040278  12.2621713  39.5454857  62.0483557  12.3186670  40.9877607
  56.9089481  21.4546181  16.9590437  56.9873425  21.1187817  16.0661256
  56.9996759  20.6806255  17.5148678  45.4141617  62.5492525  10.8084321
  46.0410738  62.8952360  10.1732087  44.5579910  62.7085829  10.4111624
  58.4916595  40.9572922  50.6030568  57.8911880  41.3779054  51.2184831
  57.9843525  40.8685241  49.7962186   8.8964921  62.2614193  18.6695516
   9.3821549  61.9810820  19.4452918   9.5244902  62.1807194  17.9516816
  61.8485403  59.1009426  41.6775084  62.3025179  59.9295855  41.8307638
  62.0408773  58.8877869  40.7643795  48.8178106   1.4598347  27.1240950
  49.3180033   2.2676540  27.0080256  49.2724105   0.8164288  26.5804029
  52.1058842  62.4735676  52.6893577  52.6447500  63.0950294  52.1998235
  52.6791837  61.7206035  52.8328630  63.8075433   7.0230470  24.3835947
  62.9387632   7.0409189  23.9821836  64.4024846   6.8316637  23.6585781
  66.6840932  26.8069635  49.1453251  66.3200102  27.1376167  49.9665102
  67.4394188  27.3695741  48.9744898  33.2725310  72.4496889   6.4333177
  33.9410114  72.0032692   6.9530016  33.7657642  73.0459452   5.8699077
  75.9511816  67.3741579  39.0188527  75.7867810  68.2197237  39.4362521
  76.3777092  67.5947046  38.1908035  43.4916878  57.5283766  28.1720209
  44.1004992  58.1615829  28.5523248  44.0349436  56.9892311  27.5971937
  49.8152256  47.8450346   8.7281400  49.0578365  48.4038973   8.5541576
  49.4550800  47.0931196   9.1984028  61.6128725  51.7976475  20.3742075
  62.5481552  51.7111158  20.5585718  61.1842793  51.5759277  21.2008762
  30.0849108  54.8232113  59.4276532  30.3592209  54.4559799  60.2679682
  29.8072056  55.7153831  59.6353695  38.8834333  57.5971031  20.8500814
  39.0757751  57.9974556  20.0021696  38.3627462  56.8227625  20.6367350
   6.6481233  42.7491283   8.6109573   7.1419805  42.1188879   8.0864280
   7.1748543  42.8678370   9.4013333  69.8885176  20.4593359  62.8330563
  70.1189790  20.3106199  61.9159946  69.4088886  21.2876879  62.8281875
  28.4036279  54.9223185  24.0948892  27.8042769  55.5205059  23.6485887
  28.4270191  54.1455460  23.5360408  52.4151052  52.6761625  48.1314239
  52.7802790  53.2472954  48.8072106  52.8844703  51.8487522  48.2378182
   1.9852976  42.3981701  52.9980084   1.8617920  42.1578584  52.0797333
   1.1444763  42.7708851  53.2632193  14.5266902  29.1113472   9.2909217
  13.9197862  28.7873816   8.6253798  14.8479617  28.3219624   9.7266799
  53.4960576   5.4614712  40.0281191  53.2449528   5.1231743  40.8876181
  53.9285108   4.7240616  39.5974851  79.7351484  63.0323648  18.3753777
  78.9828122  62.6610470  18.8361871  80.1326248  62.2865915  17.9258573
  44.1270050   5.6796146  12.0365071  45.0352200   5.8341766  12.2962928
  43.7938782   6.5460945  11.8031108  53.2159795  53.2916281  56.8154797
  53.5755242  53.4041009  57.6954278  53.3357133  54.1441617  56.3970497
  31.0779452  59.9417830  12.9909492  32.0340514  59.9690199  13.0277336
  30.8022332  60.8113337  13.2809365  45.9968241   7.7675892   9.0706629
  45.9694930   6.8107868   9.0660298  46.4881905   7.9969765   8.2818866
  43.3518991  16.2022339  55.3652707  43.5214064  16.9696365  55.9117028
  42.4217222  16.0169779  55.4944315  73.9510784  20.4781566  24.2830154
  74.3210182  20.4843078  23.4002134  73.9338646  21.3995157  24.5419189
  60.1118437  25.4562650  52.7392039  60.0309113  26.4076315  52.6714834
  59.2362789  25.1583610  52.9859265  72.9090696  70.5883026  30.1293349
  72.2530561  70.4518318  29.4457746  73.3643526  69.7489023  30.1953697
  27.2905707  53.8243294  16.7562544  27.8390813  54.6071482  16.7056870
  26.8066669  53.9234877  17.5761557  32.5249410  70.6383371   4.0312243
  31.8343902  70.0783157   4.3858340  32.6757860  71.2932825   4.7127843
  58.5202548  44.6400390  44.0174839  59.4550488  44.4501434  43.9379212
  58.1485716  43.8517986  44.4134041  31.9192076  71.2620211   9.8812151
  31.2519765  71.4370155  10.5448496  31.6170168  71.7365551   9.1067940
   1.8642644  53.5602985  17.6807377   1.5069679  52.8787647  18.2500145
   1.3024048  54.3198143  17.8346559  12.8696501  67.6563406  27.3980808
  13.2679069  67.3664474  28.2188034  12.4893260  66.8621588  27.0227718
  55.5256292  19.1309334  26.3293219  54.9318930  18.9991547  27.0684695
  56.0886403  18.3568359  26.3333893  11.8762720  43.8161135  10.7457614
  11.7186129  43.2840490  11.5256846  12.2013474  44.6496058  11.0861301
  65.4681540  37.6583219   7.4525023  65.1266527  38.3735490   7.9892135
  66.2602520  37.3738432   7.9084462  24.5155573  57.8612328   7.4401176
  25.1945734  57.5004435   6.8700296  24.8251891  57.6778793   8.3271015
   1.1213187  40.5135952  57.7987525   1.4605264  40.9046827  58.6038753
   1.0430769  41.2482248  57.1901211  25.1834321  50.8353090  13.9983499
  25.3698206  51.0884666  13.0942476  25.1771188  51.6613531  14.4819260
  20.1393703  37.1597038  43.4915373  19.4839338  37.8425775  43.6340925
  20.3687958  37.2374998  42.5655004  54.9038267  69.0244102  19.8454273
  54.1443157  69.6061659  19.8147988  55.5102444  69.3880749  19.2002630
   4.7531132  26.0599933  50.9410724   4.2468671  26.7000662  51.4413246
   5.6663135  26.2873350  51.1160382  53.9050933   8.4732414  20.1780438
  53.9580651   9.4244648  20.2708030  54.1858002   8.3042980  19.2786598
  17.0631174  43.9817463  55.3305909  17.2076753  44.7979008  54.8518118
  17.9418663  43.6329590  55.4802087  12.3299971  46.6559959  19.9368715
  11.6649475  47.2540451  19.5958734  13.0901709  46.7960716  19.3722939
  61.6455793  74.8553896  27.3876190  62.0106649  74.1196489  27.8791738
  61.4153528  75.4998684  28.0568504  27.7074150   2.7162920  62.7106744
  27.6231293   3.6026035  63.0622127  28.1137995   2.8366791  61.8524262
  33.8579369  69.5583725   7.3441166  33.8288522  70.2535200   6.6867298
  34.2491555  68.8134146   6.8878078  20.9366336  27.0101524   5.9695518
  20.2624240  26.9434334   6.6457325  20.9604182  26.1413551   5.5684829
  58.0805063  62.4863768   6.4386421  58.4438610  61.6061211   6.5353549
  57.1336508  62.3516512   6.3992453  78.8613210  63.2359838  27.3610830
  78.5298624  63.7197018  26.6045237  79.3548878  62.5083685  26.9826627
  11.4592818  56.8929992  34.7881385  11.9873814  57.5476013  34.3311521
  11.8441323  56.8431412  35.6631443  43.5023928  38.6783266   4.5080698
  43.6039686  37.7416658   4.6771318  44.3968868  38.9996076   4.3945572
  69.4463838  48.8882324  57.4622026  70.1760687  48.7646196  58.0692532
  68.7126697  49.1479764  58.0193654  79.3305454  55.3368378   3.9928460
  78.7654680  54.5879412   3.8029101  79.0238186  56.0243416   3.4016725
  13.2029390  72.8687525   2.2071832  12.9217088  71.9968510   1.9298130
  14.0957487  72.9504013   1.8718369  26.2574935  44.8781300   3.9296389
  27.0362759  44.6549511   3.4198141  26.1174273  45.8092928   3.7577459
  63.0279064  52.6442862   7.4115986  62.1786690  52.6102495   6.9712907
  62.9210901  52.0856285   8.1814837  70.4308952  43.4350303  58.0615255
  71.2357296  43.4485498  58.5794923  69.8689426  44.0903852  58.4749868
   1.9495542  71.3328752  44.5545217   1.7851598  71.0436592  43.6569926
   2.8695066  71.1191997  44.7103068  36.9200015  47.2484541   8.5955274
  37.0362973  46.3226175   8.3821559  36.8946457  47.6886940   7.7459502
  32.9501390  43.8166523  11.3813317  32.4584627  43.0742788  11.7325675
  32.7267265  44.5466423  11.9587684  14.9644923  43.3167744   0.2950841
  14.9746382  43.2073832   1.2459587  14.1098762  42.9811525   0.0244874
  17.2582293  47.9686403  18.4722364  17.3801970  47.0653248  18.1800354
  17.6567769  48.4993649  17.7825081  34.8583627  68.7633371   2.7499759
  34.6376252  67.9470253   2.3014870  34.1396904  68.8992786   3.3674413
  66.2781620  40.6876373   2.6394451  66.6695595  41.3422632   3.2178110
  66.3276720  41.0785389   1.7671049   7.9387611  42.0742607  19.8004234
   7.6237243  41.8151236  18.9344943   8.0559057  43.0222702  19.7388637
  35.2565837  51.6643763  30.4554796  35.6100535  52.4810934  30.8079934
  34.3141294  51.8191004  30.3916574  41.6214609  29.5296907  16.0764611
  41.4640522  28.6401892  15.7598495  41.6122293  30.0702286  15.2865481
  76.9191087  73.3624825  56.1907890  76.1529936  72.9767833  56.6156807
  77.1044220  72.7785764  55.4553011  16.0003046  17.3453604  52.3984334
  15.2338842  17.1736704  51.8512985  16.7335991  16.9765697  51.9059893
   9.0662507  20.1988636  51.4728877   9.2749552  19.7093759  52.2685477
   8.2159666  19.8564945  51.1971542  71.8258891  41.8457351  64.4758872
  71.6562304  41.3185440  63.6951735  72.0357272  41.2057863  65.1560822
  72.7934763  48.5103164  53.8121995  73.5077605  48.2820736  53.2172724
  73.1406340  48.3261715  54.6850130  53.0430895  35.6912827   7.7780128
  52.1786958  35.3381181   7.9885703  53.3836633  36.0060906   8.6153513
  53.8827181  45.5736732  13.2492948  53.0979729  45.8981752  12.8075910
  54.3657494  45.1069784  12.5673044  18.8028053  26.1976562  52.7689716
  18.2774071  26.2509142  51.9706282  18.1597332  26.1675440  53.4773418
   3.7789446  63.1130457  26.4922357   3.8273904  63.8555145  25.8900499
   4.5223719  62.5603342  26.2512898  30.0936723  48.9269209   8.7720829
  30.3594303  48.5780621   7.9212600  29.3327975  48.4014082   9.0193504
  42.6922798  36.2267327   6.6914588  42.9328823  36.2937713   5.7674211
  42.3061848  35.3549242   6.7757857  -0.0508209  19.8679052  36.2443229
  -0.7150241  20.4582630  35.8885881   0.7818059  20.2950226  36.0429832
  77.2256789   1.9608126  28.3628580  78.1194863   1.8562804  28.0366465
  77.3306403   2.1294032  29.2992303
  79.8655754  79.8655754  79.8655754 109.4712190 109.4712190 109.4712190
